 vasp.5.4.4.18Apr17-6-g9f103f2a35 (build Feb 25 2019 10:51:38) complex          
  
 executed on             LinuxIFC date 2021.03.09  15:31:39
 running on   80 total cores
 distrk:  each k-point on   40 cores,    2 groups
 distr:  one band on NCORES_PER_BAND=  40 cores,    1 groups


--------------------------------------------------------------------------------------------------------


 INCAR:
 POTCAR:    PAW_PBE C 08Apr2002                   
 POTCAR:    PAW_PBE N 08Apr2002                   
 POTCAR:    PAW_PBE Fe 06Sep2000                  

 ----------------------------------------------------------------------------- 
|                                                                             |
|           W    W    AA    RRRRR   N    N  II  N    N   GGGG   !!!           |
|           W    W   A  A   R    R  NN   N  II  NN   N  G    G  !!!           |
|           W    W  A    A  R    R  N N  N  II  N N  N  G       !!!           |
|           W WW W  AAAAAA  RRRRR   N  N N  II  N  N N  G  GGG   !            |
|           WW  WW  A    A  R   R   N   NN  II  N   NN  G    G                |
|           W    W  A    A  R    R  N    N  II  N    N   GGGG   !!!           |
|                                                                             |
|      For optimal performance we recommend to set                            |
|        NCORE= 4 - approx SQRT( number of cores)                             |
|      NCORE specifies how many cores store one orbital (NPAR=cpu/NCORE).     |
|      This setting can  greatly improve the performance of VASP for DFT.     |
|      The default,   NCORE=1            might be grossly inefficient         |
|      on modern multi-core architectures or massively parallel machines.     |
|      Do your own testing !!!!                                               |
|      Unfortunately you need to use the default for GW and RPA calculations. |
|      (for HF NCORE is supported but not extensively tested yet)             |
|                                                                             |
 ----------------------------------------------------------------------------- 


 ----------------------------------------------------------------------------- 
|                                                                             |
|           W    W    AA    RRRRR   N    N  II  N    N   GGGG   !!!           |
|           W    W   A  A   R    R  NN   N  II  NN   N  G    G  !!!           |
|           W    W  A    A  R    R  N N  N  II  N N  N  G       !!!           |
|           W WW W  AAAAAA  RRRRR   N  N N  II  N  N N  G  GGG   !            |
|           WW  WW  A    A  R   R   N   NN  II  N   NN  G    G                |
|           W    W  A    A  R    R  N    N  II  N    N   GGGG   !!!           |
|                                                                             |
|      You have enabled k-point parallelism (KPAR>1).                         |
|      This developmental code was originally  written by Paul Kent at ORNL,  |
|      and carefully double checked in Vienna.                                |
|      GW as well as linear response parallelism added by Martijn Marsman     |
|      and Georg Kresse.                                                      |
|      Carefully verify results versus KPAR=1.                                |
|      Report problems to Paul Kent and Vienna.                               |
|                                                                             |
 ----------------------------------------------------------------------------- 

 POTCAR:    PAW_PBE C 08Apr2002                   
   VRHFIN =C: s2p2                                                              
   LEXCH  = PE                                                                  
   EATOM  =   147.1560 eV,   10.8157 Ry                                         
                                                                                
   TITEL  = PAW_PBE C 08Apr2002                                                 
   LULTRA =        F    use ultrasoft PP ?                                      
   IUNSCR =        1    unscreen: 0-lin 1-nonlin 2-no                           
   RPACOR =    1.200    partial core radius                                     
   POMASS =   12.011; ZVAL   =    4.000    mass and valenz                      
   RCORE  =    1.500    outmost cutoff radius                                   
   RWIGS  =    1.630; RWIGS  =    0.863    wigner-seitz radius (au A)           
   ENMAX  =  400.000; ENMIN  =  300.000 eV                                      
   ICORE  =        2    local potential                                         
   LCOR   =        T    correct aug charges                                     
   LPAW   =        T    paw PP                                                  
   EAUG   =  644.873                                                            
   DEXC   =    0.000                                                            
   RMAX   =    1.529    core radius for proj-oper                               
   RAUG   =    1.300    factor for augmentation sphere                          
   RDEP   =    1.501    radius for radial grids                                 
   RDEPT  =    1.300    core radius for aug-charge                              
                                                                                
   Atomic configuration                                                         
    4 entries                                                                   
     n  l   j            E        occ.                                          
     1  0  0.50      -273.3789   2.0000                                         
     2  0  0.50       -13.7508   2.0000                                         
     2  1  0.50        -5.2854   2.0000                                         
     3  2  1.50        -5.4423   0.0000                                         
   Description                                                                  
     l       E           TYP  RCUT    TYP  RCUT                                 
     0    -13.7508458     23  1.200                                             
     0     -8.2022199     23  1.200                                             
     1     -5.2854383     23  1.500                                             
     1     34.0145650     23  1.500                                             
     2     -5.4423304      7  1.500                                             
  local pseudopotential read in
  partial core-charges read in
  partial kinetic energy density read in
  atomic valenz-charges read in
  non local Contribution for L=           0  read in
    real space projection operators read in
  non local Contribution for L=           0  read in
    real space projection operators read in
  non local Contribution for L=           1  read in
    real space projection operators read in
  non local Contribution for L=           1  read in
    real space projection operators read in
    PAW grid and wavefunctions read in
 
   number of l-projection  operators is LMAX  =           4
   number of lm-projection operators is LMMAX =           8
 
 POTCAR:    PAW_PBE N 08Apr2002                   
   VRHFIN =N: s2p3                                                              
   LEXCH  = PE                                                                  
   EATOM  =   264.5486 eV,   19.4438 Ry                                         
                                                                                
   TITEL  = PAW_PBE N 08Apr2002                                                 
   LULTRA =        F    use ultrasoft PP ?                                      
   IUNSCR =        1    unscreen: 0-lin 1-nonlin 2-no                           
   RPACOR =    1.200    partial core radius                                     
   POMASS =   14.001; ZVAL   =    5.000    mass and valenz                      
   RCORE  =    1.500    outmost cutoff radius                                   
   RWIGS  =    1.400; RWIGS  =    0.741    wigner-seitz radius (au A)           
   ENMAX  =  400.000; ENMIN  =  300.000 eV                                      
   ICORE  =        2    local potential                                         
   LCOR   =        T    correct aug charges                                     
   LPAW   =        T    paw PP                                                  
   EAUG   =  627.112                                                            
   DEXC   =    0.000                                                            
   RMAX   =    1.529    core radius for proj-oper                               
   RAUG   =    1.300    factor for augmentation sphere                          
   RDEP   =    1.514    radius for radial grids                                 
   RDEPT  =    1.338    core radius for aug-charge                              
                                                                                
   Atomic configuration                                                         
    4 entries                                                                   
     n  l   j            E        occ.                                          
     1  0  0.50      -384.7179   2.0000                                         
     2  0  0.50       -18.5828   2.0000                                         
     2  1  0.50        -7.0898   3.0000                                         
     3  2  1.50        -6.8029   0.0000                                         
   Description                                                                  
     l       E           TYP  RCUT    TYP  RCUT                                 
     0    -18.5828119     23  1.200                                             
     0    -13.5018863     23  1.200                                             
     1     -7.0897853     23  1.500                                             
     1      9.5240782     23  1.500                                             
     2     -6.8029130      7  1.500                                             
  local pseudopotential read in
  partial core-charges read in
  partial kinetic energy density read in
  atomic valenz-charges read in
  non local Contribution for L=           0  read in
    real space projection operators read in
  non local Contribution for L=           0  read in
    real space projection operators read in
  non local Contribution for L=           1  read in
    real space projection operators read in
  non local Contribution for L=           1  read in
    real space projection operators read in
    PAW grid and wavefunctions read in
 
   number of l-projection  operators is LMAX  =           4
   number of lm-projection operators is LMMAX =           8
 
 POTCAR:    PAW_PBE Fe 06Sep2000                  
   VRHFIN =Fe:  d7 s1                                                           
   LEXCH  = PE                                                                  
   EATOM  =   594.3153 eV,   43.6809 Ry                                         
                                                                                
   TITEL  = PAW_PBE Fe 06Sep2000                                                
   LULTRA =        F    use ultrasoft PP ?                                      
   IUNSCR =        1    unscreen: 0-lin 1-nonlin 2-no                           
   RPACOR =    2.000    partial core radius                                     
   POMASS =   55.847; ZVAL   =    8.000    mass and valenz                      
   RCORE  =    2.300    outmost cutoff radius                                   
   RWIGS  =    2.460; RWIGS  =    1.302    wigner-seitz radius (au A)           
   ENMAX  =  267.882; ENMIN  =  200.911 eV                                      
   RCLOC  =    1.701    cutoff for local pot                                    
   LCOR   =        T    correct aug charges                                     
   LPAW   =        T    paw PP                                                  
   EAUG   =  511.368                                                            
   DEXC   =    0.000                                                            
   RMAX   =    2.356    core radius for proj-oper                               
   RAUG   =    1.300    factor for augmentation sphere                          
   RDEP   =    2.442    radius for radial grids                                 
   RDEPT  =    1.890    core radius for aug-charge                              
                                                                                
   Atomic configuration                                                         
    9 entries                                                                   
     n  l   j            E        occ.                                          
     1  0  0.50     -6993.8440   2.0000                                         
     2  0  0.50      -814.6047   2.0000                                         
     2  1  1.50      -693.3689   6.0000                                         
     3  0  0.50       -89.4732   2.0000                                         
     3  1  1.50       -55.6373   6.0000                                         
     3  2  2.50        -3.8151   7.0000                                         
     4  0  0.50        -4.2551   1.0000                                         
     4  1  1.50        -3.4015   0.0000                                         
     4  3  2.50        -1.3606   0.0000                                         
   Description                                                                  
     l       E           TYP  RCUT    TYP  RCUT                                 
     2     -3.8151135     23  2.300                                             
     2     -5.1756961     23  2.300                                             
     0     -4.2550963     23  2.300                                             
     0      7.2035603     23  2.300                                             
     1     -2.7211652     23  2.300                                             
     1     18.4316424     23  2.300                                             
  local pseudopotential read in
  partial core-charges read in
  partial kinetic energy density read in
  atomic valenz-charges read in
  non local Contribution for L=           2  read in
    real space projection operators read in
  non local Contribution for L=           2  read in
    real space projection operators read in
  non local Contribution for L=           0  read in
    real space projection operators read in
  non local Contribution for L=           0  read in
    real space projection operators read in
  non local Contribution for L=           1  read in
    real space projection operators read in
  non local Contribution for L=           1  read in
    real space projection operators read in
    PAW grid and wavefunctions read in
 
   number of l-projection  operators is LMAX  =           6
   number of lm-projection operators is LMMAX =          18
 

 ----------------------------------------------------------------------------- 
|                                                                             |
|  ADVICE TO THIS USER RUNNING 'VASP/VAMP'   (HEAR YOUR MASTER'S VOICE ...):  |
|                                                                             |
|      You have a (more or less) 'large supercell' and for larger cells       |
|      it might be more efficient to use real space projection opertators     |
|      So try LREAL= Auto  in the INCAR   file.                               |
|      Mind:          For very  accurate calculation you might also keep the  |
|      reciprocal projection scheme          (i.e. LREAL=.FALSE.)             |
|                                                                             |
 ----------------------------------------------------------------------------- 

  PAW_PBE C 08Apr2002                   :
 energy of atom  1       EATOM= -147.1560
 kinetic energy error for atom=    0.0076 (will be added to EATOM!!)
  PAW_PBE N 08Apr2002                   :
 energy of atom  2       EATOM= -264.5486
 kinetic energy error for atom=    0.0138 (will be added to EATOM!!)
  PAW_PBE Fe 06Sep2000                  :
 energy of atom  3       EATOM= -594.3153
 kinetic energy error for atom=    0.0026 (will be added to EATOM!!)
 
 
 POSCAR:  C  N Fe                                
  positions in cartesian coordinates
  No initial velocities read in
 exchange correlation table for  LEXCH =        8
   RHO(1)=    0.500       N(1)  =     2000
   RHO(2)=  100.500       N(2)  =     4000

 VTST: version 3.2, (02/03/18)

 CHAIN: initializing optimizer
 
 OPT: Using VASP Conjugate-Gradient optimizer
 CHAIN: Read ICHAIN            0
 
 POSCAR:  C  N Fe                                
  positions in cartesian coordinates
  No initial velocities read in
 


--------------------------------------------------------------------------------------------------------


 ion  position               nearest neighbor table
   1  0.223  0.000  0.493-   3 1.43  19 1.43   4 1.44
   2  0.057  0.101  0.487-   3 1.43  37 1.43   7 1.44
   3  0.111  0.000  0.489-   1 1.43   2 1.43  17 1.43
   4  0.278  0.101  0.495-  21 1.42   5 1.44   1 1.44
   5  0.224  0.203  0.497-   7 1.43   4 1.44   8 1.45
   6  0.056  0.301  0.490-   7 1.43  41 1.43  11 1.43
   7  0.113  0.201  0.491-   6 1.43   5 1.43   2 1.44
   8  0.281  0.304  0.505-   5 1.45  25 1.45   9 1.47
   9  0.220  0.404  0.507-  54 1.38  11 1.43   8 1.47
  10  0.053  0.501  0.495-  45 1.43  14 1.43  11 1.44
  11  0.110  0.401  0.496-   9 1.43   6 1.43  10 1.44
  12  0.218  0.600  0.511-  54 1.38  14 1.43  15 1.45
  13  0.053  0.700  0.493-  14 1.42  49 1.43  18 1.43
  14  0.108  0.601  0.499-  13 1.42  12 1.43  10 1.43
  15  0.274  0.701  0.515-  16 1.43  12 1.45  29 1.47
  16  0.221  0.799  0.501-  15 1.43  18 1.43  19 1.44
  17  0.056  0.900  0.488-  53 1.43  18 1.43   3 1.43
  18  0.110  0.800  0.493-  17 1.43  16 1.43  13 1.43
  19  0.277  0.900  0.499-   1 1.43  31 1.43  16 1.44
  20  0.555  1.000  0.491-  33 1.42  22 1.42  23 1.42
  21  0.389  0.100  0.493-   4 1.42  26 1.43  22 1.43
  22  0.444  1.000  0.494-  20 1.42  21 1.43  31 1.43
  23  0.612  0.098  0.486-  24 1.42  20 1.42  35 1.43
  24  0.556  0.197  0.490-  23 1.42  27 1.42  26 1.42
  25  0.394  0.299  0.508-  55 1.39  26 1.43   8 1.45
  26  0.445  0.198  0.495-  24 1.42  21 1.43  25 1.43
  27  0.614  0.294  0.493-  28 1.40  24 1.42  39 1.42
  28  0.561  0.389  0.511-  55 1.37  56 1.38  27 1.40
  29  0.382  0.711  0.540-  57 1.35  15 1.47  32 1.48  60 2.51
  30  0.557  0.804  0.512-  58 1.38  33 1.43  32 1.44
  31  0.389  0.900  0.502-  32 1.43  22 1.43  19 1.43
  32  0.445  0.803  0.517-  31 1.43  30 1.44  29 1.48
  33  0.611  0.901  0.497-  20 1.42  30 1.43  51 1.43
  34  0.890  1.000  0.483-  53 1.43  36 1.43  37 1.44
  35  0.723  0.099  0.483-  36 1.42  23 1.43  40 1.43
  36  0.778  0.999  0.484-  35 1.42  51 1.43  34 1.43
  37  0.946  0.100  0.483-  38 1.43   2 1.43  34 1.44
  38  0.890  0.199  0.483-  40 1.42  37 1.43  41 1.43
  39  0.724  0.297  0.488-  27 1.42  40 1.42  44 1.43
  40  0.779  0.198  0.483-  39 1.42  38 1.42  35 1.43
  41  0.945  0.300  0.486-   6 1.43  38 1.43  42 1.43
  42  0.888  0.400  0.489-  44 1.42  45 1.43  41 1.43
  43  0.719  0.494  0.505-  56 1.39  44 1.43  48 1.46
  44  0.778  0.398  0.492-  42 1.42  39 1.43  43 1.43
  45  0.942  0.500  0.493-  42 1.43  10 1.43  46 1.44
  46  0.884  0.600  0.495-  45 1.44  49 1.44  48 1.45
  47  0.719  0.703  0.505-  58 1.37  52 1.43  48 1.46
  48  0.772  0.599  0.503-  46 1.45  47 1.46  43 1.46
  49  0.941  0.699  0.492-  50 1.42  13 1.43  46 1.44
  50  0.888  0.800  0.489-  49 1.42  52 1.42  53 1.44
  51  0.722  0.900  0.491-  33 1.43  52 1.43  36 1.43
  52  0.777  0.800  0.494-  50 1.42  51 1.43  47 1.43
  53  0.944  0.899  0.486-  34 1.43  17 1.43  50 1.44
  54  0.268  0.502  0.519-   9 1.38  12 1.38  59 1.95
  55  0.456  0.387  0.524-  28 1.37  25 1.39  59 1.94
  56  0.614  0.484  0.520-  28 1.38  43 1.39  60 1.88
  57  0.416  0.646  0.589-  29 1.35  60 1.80  59 1.88
  58  0.615  0.711  0.520-  47 1.37  30 1.38  60 1.87
  59  0.389  0.498  0.578-  57 1.88  55 1.94  54 1.95  60 2.33
  60  0.541  0.598  0.561-  57 1.80  58 1.87  56 1.88  59 2.33  29 2.51
 
  LATTYP: Found a simple orthorhombic cell.
 ALAT       =    12.4000000000
 B/A-ratio  =     1.0330645161
 C/A-ratio  =     1.6129032258
  
  Lattice vectors:
  
 A1 = (   0.0000000000, -12.4000000000,   0.0000000000)
 A2 = ( -12.8100000000,   0.0000000000,   0.0000000000)
 A3 = (   0.0000000000,   0.0000000000, -20.0000000000)


Analysis of symmetry for initial positions (statically):
=====================================================================
 Subroutine PRICEL returns:
 Original cell was already a primitive cell.
 

 Routine SETGRP: Setting up the symmetry group for a 
 simple orthorhombic supercell.


 Subroutine GETGRP returns: Found  1 space group operations
 (whereof  1 operations were pure point group operations)
 out of a pool of  8 trial point group operations.


The static configuration has the point symmetry C_1 .


Analysis of symmetry for dynamics (positions and initial velocities):
=====================================================================
 Subroutine PRICEL returns:
 Original cell was already a primitive cell.
 

 Routine SETGRP: Setting up the symmetry group for a 
 simple orthorhombic supercell.


 Subroutine GETGRP returns: Found  1 space group operations
 (whereof  1 operations were pure point group operations)
 out of a pool of  8 trial point group operations.


The dynamic configuration has the point symmetry C_1 .


Analysis of structural, dynamic, and magnetic symmetry:
=====================================================================
 Subroutine PRICEL returns:
 Original cell was already a primitive cell.
 

 Routine SETGRP: Setting up the symmetry group for a 
 simple orthorhombic supercell.


 Subroutine GETGRP returns: Found  1 space group operations
 (whereof  1 operations were pure point group operations)
 out of a pool of  8 trial point group operations.


The magnetic configuration has the point symmetry C_1 .


 Subroutine INISYM returns: Found  1 space group operations
 (whereof  1 operations are pure point group operations),
 and found     1 'primitive' translations

 
 
 KPOINTS: KPOINTS created by Atomic Simulation Env

Automatic generation of k-mesh.
Space group operators:
 irot       det(A)        alpha          n_x          n_y          n_z        tau_x        tau_y        tau_z
    1     1.000000     0.000000     1.000000     0.000000     0.000000     0.000000     0.000000     0.000000
 
 Subroutine IBZKPT returns following result:
 ===========================================
 
 Found      2 irreducible k-points:
 
 Following reciprocal coordinates:
            Coordinates               Weight
  0.250000  0.250000  0.000000      2.000000
 -0.250000  0.250000  0.000000      2.000000
 
 Following cartesian coordinates:
            Coordinates               Weight
  0.019516  0.020161  0.000000      2.000000
 -0.019516  0.020161  0.000000      2.000000
 
 
 Subroutine IBZKPT_HF returns following result:
 ==============================================
 
 Found      4 k-points in 1st BZ
 the following      4 k-points will be used (e.g. in the exchange kernel)
 Following reciprocal coordinates:   # in IRBZ
  0.250000  0.250000  0.000000    0.25000000   1 t-inv F
 -0.250000  0.250000  0.000000    0.25000000   2 t-inv F
 -0.250000 -0.250000  0.000000    0.25000000   1 t-inv T
  0.250000 -0.250000  0.000000    0.25000000   2 t-inv T


--------------------------------------------------------------------------------------------------------




 Dimension of arrays:
   k-points           NKPTS =      2   k-points in BZ     NKDIM =      4   number of bands    NBANDS=    159
   number of dos      NEDOS =    301   number of ions     NIONS =     60
   non local maximal  LDIM  =      6   non local SUM 2l+1 LMDIM =     18
   total plane-waves  NPLWV = ******
   max r-space proj   IRMAX =      1   max aug-charges    IRDMAX=  14730
   dimension x,y,z NGX =    96 NGY =   90 NGZ =  150
   dimension x,y,z NGXF=   192 NGYF=  180 NGZF=  300
   support grid    NGXF=   192 NGYF=  180 NGZF=  300
   ions per type =              53   5   2
   NGX,Y,Z   is equivalent  to a cutoff of  12.46, 12.07, 12.47 a.u.
   NGXF,Y,Z  is equivalent  to a cutoff of  24.92, 24.13, 24.94 a.u.

 SYSTEM =  unknown system                          
 POSCAR =   C  N Fe                                

 Startparameter for this run:
   NWRITE =      2    write-flag & timer
   PREC   = accura    normal or accurate (medium, high low for compatibility)
   ISTART =      1    job   : 0-new  1-cont  2-samecut
   ICHARG =      0    charge: 1-file 2-atom 10-const
   ISPIN  =      2    spin polarized calculation?
   LNONCOLLINEAR =      F non collinear calculations
   LSORBIT =      F    spin-orbit coupling
   INIWAV =      1    electr: 0-lowe 1-rand  2-diag
   LASPH  =      T    aspherical Exc in radial PAW
   METAGGA=      F    non-selfconsistent MetaGGA calc.

 Electronic Relaxation 1
   ENCUT  =  500.0 eV  36.75 Ry    6.06 a.u.  23.36 22.61 36.46*2*pi/ulx,y,z
   ENINI  =  500.0     initial cutoff
   ENAUG  =  644.9 eV  augmentation charge cutoff
   NELM   =    250;   NELMIN=  2; NELMDL=  0     # of ELM steps 
   EDIFF  = 0.1E-03   stopping-criterion for ELM
   LREAL  =      F    real-space projection
   NLSPLINE    = F    spline interpolate recip. space projectors
   LCOMPAT=      F    compatible to vasp.4.4
   GGA_COMPAT  = T    GGA compatible to vasp.4.4-vasp.4.6
   LMAXPAW     = -100 max onsite density
   LMAXMIX     =    2 max onsite mixed and CHGCAR
   VOSKOWN=      0    Vosko Wilk Nusair interpolation
   ROPT   =    0.00000   0.00000   0.00000
 Ionic relaxation
   EDIFFG = -.3E-01   stopping-criterion for IOM
   NSW    =      0    number of steps for IOM
   NBLOCK =      1;   KBLOCK =      1    inner block; outer block 
   IBRION =     -1    ionic relax: 0-MD 1-quasi-New 2-CG
   NFREE  =      1    steps in history (QN), initial steepest desc. (CG)
   ISIF   =      2    stress and relaxation
   IWAVPR =     10    prediction:  0-non 1-charg 2-wave 3-comb
   ISYM   =      3    0-nonsym 1-usesym 2-fastsym
   LCORR  =      T    Harris-Foulkes like correction to forces

   POTIM  = 0.5000    time-step for ionic-motion
   TEIN   =    0.0    initial temperature
   TEBEG  =    0.0;   TEEND  =   0.0 temperature during run
   SMASS  =  -3.00    Nose mass-parameter (am)
   estimated Nose-frequenzy (Omega)   =  0.10E-29 period in steps =****** mass=  -0.375E-26a.u.
   SCALEE = 1.0000    scale energy and forces
   NPACO  =    256;   APACO  = 16.0  distance and # of slots for P.C.
   PSTRESS=    0.0 pullay stress

  Mass of Ions in am
   POMASS =  12.01 14.00 55.85
  Ionic Valenz
   ZVAL   =   4.00  5.00  8.00
  Atomic Wigner-Seitz radii
   RWIGS  =  -1.00 -1.00 -1.00
  virtual crystal weights 
   VCA    =   1.00  1.00  1.00
   NELECT =     253.0000    total number of electrons
   NUPDOWN=      -1.0000    fix difference up-down

 DOS related values:
   EMIN   =  10.00;   EMAX   =-10.00  energy-range for DOS
   EFERMI =   0.00
   ISMEAR =     0;   SIGMA  =   0.10  broadening in eV -4-tet -1-fermi 0-gaus

 Electronic relaxation 2 (details)
   IALGO  =     53    algorithm
   LDIAG  =      T    sub-space diagonalisation (order eigenvalues)
   LSUBROT=      F    optimize rotation matrix (better conditioning)
   TURBO    =      0    0=normal 1=particle mesh
   IRESTART =      0    0=no restart 2=restart with 2 vectors
   NREBOOT  =      0    no. of reboots
   NMIN     =      0    reboot dimension
   EREF     =   0.00    reference energy to select bands
   IMIX   =      4    mixing-type and parameters
     AMIX     =   0.40;   BMIX     =  1.00
     AMIX_MAG =   1.60;   BMIX_MAG =  1.00
     AMIN     =   0.10
     WC   =   100.;   INIMIX=   1;  MIXPRE=   1;  MAXMIX= -45

 Intra band minimization:
   WEIMIN = 0.0000     energy-eigenvalue tresh-hold
   EBREAK =  0.16E-06  absolut break condition
   DEPER  =   0.30     relativ break condition  

   TIME   =   0.20     timestep for ELM

  volume/ion in A,a.u.               =      52.95       357.31
  Fermi-wavevector in a.u.,A,eV,Ry     =   0.704338  1.331007  6.749750  0.496093
  Thomas-Fermi vector in A             =   1.789553
 
 Write flags
   LWAVE        =      T    write WAVECAR
   LDOWNSAMPLE  =      F    k-point downsampling of WAVECAR
   LCHARG       =      T    write CHGCAR
   LVTOT        =      F    write LOCPOT, total local potential
   LVHAR        =      T    write LOCPOT, Hartree potential only
   LELF         =      F    write electronic localiz. function (ELF)
   LORBIT       =     11    0 simple, 1 ext, 2 COOP (PROOUT), +10 PAW based schemes


 Dipole corrections
   LMONO  =      F    monopole corrections only (constant potential shift)
   LDIPOL =      T    correct potential (dipole corrections)
   IDIPOL =      3    1-x, 2-y, 3-z, 4-all directions 
   EPSILON=  1.0000000 bulk dielectric constant

 Exchange correlation treatment:
   GGA     =    PE    GGA type
   LEXCH   =     8    internal setting for exchange type
   VOSKOWN=      0    Vosko Wilk Nusair interpolation
   EXXOEP  =     0    0=HF, 1=EXX-LHF (local Hartree Fock) 2=EXX OEP
   LHFCALC =     T    Hartree Fock is set to
   LSYMGRAD=     F    symmetrize gradient (conserves proper symmetry)
   PRECFOCK=normal    Normal, Fast or Accurate (Low or Medium for compatibility)
   LRHFCALC=     F    long range Hartree Fock
   LRSCOR  =     F    long range correlation only (use DFT for short range part)
   LTHOMAS =     F    Thomas Fermi screening in HF
   LMODELHF=     F    short range full HF, long range fraction AEXX
   ENCUT4O =  -1.0   cutoff for four orbital integrals eV
   LMAXFOCK=     4    L truncation for augmentation on plane wave grid
   LMAXFOCKAE=  -1    L truncation for all-electron charge restoration on plane wave grid
   NMAXFOCKAE=   1    number of basis functions for all-electron charge restoration
   LFOCKAEDFT=     F  apply the AE augmentation even for DFT
   NKREDX  =     1    reduce k-point grid by
   NKREDY  =     1    reduce k-point grid by
   NKREDZ  =     1    reduce k-point grid by
   SHIFTRED=     F    shift reduced grid of Gamma
   HFKIDENT=     F    idential grid for each k-point
   ODDONLY =     F    use only odd q-grid points
   EVENONLY=     F    use only even q-grid points
   HFALPHA =   -1.0000 decay constant for conv. correction
   MCALPHA =    0.0000 extent of test-charge in conv. correction in multipole expansion
   AEXX    =    0.2500 exact exchange contribution
   HFSCREEN=    0.2000 screening length (either q_TF or 0.3 A-1)
   HFSCREENC=   0.2000 screening length for correlation (either q_TF or 0.3 A-1)
   HFRCUT  =    0.0000 spherical cutoff for potential kernel
   ALDAX   =    0.7500 LDA exchange part
   AGGAX   =    0.7500 GGA exchange part
   ALDAC   =    1.0000 LDA correlation
   AGGAC   =    1.0000 GGA correlation
   ENCUTFOCK=  -1.0 apply spherical cutoff to Coloumb kernel
   NBANDSGWLOW=     1    first orbital included in HF term
   NBLOCK_FOCK=    64    blocking factor in FOCK_ACC
 Linear response parameters
   LEPSILON=     F    determine dielectric tensor
   LRPA    =     F    only Hartree local field effects (RPA)
   LNABLA  =     F    use nabla operator in PAW spheres
   LVEL    =     F    velocity operator in full k-point grid
   LINTERFAST=   F  fast interpolation
   KINTER  =     0    interpolate to denser k-point grid
   CSHIFT  =0.1000    complex shift for real part using Kramers Kronig
   OMEGAMAX=  -1.0    maximum frequency
   DEG_THRESHOLD= 0.2000000E-02 threshold for treating states as degnerate
   RTIME   =   -0.100 relaxation time in fs
  (WPLASMAI=    0.000 imaginary part of plasma frequency in eV, 0.658/RTIME)
   DFIELD  = 0.0000000 0.0000000 0.0000000 field for delta impulse in time
 
 Orbital magnetization related:
   ORBITALMAG=     F  switch on orbital magnetization
   LCHIMAG   =     F  perturbation theory with respect to B field
   DQ        =  0.001000  dq finite difference perturbation B field
   LLRAUG    =     F  two centre corrections for induced B field



--------------------------------------------------------------------------------------------------------


 Static calculation
 charge density and potential will be updated during run
 spin polarized calculation
 Conjugate gradient for all bands (Freysoldt, et al. PRB 79, 241103 (2009))
 perform sub-space diagonalisation
    before iterative eigenvector-optimisation
 modified Broyden-mixing scheme, WC =      100.0
 initial mixing is a Kerker type mixing with AMIX =  0.4000 and BMIX =      1.0000
 Hartree-type preconditioning will be used
 using additional bands           32
 reciprocal scheme for non local part
 use partial core corrections
 no Harris-corrections to forces 
 use gradient corrections 
 use of overlap-Matrix (Vanderbilt PP)
 Gauss-broadening in eV      SIGMA  =   0.10


--------------------------------------------------------------------------------------------------------


  energy-cutoff  :      500.00
  volume of cell :     3176.88
      direct lattice vectors                 reciprocal lattice vectors
    12.810000000  0.000000000  0.000000000     0.078064012  0.000000000  0.000000000
     0.000000000 12.400000000  0.000000000     0.000000000  0.080645161  0.000000000
     0.000000000  0.000000000 20.000000000     0.000000000  0.000000000  0.050000000

  length of vectors
    12.810000000 12.400000000 20.000000000     0.078064012  0.080645161  0.050000000


 
 old parameters found on file WAVECAR:
  energy-cutoff  :      500.00
  volume of cell :     3176.88
      direct lattice vectors                 reciprocal lattice vectors
    12.810000000  0.000000000  0.000000000     0.078064012  0.000000000  0.000000000
     0.000000000 12.400000000  0.000000000     0.000000000  0.080645161  0.000000000
     0.000000000  0.000000000 20.000000000     0.000000000  0.000000000  0.050000000

  length of vectors

 
 k-points in units of 2pi/SCALE and weight: KPOINTS created by Atomic Simulation Env
   0.01951600  0.02016129  0.00000000       0.500
  -0.01951600  0.02016129  0.00000000       0.500
 
 k-points in reciprocal lattice and weights: KPOINTS created by Atomic Simulation Env
   0.25000000  0.25000000  0.00000000       0.500
  -0.25000000  0.25000000  0.00000000       0.500
 
 position of ions in fractional coordinates (direct lattice) 
   0.22259142  0.00029146  0.49321059
   0.05739708  0.10057937  0.48680075
   0.11149848  0.00008679  0.48879902
   0.27793180  0.10137924  0.49453796
   0.22442357  0.20322648  0.49668398
   0.05621397  0.30056410  0.49040587
   0.11284513  0.20138414  0.49107583
   0.28078256  0.30402984  0.50548414
   0.22032335  0.40445444  0.50704021
   0.05315216  0.50093668  0.49537293
   0.10998009  0.40116105  0.49643877
   0.21792378  0.60019777  0.51109462
   0.05299823  0.70015837  0.49334638
   0.10827100  0.60086870  0.49855747
   0.27423275  0.70113963  0.51513241
   0.22093967  0.79943246  0.50053599
   0.05555222  0.89988876  0.48780361
   0.10984869  0.79965641  0.49250818
   0.27720659  0.90029969  0.49876402
   0.55507983  0.99950413  0.49116885
   0.38861853  0.09958552  0.49326893
   0.44408259  0.99973080  0.49386170
   0.61163175  0.09797313  0.48593582
   0.55640023  0.19660534  0.49008155
   0.39413186  0.29857972  0.50811115
   0.44549597  0.19846308  0.49548531
   0.61373342  0.29417127  0.49262586
   0.56074989  0.38882070  0.51079280
   0.38168056  0.71078958  0.53957515
   0.55688204  0.80382164  0.51180581
   0.38895483  0.90017228  0.50189356
   0.44458896  0.80336862  0.51675097
   0.61098552  0.90119747  0.49652598
   0.88978099  0.99959706  0.48340831
   0.72288983  0.09866728  0.48307931
   0.77828720  0.99918817  0.48434348
   0.94602908  0.09970799  0.48321270
   0.89043573  0.19931626  0.48297467
   0.72409536  0.29702059  0.48775088
   0.77926168  0.19818693  0.48266705
   0.94493476  0.29994145  0.48624811
   0.88846149  0.39951598  0.48934008
   0.71930629  0.49409595  0.50498207
   0.77750127  0.39778461  0.49231723
   0.94178492  0.50037448  0.49279570
   0.88381291  0.59956832  0.49542171
   0.71920769  0.70288427  0.50532032
   0.77152820  0.59868700  0.50311338
   0.94128711  0.69917323  0.49199253
   0.88760440  0.79963067  0.48929415
   0.72198528  0.90036350  0.49104981
   0.77665244  0.80014271  0.49372629
   0.94420272  0.89938460  0.48578824
   0.26753228  0.50216753  0.51935404
   0.45565781  0.38739724  0.52386692
   0.61425888  0.48377489  0.52010934
   0.41639678  0.64605220  0.58928839
   0.61468079  0.71053244  0.52016830
   0.38926773  0.49789008  0.57775931
   0.54098783  0.59768595  0.56077150
 
 position of ions in cartesian coordinates  (Angst):
   2.85139612  0.00361406  9.86421185
   0.73525661  1.24718422  9.73601505
   1.42829551  0.00107618  9.77598034
   3.56030636  1.25710257  9.89075926
   2.87486598  2.52000837  9.93367956
   0.72010096  3.72699478  9.80811739
   1.44554614  2.49716332  9.82151662
   3.59682458  3.76996997 10.10968290
   2.82234218  5.01523504 10.14080417
   0.68087919  6.21161479  9.90745854
   1.40884494  4.97439701  9.92877531
   2.79160367  7.44245231 10.22189236
   0.67890734  8.68196377  9.86692763
   1.38695148  7.45077189  9.97114947
   3.51292152  8.69413144 10.30264817
   2.83023719  9.91296245 10.01071990
   0.71162397 11.15862068  9.75607222
   1.40716170  9.91573944  9.85016368
   3.55101648 11.16371617  9.97528046
   7.11057259 12.39385119  9.82337690
   4.97820341  1.23486044  9.86537854
   5.68869795 12.39666187  9.87723396
   7.83500270  1.21486687  9.71871637
   7.12748689  2.43790618  9.80163107
   5.04882906  3.70238854 10.16222307
   5.70680334  2.46094217  9.90970618
   7.86192508  3.64772377  9.85251713
   7.18320615  4.82137666 10.21585609
   4.88932797  8.81379078 10.79150291
   7.13365891  9.96738832 10.23611624
   4.98251141 11.16213622 10.03787123
   5.69518456  9.96177086 10.33501932
   7.82672447 11.17484868  9.93051952
  11.39809444 12.39500350  9.66816620
   9.26021868  1.22347423  9.66158620
   9.96985908 12.38993330  9.68686955
  12.11863257  1.23637912  9.66425398
  11.40648167  2.47152165  9.65949341
   9.27566157  3.68305537  9.75501770
   9.98234209  2.45751787  9.65334099
  12.10461429  3.71927402  9.72496225
  11.38119167  4.95399813  9.78680161
   9.21431363  6.12678978 10.09964130
   9.95979123  4.93252911  9.84634455
  12.06426488  6.20464361  9.85591401
  11.32164342  7.43464712  9.90843427
   9.21305057  8.71576494 10.10640647
   9.88327631  7.42371875 10.06226763
  12.05788784  8.66974804  9.83985068
  11.37021240  9.91542035  9.78588298
   9.24863148 11.16450738  9.82099620
   9.94891769  9.92176960  9.87452574
  12.09523689 11.15236902  9.71576488
   3.42708854  6.22687738 10.38708070
   5.83697650  4.80372573 10.47733839
   7.86865622  5.99880867 10.40218675
   5.33404281  8.01104732 11.78576771
   7.87406096  8.81060227 10.40336604
   4.98651963  6.17383695 11.55518629
   6.93005415  7.41130579 11.21543010
 


--------------------------------------------------------------------------------------------------------


 k-point  1 :   0.2500 0.2500 0.0000  plane waves:   80679
 k-point  2 :  -0.2500 0.2500 0.0000  plane waves:   80679

 maximum and minimum number of plane-waves per node :      2047     1989

 maximum number of plane-waves:     80679
 maximum index in each direction: 
   IXMAX=   23   IYMAX=   22   IZMAX=   36
   IXMIN=  -23   IYMIN=  -22   IZMIN=  -36


 parallel 3D FFT for wavefunctions:
    minimum data exchange during FFTs selected (reduces bandwidth)
 parallel 3D FFT for charge:
    minimum data exchange during FFTs selected (reduces bandwidth)


 FFT grid for exact exchange (Hartree Fock) 
  NGX = 72; NGY = 70; NGZ =112

 
 Radii for the augmentation spheres in the non-local exchange
 for species   1 augmentation radius   0.874 (default was   0.699)
       energy cutoff for augmentation   2000.0
 for species   2 augmentation radius   0.886 (default was   0.709)
       energy cutoff for augmentation   2000.0
 for species   3 augmentation radius   1.263 (default was   1.010)
       energy cutoff for augmentation   2000.0

 real space projection operators:
  total allocation   :       2590.52 KBytes
  max/ min on nodes  :         96.38         36.88

 Maximum index for augmentation-charges in exchange          154
  SETUP_FOCK is finished

 total amount of memory used by VASP MPI-rank0   137360. kBytes
=======================================================================

   base      :      30000. kBytes
   nonl-proj :       3748. kBytes
   fftplans  :      11188. kBytes
   grid      :      27138. kBytes
   one-center:         62. kBytes
   HF        :         23. kBytes
   nonlr-proj:       1673. kBytes
   wavefun   :      63528. kBytes
 
     INWAV:  cpu time    4.1668: real time    4.1783
 Broyden mixing: mesh for mixing (old mesh)
   NGX = 47   NGY = 45   NGZ = 73
  (NGX  =192   NGY  =180   NGZ  =300)
  gives a total of 154395 points

 charge density for first step will be calculated from the start-wavefunctions


--------------------------------------------------------------------------------------------------------


 Maximum index for augmentation-charges          613 (set IRDMAX)


--------------------------------------------------------------------------------------------------------


 initial charge from wavefunction
 First call to EWALD:  gamma=   0.121
 Maximum number of real-space cells 3x 3x 2
 Maximum number of reciprocal cells 2x 2x 4

    FEWALD:  cpu time    0.0019: real time    0.0019


--------------------------------------- Iteration      1(   1)  ---------------------------------------


    POTLOK:  cpu time    0.8709: real time    0.8783
    SETDIJ:  cpu time    1.0013: real time    1.0048
    TRIAL :  cpu time  172.2246: real time  172.7988
    CORREC:  cpu time    0.0023: real time    0.0023
    CHARGE:  cpu time    0.7657: real time    0.7678
    --------------------------------------------
      LOOP:  cpu time  174.8852: real time  175.4747

 eigenvalue-minimisations  :     0
 total energy-change (2. order) :-0.6300392E+03  (-0.5374332E+00)
 number of electron     253.0000019 magnetization      -0.9555467
 augmentation part       14.4767823 magnetization      -0.4564077

 DIPCOR: dipole corrections for dipol
 direction  3 min pos     1,
 dipolmoment           0.000000      0.000000     -0.004659 electrons x Angstroem
 Tr[quadrupol]     -7003.940716

 energy correction for charged system         0.000000 eV
 dipol+quadrupol energy correction           -0.000001 eV
 added-field ion interaction          0.005826 eV  (added to PSCEN)


 Free energy of the ion-electron system (eV)
  ---------------------------------------------------
  alpha Z        PSCENC =       109.02804963
  Ewald energy   TEWEN  =     41156.50747631
  -Hartree energ DENC   =    -49965.06106007
  -exchange      EXHF   =       574.89042650
  -V(xc)+E(xc)   XCENC  =       643.21296418
  PAW double counting   =     27379.27100154   -27427.96283313
  entropy T*S    EENTRO =        -0.00787199
  eigenvalues    EBANDS =     -3292.22852954
  atomic energy  EATOM  =     10192.31843885
  ---------------------------------------------------
  free energy    TOTEN  =      -630.03923563 eV

  energy without entropy =     -630.03136365  energy(sigma->0) =     -630.03529964
  exchange ACFDT corr.  =        -0.02848020  see jH, gK, PRB 81, 115126


--------------------------------------------------------------------------------------------------------




--------------------------------------- Iteration      1(   2)  ---------------------------------------


    POTLOK:  cpu time    0.8758: real time    0.8782
    SETDIJ:  cpu time    0.9934: real time    0.9964
    TRIAL :  cpu time  170.5912: real time  171.1167
    CORREC:  cpu time    0.0019: real time    0.0019
    CHARGE:  cpu time    0.7621: real time    0.7641
    --------------------------------------------
      LOOP:  cpu time  173.2265: real time  173.7626

 eigenvalue-minimisations  :     0
 total energy-change (2. order) :-0.4169114E+00  (-0.4576393E+00)
 number of electron     253.0000019 magnetization      -0.9775377
 augmentation part       14.4347943 magnetization      -0.4703487

 DIPCOR: dipole corrections for dipol
 direction  3 min pos     1,
 dipolmoment           0.000000      0.000000      0.060210 electrons x Angstroem
 Tr[quadrupol]     -7003.719599

 energy correction for charged system         0.000000 eV
 dipol+quadrupol energy correction           -0.000104 eV
 added-field ion interaction         -0.075285 eV  (added to PSCEN)


 Free energy of the ion-electron system (eV)
  ---------------------------------------------------
  alpha Z        PSCENC =       108.94683600
  Ewald energy   TEWEN  =     41156.50747631
  -Hartree energ DENC   =    -49952.94939914
  -exchange      EXHF   =       574.84701757
  -V(xc)+E(xc)   XCENC  =       642.88060568
  PAW double counting   =     27522.53130470   -27571.38868831
  entropy T*S    EENTRO =        -0.00444395
  eigenvalues    EBANDS =     -3304.14186675
  atomic energy  EATOM  =     10192.31843885
  ---------------------------------------------------
  free energy    TOTEN  =      -630.45614708 eV

  energy without entropy =     -630.45170313  energy(sigma->0) =     -630.45392511
  exchange ACFDT corr.  =        -0.02066152  see jH, gK, PRB 81, 115126


--------------------------------------------------------------------------------------------------------




--------------------------------------- Iteration      1(   3)  ---------------------------------------


    POTLOK:  cpu time    0.8831: real time    0.8856
    SETDIJ:  cpu time    1.0085: real time    1.0130
    TRIAL :  cpu time  169.4253: real time  169.9472
    CORREC:  cpu time    0.0020: real time    0.0020
    CHARGE:  cpu time    0.7625: real time    0.7649
    --------------------------------------------
      LOOP:  cpu time  172.0825: real time  172.6173

 eigenvalue-minimisations  :     0
 total energy-change (2. order) :-0.3450621E+00  (-0.2528143E+00)
 number of electron     253.0000019 magnetization      -0.9896059
 augmentation part       14.4216989 magnetization      -0.4804472

 DIPCOR: dipole corrections for dipol
 direction  3 min pos     1,
 dipolmoment           0.000000      0.000000      0.040407 electrons x Angstroem
 Tr[quadrupol]     -7003.560004

 energy correction for charged system         0.000000 eV
 dipol+quadrupol energy correction           -0.000047 eV
 added-field ion interaction         -0.050523 eV  (added to PSCEN)


 Free energy of the ion-electron system (eV)
  ---------------------------------------------------
  alpha Z        PSCENC =       108.97165472
  Ewald energy   TEWEN  =     41156.50747631
  -Hartree energ DENC   =    -49936.14268353
  -exchange      EXHF   =       574.81837173
  -V(xc)+E(xc)   XCENC  =       642.51571811
  PAW double counting   =     27696.86071260   -27745.08544888
  entropy T*S    EENTRO =        -0.00229891
  eigenvalues    EBANDS =     -3321.56100514
  atomic energy  EATOM  =     10192.31843885
  ---------------------------------------------------
  free energy    TOTEN  =      -630.80120916 eV

  energy without entropy =     -630.79891025  energy(sigma->0) =     -630.80005971
  exchange ACFDT corr.  =        -0.00978696  see jH, gK, PRB 81, 115126


--------------------------------------------------------------------------------------------------------




--------------------------------------- Iteration      1(   4)  ---------------------------------------


    POTLOK:  cpu time    0.8882: real time    0.8914
    SETDIJ:  cpu time    1.0229: real time    1.0267
    TRIAL :  cpu time  169.6888: real time  170.2191
    CORREC:  cpu time    0.0018: real time    0.0018
    CHARGE:  cpu time    0.7647: real time    0.7669
    --------------------------------------------
      LOOP:  cpu time  172.3670: real time  172.9104

 eigenvalue-minimisations  :     0
 total energy-change (2. order) :-0.1946496E+00  (-0.1518596E+00)
 number of electron     253.0000019 magnetization      -0.9955339
 augmentation part       14.4355377 magnetization      -0.4876086

 DIPCOR: dipole corrections for dipol
 direction  3 min pos     1,
 dipolmoment           0.000000      0.000000      0.014165 electrons x Angstroem
 Tr[quadrupol]     -7003.528332

 energy correction for charged system         0.000000 eV
 dipol+quadrupol energy correction           -0.000006 eV
 added-field ion interaction         -0.017711 eV  (added to PSCEN)


 Free energy of the ion-electron system (eV)
  ---------------------------------------------------
  alpha Z        PSCENC =       109.00450783
  Ewald energy   TEWEN  =     41156.50747631
  -Hartree energ DENC   =    -49929.14294207
  -exchange      EXHF   =       574.98630759
  -V(xc)+E(xc)   XCENC  =       642.39405579
  PAW double counting   =     27847.82946274   -27895.87864465
  entropy T*S    EENTRO =        -0.00110213
  eigenvalues    EBANDS =     -3329.01222228
  atomic energy  EATOM  =     10192.31843885
  ---------------------------------------------------
  free energy    TOTEN  =      -630.99585880 eV

  energy without entropy =     -630.99475668  energy(sigma->0) =     -630.99530774
  exchange ACFDT corr.  =        -0.00466023  see jH, gK, PRB 81, 115126


--------------------------------------------------------------------------------------------------------




--------------------------------------- Iteration      1(   5)  ---------------------------------------


    POTLOK:  cpu time    0.8850: real time    0.8879
    SETDIJ:  cpu time    1.0223: real time    1.0249
    TRIAL :  cpu time  170.0568: real time  170.5775
    CORREC:  cpu time    0.0016: real time    0.0016
    CHARGE:  cpu time    0.7666: real time    0.7686
    --------------------------------------------
      LOOP:  cpu time  172.7337: real time  173.2658

 eigenvalue-minimisations  :     0
 total energy-change (2. order) :-0.1210166E+00  (-0.9568447E-01)
 number of electron     253.0000019 magnetization      -0.9977531
 augmentation part       14.4454944 magnetization      -0.4924079

 DIPCOR: dipole corrections for dipol
 direction  3 min pos     1,
 dipolmoment           0.000000      0.000000      0.001096 electrons x Angstroem
 Tr[quadrupol]     -7003.591651

 energy correction for charged system         0.000000 eV
 dipol+quadrupol energy correction           -0.000000 eV
 added-field ion interaction         -0.001370 eV  (added to PSCEN)


 Free energy of the ion-electron system (eV)
  ---------------------------------------------------
  alpha Z        PSCENC =       109.02085451
  Ewald energy   TEWEN  =     41156.50747631
  -Hartree energ DENC   =    -49931.14433486
  -exchange      EXHF   =       575.29579861
  -V(xc)+E(xc)   XCENC  =       642.48671107
  PAW double counting   =     27956.43808830   -28004.70809224
  entropy T*S    EENTRO =        -0.00059982
  eigenvalues    EBANDS =     -3327.33071382
  atomic energy  EATOM  =     10192.31843885
  ---------------------------------------------------
  free energy    TOTEN  =      -631.11687540 eV

  energy without entropy =     -631.11627558  energy(sigma->0) =     -631.11657549
  exchange ACFDT corr.  =        -0.00203096  see jH, gK, PRB 81, 115126


--------------------------------------------------------------------------------------------------------




--------------------------------------- Iteration      1(   6)  ---------------------------------------


    POTLOK:  cpu time    0.8831: real time    0.8868
    SETDIJ:  cpu time    1.0057: real time    1.0083
    TRIAL :  cpu time  169.7145: real time  170.2131
    CORREC:  cpu time    0.0016: real time    0.0016
    CHARGE:  cpu time    0.7659: real time    0.7694
    --------------------------------------------
      LOOP:  cpu time  172.3720: real time  172.8837

 eigenvalue-minimisations  :     0
 total energy-change (2. order) :-0.7980508E-01  (-0.6470582E-01)
 number of electron     253.0000019 magnetization      -0.9987264
 augmentation part       14.4481023 magnetization      -0.4972299

 DIPCOR: dipole corrections for dipol
 direction  3 min pos     1,
 dipolmoment           0.000000      0.000000     -0.009953 electrons x Angstroem
 Tr[quadrupol]     -7003.681163

 energy correction for charged system         0.000000 eV
 dipol+quadrupol energy correction           -0.000003 eV
 added-field ion interaction          0.012445 eV  (added to PSCEN)


 Free energy of the ion-electron system (eV)
  ---------------------------------------------------
  alpha Z        PSCENC =       109.03466649
  Ewald energy   TEWEN  =     41156.50747631
  -Hartree energ DENC   =    -49935.52115088
  -exchange      EXHF   =       575.60888118
  -V(xc)+E(xc)   XCENC  =       642.64701313
  PAW double counting   =     28024.64442093   -28073.04603229
  entropy T*S    EENTRO =        -0.00036130
  eigenvalues    EBANDS =     -3323.38979437
  atomic energy  EATOM  =     10192.31843885
  ---------------------------------------------------
  free energy    TOTEN  =      -631.19668048 eV

  energy without entropy =     -631.19631918  energy(sigma->0) =     -631.19649983
  exchange ACFDT corr.  =        -0.00102589  see jH, gK, PRB 81, 115126


--------------------------------------------------------------------------------------------------------




--------------------------------------- Iteration      1(   7)  ---------------------------------------


    POTLOK:  cpu time    0.8789: real time    0.8824
    SETDIJ:  cpu time    1.0050: real time    1.0075
    TRIAL :  cpu time  170.1634: real time  170.7066
    CORREC:  cpu time    0.0018: real time    0.0018
    CHARGE:  cpu time    0.7793: real time    0.7815
    --------------------------------------------
      LOOP:  cpu time  172.8296: real time  173.3844

 eigenvalue-minimisations  :     0
 total energy-change (2. order) :-0.5498327E-01  (-0.4371881E-01)
 number of electron     253.0000019 magnetization      -0.9992927
 augmentation part       14.4518721 magnetization      -0.5025125

 DIPCOR: dipole corrections for dipol
 direction  3 min pos     1,
 dipolmoment           0.000000      0.000000     -0.017340 electrons x Angstroem
 Tr[quadrupol]     -7003.751411

 energy correction for charged system         0.000000 eV
 dipol+quadrupol energy correction           -0.000009 eV
 added-field ion interaction          0.021681 eV  (added to PSCEN)


 Free energy of the ion-electron system (eV)
  ---------------------------------------------------
  alpha Z        PSCENC =       109.04389732
  Ewald energy   TEWEN  =     41156.50747631
  -Hartree energ DENC   =    -49939.15677317
  -exchange      EXHF   =       575.85766385
  -V(xc)+E(xc)   XCENC  =       642.78980784
  PAW double counting   =     28063.74708505   -28112.15498294
  entropy T*S    EENTRO =        -0.00021393
  eigenvalues    EBANDS =     -3320.20391556
  atomic energy  EATOM  =     10192.31843885
  ---------------------------------------------------
  free energy    TOTEN  =      -631.25166375 eV

  energy without entropy =     -631.25144982  energy(sigma->0) =     -631.25155678
  exchange ACFDT corr.  =        -0.00058229  see jH, gK, PRB 81, 115126


--------------------------------------------------------------------------------------------------------




--------------------------------------- Iteration      1(   8)  ---------------------------------------


    POTLOK:  cpu time    0.8760: real time    0.8818
    SETDIJ:  cpu time    1.0050: real time    1.0088
    TRIAL :  cpu time  169.8197: real time  170.3350
    CORREC:  cpu time    0.0020: real time    0.0020
    CHARGE:  cpu time    0.7657: real time    0.7678
    --------------------------------------------
      LOOP:  cpu time  172.4695: real time  172.9999

 eigenvalue-minimisations  :     0
 total energy-change (2. order) :-0.3830120E-01  (-0.3136817E-01)
 number of electron     253.0000019 magnetization      -0.9996076
 augmentation part       14.4571539 magnetization      -0.5077710

 DIPCOR: dipole corrections for dipol
 direction  3 min pos     1,
 dipolmoment           0.000000      0.000000     -0.018400 electrons x Angstroem
 Tr[quadrupol]     -7003.791584

 energy correction for charged system         0.000000 eV
 dipol+quadrupol energy correction           -0.000010 eV
 added-field ion interaction          0.023007 eV  (added to PSCEN)


 Free energy of the ion-electron system (eV)
  ---------------------------------------------------
  alpha Z        PSCENC =       109.04522167
  Ewald energy   TEWEN  =     41156.50747631
  -Hartree energ DENC   =    -49941.70308171
  -exchange      EXHF   =       576.03774768
  -V(xc)+E(xc)   XCENC  =       642.89582756
  PAW double counting   =     28085.39312149   -28133.83699053
  entropy T*S    EENTRO =        -0.00012676
  eigenvalues    EBANDS =     -3317.94751236
  atomic energy  EATOM  =     10192.31843885
  ---------------------------------------------------
  free energy    TOTEN  =      -631.28996495 eV

  energy without entropy =     -631.28983819  energy(sigma->0) =     -631.28990157
  exchange ACFDT corr.  =        -0.00032684  see jH, gK, PRB 81, 115126


--------------------------------------------------------------------------------------------------------




--------------------------------------- Iteration      1(   9)  ---------------------------------------


    POTLOK:  cpu time    0.8753: real time    0.8789
    SETDIJ:  cpu time    1.0099: real time    1.0128
    TRIAL :  cpu time  169.6302: real time  170.1377
    CORREC:  cpu time    0.0015: real time    0.0015
    CHARGE:  cpu time    0.7613: real time    0.7632
    --------------------------------------------
      LOOP:  cpu time  172.2790: real time  172.7992

 eigenvalue-minimisations  :     0
 total energy-change (2. order) :-0.2794206E-01  (-0.2299800E-01)
 number of electron     253.0000019 magnetization      -0.9997612
 augmentation part       14.4607412 magnetization      -0.5125796

 DIPCOR: dipole corrections for dipol
 direction  3 min pos     1,
 dipolmoment           0.000000      0.000000     -0.017339 electrons x Angstroem
 Tr[quadrupol]     -7003.809575

 energy correction for charged system         0.000000 eV
 dipol+quadrupol energy correction           -0.000009 eV
 added-field ion interaction          0.021680 eV  (added to PSCEN)


 Free energy of the ion-electron system (eV)
  ---------------------------------------------------
  alpha Z        PSCENC =       109.04389572
  Ewald energy   TEWEN  =     41156.50747631
  -Hartree energ DENC   =    -49943.18558467
  -exchange      EXHF   =       576.16098412
  -V(xc)+E(xc)   XCENC  =       642.96683127
  PAW double counting   =     28096.95884376   -28145.47823858
  entropy T*S    EENTRO =        -0.00008161
  eigenvalues    EBANDS =     -3316.61042702
  atomic energy  EATOM  =     10192.31843885
  ---------------------------------------------------
  free energy    TOTEN  =      -631.31790701 eV

  energy without entropy =     -631.31782540  energy(sigma->0) =     -631.31786620
  exchange ACFDT corr.  =        -0.00018460  see jH, gK, PRB 81, 115126


--------------------------------------------------------------------------------------------------------




--------------------------------------- Iteration      1(  10)  ---------------------------------------


    POTLOK:  cpu time    0.8714: real time    0.8762
    SETDIJ:  cpu time    1.0039: real time    1.0065
    TRIAL :  cpu time  170.1465: real time  170.7090
    CORREC:  cpu time    0.0012: real time    0.0012
    CHARGE:  cpu time    0.7588: real time    0.7610
    --------------------------------------------
      LOOP:  cpu time  172.7824: real time  173.3585

 eigenvalue-minimisations  :     0
 total energy-change (2. order) :-0.2078543E-01  (-0.1738124E-01)
 number of electron     253.0000019 magnetization      -0.9998365
 augmentation part       14.4622115 magnetization      -0.5168047

 DIPCOR: dipole corrections for dipol
 direction  3 min pos     1,
 dipolmoment           0.000000      0.000000     -0.018448 electrons x Angstroem
 Tr[quadrupol]     -7003.816445

 energy correction for charged system         0.000000 eV
 dipol+quadrupol energy correction           -0.000010 eV
 added-field ion interaction          0.023067 eV  (added to PSCEN)


 Free energy of the ion-electron system (eV)
  ---------------------------------------------------
  alpha Z        PSCENC =       109.04528152
  Ewald energy   TEWEN  =     41156.50747631
  -Hartree energ DENC   =    -49943.74923081
  -exchange      EXHF   =       576.24305387
  -V(xc)+E(xc)   XCENC  =       643.01144114
  PAW double counting   =     28102.61764956   -28151.19722575
  entropy T*S    EENTRO =        -0.00005843
  eigenvalues    EBANDS =     -3316.13549552
  atomic energy  EATOM  =     10192.31843885
  ---------------------------------------------------
  free energy    TOTEN  =      -631.33869244 eV

  energy without entropy =     -631.33863401  energy(sigma->0) =     -631.33866322
  exchange ACFDT corr.  =        -0.00011431  see jH, gK, PRB 81, 115126


--------------------------------------------------------------------------------------------------------




--------------------------------------- Iteration      1(  11)  ---------------------------------------


    POTLOK:  cpu time    0.8827: real time    0.8877
    SETDIJ:  cpu time    1.0073: real time    1.0101
    TRIAL :  cpu time  169.7477: real time  170.9603
    CORREC:  cpu time    0.0019: real time    0.0019
    CHARGE:  cpu time    0.7648: real time    0.7669
    --------------------------------------------
      LOOP:  cpu time  172.4056: real time  173.6317

 eigenvalue-minimisations  :     0
 total energy-change (2. order) :-0.1587249E-01  (-0.1334029E-01)
 number of electron     253.0000019 magnetization      -0.9998790
 augmentation part       14.4635669 magnetization      -0.5203784

 DIPCOR: dipole corrections for dipol
 direction  3 min pos     1,
 dipolmoment           0.000000      0.000000     -0.021571 electrons x Angstroem
 Tr[quadrupol]     -7003.819918

 energy correction for charged system         0.000000 eV
 dipol+quadrupol energy correction           -0.000013 eV
 added-field ion interaction          0.026971 eV  (added to PSCEN)


 Free energy of the ion-electron system (eV)
  ---------------------------------------------------
  alpha Z        PSCENC =       109.04918252
  Ewald energy   TEWEN  =     41156.50747631
  -Hartree energ DENC   =    -49943.81011697
  -exchange      EXHF   =       576.30078301
  -V(xc)+E(xc)   XCENC  =       643.04139045
  PAW double counting   =     28105.08398271   -28153.69523974
  entropy T*S    EENTRO =        -0.00004491
  eigenvalues    EBANDS =     -3316.15040365
  atomic energy  EATOM  =     10192.31843885
  ---------------------------------------------------
  free energy    TOTEN  =      -631.35456493 eV

  energy without entropy =     -631.35452002  energy(sigma->0) =     -631.35454247
  exchange ACFDT corr.  =        -0.00007942  see jH, gK, PRB 81, 115126


--------------------------------------------------------------------------------------------------------




--------------------------------------- Iteration      1(  12)  ---------------------------------------


    POTLOK:  cpu time    0.8864: real time    0.8911
    SETDIJ:  cpu time    1.0094: real time    1.0120
    TRIAL :  cpu time  169.7021: real time  170.2135
    CORREC:  cpu time    0.0019: real time    0.0019
    CHARGE:  cpu time    0.7610: real time    0.7630
    --------------------------------------------
      LOOP:  cpu time  172.3613: real time  172.8861

 eigenvalue-minimisations  :     0
 total energy-change (2. order) :-0.1229186E-01  (-0.1043835E-01)
 number of electron     253.0000019 magnetization      -0.9999059
 augmentation part       14.4656285 magnetization      -0.5233839

 DIPCOR: dipole corrections for dipol
 direction  3 min pos     1,
 dipolmoment           0.000000      0.000000     -0.024352 electrons x Angstroem
 Tr[quadrupol]     -7003.823825

 energy correction for charged system         0.000000 eV
 dipol+quadrupol energy correction           -0.000017 eV
 added-field ion interaction          0.030449 eV  (added to PSCEN)


 Free energy of the ion-electron system (eV)
  ---------------------------------------------------
  alpha Z        PSCENC =       109.05265630
  Ewald energy   TEWEN  =     41156.50747631
  -Hartree energ DENC   =    -49943.83425326
  -exchange      EXHF   =       576.34775392
  -V(xc)+E(xc)   XCENC  =       643.06684469
  PAW double counting   =     28106.33705398   -28154.97926403
  entropy T*S    EENTRO =        -0.00003610
  eigenvalues    EBANDS =     -3316.18351865
  atomic energy  EATOM  =     10192.31843885
  ---------------------------------------------------
  free energy    TOTEN  =      -631.36685679 eV

  energy without entropy =     -631.36682069  energy(sigma->0) =     -631.36683874
  exchange ACFDT corr.  =        -0.00005963  see jH, gK, PRB 81, 115126


--------------------------------------------------------------------------------------------------------




--------------------------------------- Iteration      1(  13)  ---------------------------------------


    POTLOK:  cpu time    0.8672: real time    0.8709
    SETDIJ:  cpu time    1.0045: real time    1.0085
    TRIAL :  cpu time  169.7769: real time  170.2846
    CORREC:  cpu time    0.0020: real time    0.0020
    CHARGE:  cpu time    0.7626: real time    0.7646
    --------------------------------------------
      LOOP:  cpu time  172.4142: real time  172.9353

 eigenvalue-minimisations  :     0
 total energy-change (2. order) :-0.9702828E-02  (-0.8319198E-02)
 number of electron     253.0000019 magnetization      -0.9999231
 augmentation part       14.4674873 magnetization      -0.5260516

 DIPCOR: dipole corrections for dipol
 direction  3 min pos     1,
 dipolmoment           0.000000      0.000000     -0.025798 electrons x Angstroem
 Tr[quadrupol]     -7003.828961

 energy correction for charged system         0.000000 eV
 dipol+quadrupol energy correction           -0.000019 eV
 added-field ion interaction          0.032257 eV  (added to PSCEN)


 Free energy of the ion-electron system (eV)
  ---------------------------------------------------
  alpha Z        PSCENC =       109.05446254
  Ewald energy   TEWEN  =     41156.50747631
  -Hartree energ DENC   =    -49943.99697628
  -exchange      EXHF   =       576.38988612
  -V(xc)+E(xc)   XCENC  =       643.09157106
  PAW double counting   =     28107.48543460   -28156.16857147
  entropy T*S    EENTRO =        -0.00003038
  eigenvalues    EBANDS =     -3316.05824525
  atomic energy  EATOM  =     10192.31843885
  ---------------------------------------------------
  free energy    TOTEN  =      -631.37655962 eV

  energy without entropy =     -631.37652924  energy(sigma->0) =     -631.37654443
  exchange ACFDT corr.  =        -0.00004703  see jH, gK, PRB 81, 115126


--------------------------------------------------------------------------------------------------------




--------------------------------------- Iteration      1(  14)  ---------------------------------------


    POTLOK:  cpu time    0.8695: real time    0.8731
    SETDIJ:  cpu time    1.0059: real time    1.0085
    TRIAL :  cpu time  169.5398: real time  170.0630
    CORREC:  cpu time    0.0018: real time    0.0018
    CHARGE:  cpu time    0.7628: real time    0.7648
    --------------------------------------------
      LOOP:  cpu time  172.1813: real time  172.7161

 eigenvalue-minimisations  :     0
 total energy-change (2. order) :-0.7783404E-02  (-0.6737061E-02)
 number of electron     253.0000019 magnetization      -0.9999339
 augmentation part       14.4685052 magnetization      -0.5285826

 DIPCOR: dipole corrections for dipol
 direction  3 min pos     1,
 dipolmoment           0.000000      0.000000     -0.026603 electrons x Angstroem
 Tr[quadrupol]     -7003.834357

 energy correction for charged system         0.000000 eV
 dipol+quadrupol energy correction           -0.000020 eV
 added-field ion interaction          0.033264 eV  (added to PSCEN)


 Free energy of the ion-electron system (eV)
  ---------------------------------------------------
  alpha Z        PSCENC =       109.05546836
  Ewald energy   TEWEN  =     41156.50747631
  -Hartree energ DENC   =    -49944.20022059
  -exchange      EXHF   =       576.42723111
  -V(xc)+E(xc)   XCENC  =       643.11422273
  PAW double counting   =     28108.91611346   -28157.63463696
  entropy T*S    EENTRO =        -0.00002678
  eigenvalues    EBANDS =     -3315.88840591
  atomic energy  EATOM  =     10192.31843885
  ---------------------------------------------------
  free energy    TOTEN  =      -631.38434302 eV

  energy without entropy =     -631.38431624  energy(sigma->0) =     -631.38432963
  exchange ACFDT corr.  =        -0.00003898  see jH, gK, PRB 81, 115126


--------------------------------------------------------------------------------------------------------




--------------------------------------- Iteration      1(  15)  ---------------------------------------


    POTLOK:  cpu time    0.8672: real time    0.8696
    SETDIJ:  cpu time    1.0055: real time    1.0084
    TRIAL :  cpu time  169.8433: real time  170.3629
    CORREC:  cpu time    0.0014: real time    0.0014
    CHARGE:  cpu time    0.7600: real time    0.7619
    --------------------------------------------
      LOOP:  cpu time  172.4786: real time  173.0089

 eigenvalue-minimisations  :     0
 total energy-change (2. order) :-0.6340446E-02  (-0.5528208E-02)
 number of electron     253.0000019 magnetization      -0.9999409
 augmentation part       14.4691684 magnetization      -0.5309458

 DIPCOR: dipole corrections for dipol
 direction  3 min pos     1,
 dipolmoment           0.000000      0.000000     -0.027502 electrons x Angstroem
 Tr[quadrupol]     -7003.839116

 energy correction for charged system         0.000000 eV
 dipol+quadrupol energy correction           -0.000022 eV
 added-field ion interaction          0.034388 eV  (added to PSCEN)


 Free energy of the ion-electron system (eV)
  ---------------------------------------------------
  alpha Z        PSCENC =       109.05659104
  Ewald energy   TEWEN  =     41156.50747631
  -Hartree energ DENC   =    -49944.35079315
  -exchange      EXHF   =       576.45935144
  -V(xc)+E(xc)   XCENC  =       643.13349489
  PAW double counting   =     28110.66303706   -28159.40169512
  entropy T*S    EENTRO =        -0.00002442
  eigenvalues    EBANDS =     -3315.77655801
  atomic energy  EATOM  =     10192.31843885
  ---------------------------------------------------
  free energy    TOTEN  =      -631.39068347 eV

  energy without entropy =     -631.39065904  energy(sigma->0) =     -631.39067126
  exchange ACFDT corr.  =        -0.00003395  see jH, gK, PRB 81, 115126


--------------------------------------------------------------------------------------------------------




--------------------------------------- Iteration      1(  16)  ---------------------------------------


    POTLOK:  cpu time    0.8648: real time    0.8676
    SETDIJ:  cpu time    0.9932: real time    0.9957
    TRIAL :  cpu time  169.2550: real time  169.7546
    CORREC:  cpu time    0.0017: real time    0.0017
    CHARGE:  cpu time    0.7643: real time    0.7677
    --------------------------------------------
      LOOP:  cpu time  171.8798: real time  172.3920

 eigenvalue-minimisations  :     0
 total energy-change (2. order) :-0.5226259E-02  (-0.4584215E-02)
 number of electron     253.0000019 magnetization      -0.9999458
 augmentation part       14.4699954 magnetization      -0.5330135

 DIPCOR: dipole corrections for dipol
 direction  3 min pos     1,
 dipolmoment           0.000000      0.000000     -0.028469 electrons x Angstroem
 Tr[quadrupol]     -7003.843072

 energy correction for charged system         0.000000 eV
 dipol+quadrupol energy correction           -0.000023 eV
 added-field ion interaction          0.035597 eV  (added to PSCEN)


 Free energy of the ion-electron system (eV)
  ---------------------------------------------------
  alpha Z        PSCENC =       109.05779859
  Ewald energy   TEWEN  =     41156.50747631
  -Hartree energ DENC   =    -49944.47227998
  -exchange      EXHF   =       576.48752589
  -V(xc)+E(xc)   XCENC  =       643.15025622
  PAW double counting   =     28112.66889497   -28161.42189895
  entropy T*S    EENTRO =        -0.00002281
  eigenvalues    EBANDS =     -3315.69209720
  atomic energy  EATOM  =     10192.31843885
  ---------------------------------------------------
  free energy    TOTEN  =      -631.39590973 eV

  energy without entropy =     -631.39588691  energy(sigma->0) =     -631.39589832
  exchange ACFDT corr.  =        -0.00003068  see jH, gK, PRB 81, 115126


--------------------------------------------------------------------------------------------------------




--------------------------------------- Iteration      1(  17)  ---------------------------------------


    POTLOK:  cpu time    0.8657: real time    0.8685
    SETDIJ:  cpu time    1.0030: real time    1.0067
    TRIAL :  cpu time  169.4718: real time  170.0069
    CORREC:  cpu time    0.0019: real time    0.0019
    CHARGE:  cpu time    0.7605: real time    0.7624
    --------------------------------------------
      LOOP:  cpu time  172.1040: real time  172.6511

 eigenvalue-minimisations  :     0
 total energy-change (2. order) :-0.4352838E-02  (-0.3843212E-02)
 number of electron     253.0000019 magnetization      -0.9999490
 augmentation part       14.4707536 magnetization      -0.5348031

 DIPCOR: dipole corrections for dipol
 direction  3 min pos     1,
 dipolmoment           0.000000      0.000000     -0.029229 electrons x Angstroem
 Tr[quadrupol]     -7003.846366

 energy correction for charged system         0.000000 eV
 dipol+quadrupol energy correction           -0.000024 eV
 added-field ion interaction          0.036547 eV  (added to PSCEN)


 Free energy of the ion-electron system (eV)
  ---------------------------------------------------
  alpha Z        PSCENC =       109.05874702
  Ewald energy   TEWEN  =     41156.50747631
  -Hartree energ DENC   =    -49944.60282503
  -exchange      EXHF   =       576.51310207
  -V(xc)+E(xc)   XCENC  =       643.16573384
  PAW double counting   =     28114.78190255   -28163.55274613
  entropy T*S    EENTRO =        -0.00002179
  eigenvalues    EBANDS =     -3315.59006922
  atomic energy  EATOM  =     10192.31843885
  ---------------------------------------------------
  free energy    TOTEN  =      -631.40026256 eV

  energy without entropy =     -631.40024077  energy(sigma->0) =     -631.40025167
  exchange ACFDT corr.  =        -0.00002845  see jH, gK, PRB 81, 115126


--------------------------------------------------------------------------------------------------------




--------------------------------------- Iteration      1(  18)  ---------------------------------------


    POTLOK:  cpu time    0.8646: real time    0.8670
    SETDIJ:  cpu time    1.0010: real time    1.0046
    TRIAL :  cpu time  169.4280: real time  169.9505
    CORREC:  cpu time    0.0019: real time    0.0019
    CHARGE:  cpu time    0.7604: real time    0.7623
    --------------------------------------------
      LOOP:  cpu time  172.0569: real time  172.5909

 eigenvalue-minimisations  :     0
 total energy-change (2. order) :-0.3662472E-02  (-0.3256976E-02)
 number of electron     253.0000019 magnetization      -0.9999509
 augmentation part       14.4712140 magnetization      -0.5363785

 DIPCOR: dipole corrections for dipol
 direction  3 min pos     1,
 dipolmoment           0.000000      0.000000     -0.029783 electrons x Angstroem
 Tr[quadrupol]     -7003.848997

 energy correction for charged system         0.000000 eV
 dipol+quadrupol energy correction           -0.000025 eV
 added-field ion interaction          0.037240 eV  (added to PSCEN)


 Free energy of the ion-electron system (eV)
  ---------------------------------------------------
  alpha Z        PSCENC =       109.05943877
  Ewald energy   TEWEN  =     41156.50747631
  -Hartree energ DENC   =    -49944.71790408
  -exchange      EXHF   =       576.53610546
  -V(xc)+E(xc)   XCENC  =       643.17987413
  PAW double counting   =     28116.77059825   -28165.55847285
  entropy T*S    EENTRO =        -0.00002127
  eigenvalues    EBANDS =     -3315.49945806
  atomic energy  EATOM  =     10192.31843885
  ---------------------------------------------------
  free energy    TOTEN  =      -631.40392504 eV

  energy without entropy =     -631.40390376  energy(sigma->0) =     -631.40391440
  exchange ACFDT corr.  =        -0.00002703  see jH, gK, PRB 81, 115126


--------------------------------------------------------------------------------------------------------




--------------------------------------- Iteration      1(  19)  ---------------------------------------


    POTLOK:  cpu time    0.8657: real time    0.8684
    SETDIJ:  cpu time    1.0089: real time    1.0116
    TRIAL :  cpu time  169.3437: real time  169.8429
    CORREC:  cpu time    0.0017: real time    0.0017
    CHARGE:  cpu time    0.7619: real time    0.7638
    --------------------------------------------
      LOOP:  cpu time  171.9830: real time  172.4931

 eigenvalue-minimisations  :     0
 total energy-change (2. order) :-0.3113978E-02  (-0.2787342E-02)
 number of electron     253.0000019 magnetization      -0.9999519
 augmentation part       14.4716236 magnetization      -0.5377224

 DIPCOR: dipole corrections for dipol
 direction  3 min pos     1,
 dipolmoment           0.000000      0.000000     -0.030253 electrons x Angstroem
 Tr[quadrupol]     -7003.851052

 energy correction for charged system         0.000000 eV
 dipol+quadrupol energy correction           -0.000026 eV
 added-field ion interaction          0.037827 eV  (added to PSCEN)


 Free energy of the ion-electron system (eV)
  ---------------------------------------------------
  alpha Z        PSCENC =       109.06002561
  Ewald energy   TEWEN  =     41156.50747631
  -Hartree energ DENC   =    -49944.79761081
  -exchange      EXHF   =       576.55639400
  -V(xc)+E(xc)   XCENC  =       643.19247114
  PAW double counting   =     28118.48809712   -28167.28796016
  entropy T*S    EENTRO =        -0.00002109
  eigenvalues    EBANDS =     -3315.44434980
  atomic energy  EATOM  =     10192.31843885
  ---------------------------------------------------
  free energy    TOTEN  =      -631.40703901 eV

  energy without entropy =     -631.40701793  energy(sigma->0) =     -631.40702847
  exchange ACFDT corr.  =        -0.00002627  see jH, gK, PRB 81, 115126


--------------------------------------------------------------------------------------------------------




--------------------------------------- Iteration      1(  20)  ---------------------------------------


    POTLOK:  cpu time    0.8769: real time    0.8801
    SETDIJ:  cpu time    1.0043: real time    1.0069
    TRIAL :  cpu time  169.1911: real time  169.7233
    CORREC:  cpu time    0.0019: real time    0.0020
    CHARGE:  cpu time    0.7638: real time    0.7671
    --------------------------------------------
      LOOP:  cpu time  171.8393: real time  172.3843

 eigenvalue-minimisations  :     0
 total energy-change (2. order) :-0.2672633E-02  (-0.2407780E-02)
[...]
  energy-cutoff  :      500.00
  volume of cell :     3176.88
      direct lattice vectors                 reciprocal lattice vectors
    12.810000000  0.000000000  0.000000000     0.078064012  0.000000000  0.000000000
     0.000000000 12.400000000  0.000000000     0.000000000  0.080645161  0.000000000
     0.000000000  0.000000000 20.000000000     0.000000000  0.000000000  0.050000000

  length of vectors
    12.810000000 12.400000000 20.000000000     0.078064012  0.080645161  0.050000000


 FORCES acting on ions:
    Electron-Ion                     Ewald-Force                    Non-Local-Force
 -----------------------------------------------------------------------------------------------
   0.463E+01 -.486E+01 0.305E+02   -.457E+01 0.450E+01 -.306E+02   -.859E-02 0.229E+00 0.103E+00
   -.116E+01 -.192E+01 0.418E+02   0.138E+01 0.178E+01 -.418E+02   -.222E+00 0.104E+00 0.636E-01
   0.439E+01 -.476E+00 0.382E+02   -.435E+01 0.408E+00 -.381E+02   -.760E-01 0.606E-01 -.885E-01
   0.136E+02 0.226E+01 0.245E+02   -.138E+02 -.240E+01 -.243E+02   0.273E+00 0.167E+00 -.217E+00
   0.649E+01 0.383E+01 0.178E+02   -.652E+01 -.393E+01 -.179E+02   0.591E-01 0.813E-01 0.993E-01
   0.252E+01 0.639E+01 0.394E+02   -.246E+01 -.679E+01 -.394E+02   -.468E-01 0.358E+00 0.785E-01
   0.337E+01 0.720E+01 0.305E+02   -.337E+01 -.736E+01 -.304E+02   -.338E-01 0.175E+00 -.694E-01
   0.172E+02 0.170E+02 0.140E+01   -.175E+02 -.171E+02 -.154E+01   0.307E+00 0.193E-01 0.118E+00
   0.235E+02 0.498E+02 0.168E+02   -.252E+02 -.524E+02 -.177E+02   0.165E+01 0.291E+01 0.875E+00
   0.128E+02 0.340E+01 0.340E+02   -.130E+02 -.323E+01 -.339E+02   0.203E+00 -.123E+00 -.673E-01
   0.155E+02 0.126E+02 0.349E+02   -.158E+02 -.129E+02 -.350E+02   0.304E+00 0.238E+00 0.965E-01
   0.271E+02 -.371E+02 0.128E+02   -.285E+02 0.406E+02 -.134E+02   0.138E+01 -.351E+01 0.544E+00
   0.738E+01 -.735E+01 0.410E+02   -.745E+01 0.769E+01 -.410E+02   0.500E-01 -.292E+00 -.429E-01
   0.174E+02 -.761E+01 0.359E+02   -.175E+02 0.800E+01 -.360E+02   0.672E-01 -.394E+00 0.140E+00
   0.166E+02 -.131E+02 0.514E+01   -.159E+02 0.130E+02 -.519E+01   -.940E+00 0.392E-01 -.469E-01
   0.102E+02 -.136E+02 0.336E+02   -.100E+02 0.134E+02 -.337E+02   -.224E+00 0.117E+00 0.185E+00
   0.305E+00 -.509E+01 0.475E+02   -.113E+00 0.516E+01 -.476E+02   -.191E+00 -.191E-01 0.816E-01
   0.558E+01 -.564E+01 0.456E+02   -.546E+01 0.569E+01 -.456E+02   -.136E+00 -.709E-01 0.517E-01
   0.104E+02 -.692E+01 0.231E+02   -.106E+02 0.701E+01 -.227E+02   0.664E-01 0.395E-01 -.379E+00
   0.309E-01 -.369E+01 0.496E+02   -.361E+00 0.365E+01 -.494E+02   0.304E+00 0.170E-01 -.199E+00
   0.606E+01 0.494E+01 0.434E+02   -.657E+01 -.538E+01 -.434E+02   0.456E+00 0.431E+00 0.117E+00
   0.597E+01 -.209E+01 0.460E+02   -.615E+01 0.182E+01 -.461E+02   0.200E+00 0.253E+00 0.117E+00
   -.556E+01 0.673E+01 0.670E+02   0.568E+01 -.709E+01 -.671E+02   -.108E+00 0.382E+00 0.202E+00
   -.843E+00 0.158E+02 0.619E+02   0.790E+00 -.163E+02 -.616E+02   0.928E-01 0.528E+00 -.163E+00
   0.376E+02 0.386E+02 0.116E+02   -.397E+02 -.416E+02 -.127E+02   0.223E+01 0.295E+01 0.109E+01
   0.946E+01 0.180E+02 0.463E+02   -.979E+01 -.186E+02 -.465E+02   0.275E+00 0.532E+00 0.146E+00
   -.147E+02 0.216E+02 0.739E+02   0.153E+02 -.224E+02 -.745E+02   -.517E+00 0.718E+00 0.676E+00
   -.217E+02 0.344E+02 0.217E+02   0.235E+02 -.375E+02 -.234E+02   -.183E+01 0.309E+01 0.179E+01
   0.393E+02 -.648E+02 -.667E+02   -.399E+02 0.655E+02 0.661E+02   0.920E+00 -.127E+01 0.137E+01
   0.147E+02 -.446E+02 -.248E+01   -.170E+02 0.472E+02 0.166E+01   0.246E+01 -.271E+01 0.828E+00
   0.786E+01 -.118E+02 0.265E+02   -.791E+01 0.113E+02 -.266E+02   0.160E+00 0.387E+00 0.137E+00
   0.620E+01 -.215E+02 -.105E+02   -.651E+01 0.208E+02 0.107E+02   0.357E+00 0.890E+00 -.291E+00
   -.544E+01 -.149E+02 0.369E+02   0.525E+01 0.150E+02 -.371E+02   0.175E+00 -.857E-01 0.224E+00
   -.551E+01 -.300E+01 0.538E+02   0.566E+01 0.296E+01 -.538E+02   -.180E+00 0.279E-01 -.172E-02
   -.692E+01 0.189E+01 0.642E+02   0.698E+01 -.198E+01 -.640E+02   -.838E-01 0.889E-01 -.106E+00
   -.757E+01 -.568E-01 0.570E+02   0.782E+01 0.103E+00 -.572E+02   -.208E+00 -.878E-02 0.121E+00
   -.300E+01 0.305E+01 0.532E+02   0.323E+01 -.314E+01 -.532E+02   -.198E+00 0.769E-01 0.604E-01
   -.731E+01 0.234E+01 0.573E+02   0.751E+01 -.243E+01 -.572E+02   -.219E+00 0.109E+00 -.272E-01
   -.172E+02 0.854E+01 0.650E+02   0.178E+02 -.867E+01 -.649E+02   -.588E+00 0.159E+00 -.548E-01
   -.915E+01 0.765E+01 0.680E+02   0.943E+01 -.787E+01 -.681E+02   -.252E+00 0.201E+00 0.148E+00
   -.259E+01 0.348E+01 0.516E+02   0.268E+01 -.359E+01 -.517E+02   -.742E-01 0.799E-01 0.970E-01
   -.903E+01 0.306E+01 0.474E+02   0.941E+01 -.293E+01 -.474E+02   -.361E+00 -.951E-01 0.665E-01
   -.535E+02 -.126E+02 0.175E+02   0.572E+02 0.130E+02 -.182E+02   -.379E+01 -.459E+00 0.713E+00
   -.201E+02 0.299E+01 0.503E+02   0.205E+02 -.300E+01 -.505E+02   -.370E+00 -.314E-01 0.141E+00
   0.293E+00 -.206E+01 0.347E+02   -.378E+00 0.223E+01 -.346E+02   0.907E-01 -.194E+00 -.617E-01
   -.367E+01 -.209E+01 0.261E+02   0.355E+01 0.223E+01 -.261E+02   0.821E-01 -.112E+00 0.188E-01
   -.535E+02 0.491E+01 0.168E+02   0.566E+02 -.497E+01 -.174E+02   -.351E+01 0.239E+00 0.689E+00
   -.182E+02 -.103E+01 0.616E+01   0.183E+02 0.116E+01 -.599E+01   0.490E-01 -.189E+00 -.183E+00
   -.977E+00 0.926E+00 0.374E+02   0.109E+01 -.928E+00 -.373E+02   -.830E-01 0.432E-02 -.400E-01
   -.767E+01 -.544E+01 0.462E+02   0.794E+01 0.536E+01 -.462E+02   -.322E+00 0.773E-01 0.105E+00
   -.116E+02 -.104E+02 0.421E+02   0.117E+02 0.105E+02 -.419E+02   -.133E+00 -.147E+00 -.186E+00
   -.172E+02 -.571E+01 0.415E+02   0.176E+02 0.578E+01 -.417E+02   -.347E+00 -.882E-02 0.189E+00
   -.189E+01 -.588E+00 0.500E+02   0.209E+01 0.571E+00 -.500E+02   -.163E+00 0.164E-01 0.120E-01
   -.170E+01 0.557E+01 -.760E+01   0.229E+02 -.485E+01 0.109E+02   -.203E+02 -.855E+00 -.339E+01
   0.257E+02 0.146E+02 -.586E+02   -.347E+02 0.192E+01 0.647E+02   0.869E+01 -.159E+02 -.609E+01
   -.338E+02 -.119E+02 -.398E+02   0.245E+02 0.281E+02 0.460E+02   0.904E+01 -.155E+02 -.613E+01
   0.577E+02 -.928E+02 -.537E+03   -.548E+02 0.896E+02 0.560E+03   -.299E+01 0.381E+01 -.213E+02
   -.232E+02 -.662E+01 -.417E+02   0.140E+02 -.939E+01 0.473E+02   0.917E+01 0.154E+02 -.573E+01
   0.906E+02 0.136E+03 -.671E+03   -.897E+02 -.132E+03 0.666E+03   -.154E+01 -.454E+01 0.564E+01
   -.134E+03 -.345E+01 -.460E+03   0.135E+03 0.483E+01 0.459E+03   -.371E+00 -.134E+01 0.198E+01
 -----------------------------------------------------------------------------------------------
   0.155E+01 0.137E+02 0.288E+02   0.142E-12 0.213E-12 0.000E+00   -.135E+01 -.129E+02 -.257E+02
 
 
 POSITION                                       TOTAL-FORCE (eV/Angst)
 -----------------------------------------------------------------------------------
      2.85140      0.00361      9.86421         0.044648     -0.125477      0.031563
      0.73526      1.24718      9.73602        -0.008161     -0.036619      0.030887
      1.42830      0.00108      9.77598        -0.044064     -0.000268      0.019997
      3.56031      1.25710      9.89076         0.055338      0.027234     -0.005360
      2.87487      2.52001      9.93368         0.026228     -0.012963      0.016398
      0.72010      3.72699      9.80812         0.009020     -0.025600      0.018847
      1.44555      2.49716      9.82152        -0.038689      0.028210      0.000264
      3.59682      3.76997     10.10968         0.004408     -0.130843     -0.016050
      2.82234      5.01524     10.14080        -0.017281      0.464246      0.055872
      0.68088      6.21161      9.90746         0.032437      0.044478      0.030534
      1.40884      4.97440      9.92878         0.029766     -0.035878      0.010953
      2.79160      7.44245     10.22189         0.039302     -0.150943      0.022246
      0.67891      8.68196      9.86693        -0.020004      0.028946      0.031685
      1.38695      7.45077      9.97115        -0.003855     -0.017253      0.043451
      3.51292      8.69413     10.30265        -0.286441      0.038364     -0.099513
      2.83024      9.91296     10.01072        -0.004593     -0.137222      0.105306
      0.71162     11.15862      9.75607        -0.012769      0.041920      0.042556
      1.40716      9.91574      9.85016        -0.022750     -0.022058      0.039094
      3.55102     11.16372      9.97528        -0.074440      0.137521     -0.012143
      7.11057     12.39385      9.82338        -0.007522     -0.022898      0.038983
      4.97820      1.23486      9.86538        -0.037314      0.018696      0.040526
      5.68870     12.39666      9.87723         0.034776     -0.004620      0.037149
      7.83500      1.21487      9.71872         0.000083      0.043080      0.048839
      7.12749      2.43791      9.80163         0.048826      0.013280      0.061096
      5.04883      3.70239     10.16222         0.248028      0.130913      0.037804
      5.70680      2.46094      9.90971        -0.034613     -0.010232      0.050059
      7.86193      3.64772      9.85252         0.059988     -0.052220      0.062223
      7.18321      4.82138     10.21586        -0.057819      0.209639      0.198619
      4.88933      8.81379     10.79150         0.368915     -0.585046      0.841074
      7.13366      9.96739     10.23612         0.220355     -0.251603      0.047896
      4.98251     11.16214     10.03787         0.121221     -0.085951      0.084612
      5.69518      9.96177     10.33502         0.055431      0.240650     -0.082826
      7.82672     11.17485      9.93052        -0.006466      0.084086      0.039417
     11.39809     12.39500      9.66817        -0.040159     -0.012851      0.030299
      9.26022      1.22347      9.66159        -0.020765      0.003055      0.053433
      9.96986     12.38993      9.68687         0.031495      0.040540      0.022544
     12.11863      1.23638      9.66425         0.019599      0.000268      0.028709
     11.40648      2.47152      9.65949        -0.030236      0.015435      0.039066
      9.27566      3.68306      9.75502        -0.072015      0.027447      0.066383
      9.98234      2.45752      9.65334         0.018135     -0.001426      0.041613
     12.10461      3.71927      9.72496         0.013149     -0.026808      0.027917
     11.38119      4.95400      9.78680        -0.011612      0.033053      0.042360
      9.21431      6.12679     10.09964        -0.354233     -0.125992      0.060768
      9.95979      4.93253      9.84634         0.058966     -0.037475     -0.000052
     12.06426      6.20464      9.85591         0.011431     -0.035750      0.010422
     11.32164      7.43465      9.90843        -0.027369      0.021545      0.029056
      9.21305      8.71576     10.10641        -0.632831      0.212013      0.121175
      9.88328      7.42372     10.06227         0.139751     -0.071979     -0.026846
     12.05789      8.66975      9.83985         0.029365      0.008889      0.015949
     11.37021      9.91542      9.78588        -0.065438     -0.006642      0.046307
      9.24863     11.16451      9.82100        -0.053131     -0.066003      0.027269
      9.94892      9.92177      9.87453         0.113649      0.066996      0.011349
     12.09524     11.15237      9.71576         0.031152      0.005795      0.017428
      3.42709      6.22688     10.38708        -0.888862     -0.215079     -0.408796
      5.83698      4.80373     10.47734         0.470852     -0.763588     -0.476452
      7.86866      5.99881     10.40219         0.578407     -0.657229     -0.405109
      5.33404      8.01105     11.78577        -0.436691      0.939843     -0.926418
      7.87406      8.81060     10.40337         0.758554      0.721240     -0.583773
      4.98652      6.17384     11.55519        -0.232075      0.041151      0.152910
      6.93005      7.41131     11.21543        -0.131078      0.039981      0.110431
 -----------------------------------------------------------------------------------
    total drift:                                0.002143     -0.000200      0.004265


--------------------------------------------------------------------------------------------------------



  FREE ENERGIE OF THE ION-ELECTRON SYSTEM (eV)
  ---------------------------------------------------
  free  energy   TOTEN  =      -631.43248403 eV

  energy  without entropy=     -631.43241394  energy(sigma->0) =     -631.43244898
 


--------------------------------------------------------------------------------------------------------


    POTLOK:  cpu time    1.8123: real time    1.8192


--------------------------------------------------------------------------------------------------------


 stress matrix after NEB project (eV)
    -34.89705     -8.13575     -0.64550
     -8.13518    -39.08047      0.98400
     -0.64359      0.98767     -1.98837
  FORCES: max atom, RMS     1.390055    0.391812
  FORCE total and by dimension    3.034964    0.939843
  Stress total and by dimension   53.704628   39.080470
 writing wavefunctions
     LOOP+:  cpu time10744.0043: real time10785.2811
 vacuum level on the upper side and lower side of the slab         1.518         1.559
    4ORBIT:  cpu time    0.0000: real time    0.0000
 


 total charge     
 
# of ion       s       p       d       tot
------------------------------------------
    1        0.865   1.756   0.000   2.621
    2        0.865   1.757   0.000   2.622
    3        0.864   1.775   0.000   2.639
    4        0.862   1.770   0.000   2.632
    5        0.860   1.733   0.000   2.593
    6        0.867   1.762   0.000   2.629
    7        0.860   1.766   0.000   2.626
    8        0.846   1.736   0.000   2.582
    9        0.856   1.703   0.000   2.559
   10        0.867   1.755   0.000   2.622
   11        0.864   1.774   0.000   2.637
   12        0.857   1.715   0.000   2.573
   13        0.866   1.763   0.000   2.629
   14        0.867   1.783   0.000   2.650
   15        0.856   1.757   0.000   2.613
   16        0.865   1.746   0.000   2.611
   17        0.866   1.762   0.000   2.628
   18        0.864   1.768   0.000   2.632
   19        0.859   1.768   0.000   2.627
   20        0.870   1.780   0.000   2.650
   21        0.869   1.771   0.000   2.640
   22        0.866   1.776   0.000   2.641
   23        0.868   1.788   0.000   2.656
   24        0.873   1.780   0.000   2.653
   25        0.856   1.703   0.000   2.559
   26        0.867   1.783   0.000   2.650
   27        0.874   1.818   0.000   2.691
   28        0.862   1.726   0.000   2.587
   29        0.858   1.687   0.000   2.545
   30        0.860   1.720   0.000   2.579
   31        0.867   1.754   0.000   2.621
   32        0.857   1.751   0.000   2.608
   33        0.869   1.788   0.000   2.657
   34        0.866   1.763   0.000   2.629
   35        0.868   1.768   0.000   2.636
   36        0.866   1.778   0.000   2.643
   37        0.864   1.770   0.000   2.634
   38        0.868   1.767   0.000   2.635
   39        0.870   1.779   0.000   2.649
   40        0.867   1.782   0.000   2.649
   41        0.864   1.769   0.000   2.633
   42        0.868   1.763   0.000   2.631
   43        0.853   1.705   0.000   2.559
   44        0.866   1.783   0.000   2.648
   45        0.862   1.773   0.000   2.636
   46        0.860   1.734   0.000   2.594
   47        0.857   1.712   0.000   2.569
   48        0.847   1.742   0.000   2.589
   49        0.862   1.770   0.000   2.632
   50        0.867   1.765   0.000   2.632
   51        0.868   1.763   0.000   2.631
   52        0.866   1.781   0.000   2.647
   53        0.865   1.770   0.000   2.635
   54        1.232   2.691   0.000   3.923
   55        1.229   2.693   0.000   3.922
   56        1.232   2.695   0.000   3.926
   57        1.260   2.573   0.000   3.834
   58        1.233   2.694   0.000   3.927
   59        0.441   0.535   6.222   7.197
   60        0.487   0.649   6.379   7.515
--------------------------------------------------
tot         52.877 107.737  12.601 173.215
 


 magnetization (x)
 
# of ion       s       p       d       tot
------------------------------------------
    1       -0.000  -0.006   0.000  -0.007
    2       -0.000  -0.004   0.000  -0.004
    3        0.000   0.002   0.000   0.002
    4        0.000   0.003   0.000   0.003
    5        0.000  -0.001   0.000  -0.001
    6       -0.000  -0.005   0.000  -0.005
    7       -0.000  -0.001   0.000  -0.001
    8       -0.001  -0.007   0.000  -0.008
    9       -0.001  -0.004   0.000  -0.005
   10       -0.000  -0.006   0.000  -0.006
   11       -0.001  -0.002   0.000  -0.003
   12       -0.002  -0.015   0.000  -0.017
   13       -0.001  -0.011   0.000  -0.012
   14        0.000   0.004   0.000   0.004
   15        0.001   0.008   0.000   0.009
   16       -0.001  -0.008   0.000  -0.009
   17       -0.000  -0.004   0.000  -0.005
   18        0.000   0.003   0.000   0.003
   19        0.001   0.007   0.000   0.008
   20       -0.001  -0.009   0.000  -0.010
   21       -0.000  -0.005   0.000  -0.005
   22        0.000   0.003   0.000   0.003
   23        0.000   0.003   0.000   0.004
   24       -0.000  -0.003   0.000  -0.003
   25       -0.001  -0.006   0.000  -0.008
   26        0.000   0.003   0.000   0.004
   27        0.000   0.004   0.000   0.004
   28       -0.000  -0.008   0.000  -0.008
   29       -0.002  -0.048   0.000  -0.049
   30       -0.001  -0.016   0.000  -0.018
   31       -0.001  -0.007   0.000  -0.008
   32        0.001   0.012   0.000   0.014
   33        0.001   0.007   0.000   0.008
   34       -0.001  -0.009   0.000  -0.010
   35       -0.001  -0.007   0.000  -0.007
   36        0.000   0.004   0.000   0.005
   37        0.000   0.002   0.000   0.003
   38       -0.001  -0.008   0.000  -0.008
   39       -0.001  -0.015   0.000  -0.016
   40        0.001   0.005   0.000   0.006
   41        0.000   0.004   0.000   0.004
   42       -0.000  -0.006   0.000  -0.007
   43       -0.001  -0.020   0.000  -0.021
   44        0.001   0.006   0.000   0.007
   45        0.000   0.004   0.000   0.005
   46       -0.001  -0.008   0.000  -0.008
   47       -0.001  -0.017   0.000  -0.018
   48        0.001   0.009   0.000   0.011
   49        0.000   0.004   0.000   0.004
   50       -0.001  -0.008   0.000  -0.008
   51       -0.001  -0.007   0.000  -0.007
   52        0.001   0.006   0.000   0.006
   53        0.000   0.004   0.000   0.004
   54       -0.008  -0.040   0.000  -0.048
   55        0.002   0.007   0.000   0.009
   56       -0.004  -0.008   0.000  -0.012
   57       -0.000  -0.013   0.000  -0.014
   58        0.003   0.011   0.000   0.014
   59       -0.026  -0.049  -3.131  -3.206
   60        0.058   0.071   2.506   2.635
--------------------------------------------------
tot          0.017  -0.194  -0.624  -0.801
 

 total amount of memory used by VASP MPI-rank0   151571. kBytes
=======================================================================

   base      :      30000. kBytes
   nonl-proj :       3748. kBytes
   fftplans  :      11188. kBytes
   grid      :      27138. kBytes
   one-center:         62. kBytes
   HF        :         23. kBytes
   nonlr-proj:      15884. kBytes
   wavefun   :      63528. kBytes
 
  
  
 General timing and accounting informations for this job:
 ========================================================
  
                  Total CPU time used (sec):    10791.120
                            User time (sec):    10748.972
                          System time (sec):       42.148
                         Elapsed time (sec):    10839.571
  
                   Maximum memory used (kb):      391136.
                   Average memory used (kb):           0.
  
                          Minor page faults:      1388803
                          Major page faults:            0
                 Voluntary context switches:       219408
