 vasp.5.4.4.18Apr17-6-g9f103f2a35 (build Feb 25 2019 10:51:38) complex          
  
 executed on             LinuxIFC date 2021.08.09  12:28:45
 running on   32 total cores
 distrk:  each k-point on   32 cores,    1 groups
 distr:  one band on NCORES_PER_BAND=  32 cores,    1 groups


--------------------------------------------------------------------------------------------------------


 INCAR:
 POTCAR:    PAW_PBE C 08Apr2002                   
 POTCAR:    PAW_PBE N 08Apr2002                   
 POTCAR:    PAW_PBE Fe 06Sep2000                  
 POTCAR:    PAW_PBE Ti 08Apr2002                  

 ----------------------------------------------------------------------------- 
|                                                                             |
|           W    W    AA    RRRRR   N    N  II  N    N   GGGG   !!!           |
|           W    W   A  A   R    R  NN   N  II  NN   N  G    G  !!!           |
|           W    W  A    A  R    R  N N  N  II  N N  N  G       !!!           |
|           W WW W  AAAAAA  RRRRR   N  N N  II  N  N N  G  GGG   !            |
|           WW  WW  A    A  R   R   N   NN  II  N   NN  G    G                |
|           W    W  A    A  R    R  N    N  II  N    N   GGGG   !!!           |
|                                                                             |
|      For optimal performance we recommend to set                            |
|        NCORE= 4 - approx SQRT( number of cores)                             |
|      NCORE specifies how many cores store one orbital (NPAR=cpu/NCORE).     |
|      This setting can  greatly improve the performance of VASP for DFT.     |
|      The default,   NCORE=1            might be grossly inefficient         |
|      on modern multi-core architectures or massively parallel machines.     |
|      Do your own testing !!!!                                               |
|      Unfortunately you need to use the default for GW and RPA calculations. |
|      (for HF NCORE is supported but not extensively tested yet)             |
|                                                                             |
 ----------------------------------------------------------------------------- 

 POTCAR:    PAW_PBE C 08Apr2002                   
   VRHFIN =C: s2p2                                                              
   LEXCH  = PE                                                                  
   EATOM  =   147.1560 eV,   10.8157 Ry                                         
                                                                                
   TITEL  = PAW_PBE C 08Apr2002                                                 
   LULTRA =        F    use ultrasoft PP ?                                      
   IUNSCR =        1    unscreen: 0-lin 1-nonlin 2-no                           
   RPACOR =    1.200    partial core radius                                     
   POMASS =   12.011; ZVAL   =    4.000    mass and valenz                      
   RCORE  =    1.500    outmost cutoff radius                                   
   RWIGS  =    1.630; RWIGS  =    0.863    wigner-seitz radius (au A)           
   ENMAX  =  400.000; ENMIN  =  300.000 eV                                      
   ICORE  =        2    local potential                                         
   LCOR   =        T    correct aug charges                                     
   LPAW   =        T    paw PP                                                  
   EAUG   =  644.873                                                            
   DEXC   =    0.000                                                            
   RMAX   =    1.529    core radius for proj-oper                               
   RAUG   =    1.300    factor for augmentation sphere                          
   RDEP   =    1.501    radius for radial grids                                 
   RDEPT  =    1.300    core radius for aug-charge                              
                                                                                
   Atomic configuration                                                         
    4 entries                                                                   
     n  l   j            E        occ.                                          
     1  0  0.50      -273.3789   2.0000                                         
     2  0  0.50       -13.7508   2.0000                                         
     2  1  0.50        -5.2854   2.0000                                         
     3  2  1.50        -5.4423   0.0000                                         
   Description                                                                  
     l       E           TYP  RCUT    TYP  RCUT                                 
     0    -13.7508458     23  1.200                                             
     0     -8.2022199     23  1.200                                             
     1     -5.2854383     23  1.500                                             
     1     34.0145650     23  1.500                                             
     2     -5.4423304      7  1.500                                             
  local pseudopotential read in
  partial core-charges read in
  partial kinetic energy density read in
  atomic valenz-charges read in
  non local Contribution for L=           0  read in
    real space projection operators read in
  non local Contribution for L=           0  read in
    real space projection operators read in
  non local Contribution for L=           1  read in
    real space projection operators read in
  non local Contribution for L=           1  read in
    real space projection operators read in
    PAW grid and wavefunctions read in
 
   number of l-projection  operators is LMAX  =           4
   number of lm-projection operators is LMMAX =           8
 
 POTCAR:    PAW_PBE N 08Apr2002                   
   VRHFIN =N: s2p3                                                              
   LEXCH  = PE                                                                  
   EATOM  =   264.5486 eV,   19.4438 Ry                                         
                                                                                
   TITEL  = PAW_PBE N 08Apr2002                                                 
   LULTRA =        F    use ultrasoft PP ?                                      
   IUNSCR =        1    unscreen: 0-lin 1-nonlin 2-no                           
   RPACOR =    1.200    partial core radius                                     
   POMASS =   14.001; ZVAL   =    5.000    mass and valenz                      
   RCORE  =    1.500    outmost cutoff radius                                   
   RWIGS  =    1.400; RWIGS  =    0.741    wigner-seitz radius (au A)           
   ENMAX  =  400.000; ENMIN  =  300.000 eV                                      
   ICORE  =        2    local potential                                         
   LCOR   =        T    correct aug charges                                     
   LPAW   =        T    paw PP                                                  
   EAUG   =  627.112                                                            
   DEXC   =    0.000                                                            
   RMAX   =    1.529    core radius for proj-oper                               
   RAUG   =    1.300    factor for augmentation sphere                          
   RDEP   =    1.514    radius for radial grids                                 
   RDEPT  =    1.338    core radius for aug-charge                              
                                                                                
   Atomic configuration                                                         
    4 entries                                                                   
     n  l   j            E        occ.                                          
     1  0  0.50      -384.7179   2.0000                                         
     2  0  0.50       -18.5828   2.0000                                         
     2  1  0.50        -7.0898   3.0000                                         
     3  2  1.50        -6.8029   0.0000                                         
   Description                                                                  
     l       E           TYP  RCUT    TYP  RCUT                                 
     0    -18.5828119     23  1.200                                             
     0    -13.5018863     23  1.200                                             
     1     -7.0897853     23  1.500                                             
     1      9.5240782     23  1.500                                             
     2     -6.8029130      7  1.500                                             
  local pseudopotential read in
  partial core-charges read in
  partial kinetic energy density read in
  atomic valenz-charges read in
  non local Contribution for L=           0  read in
    real space projection operators read in
  non local Contribution for L=           0  read in
    real space projection operators read in
  non local Contribution for L=           1  read in
    real space projection operators read in
  non local Contribution for L=           1  read in
    real space projection operators read in
    PAW grid and wavefunctions read in
 
   number of l-projection  operators is LMAX  =           4
   number of lm-projection operators is LMMAX =           8
 
 POTCAR:    PAW_PBE Fe 06Sep2000                  
   VRHFIN =Fe:  d7 s1                                                           
   LEXCH  = PE                                                                  
   EATOM  =   594.3153 eV,   43.6809 Ry                                         
                                                                                
   TITEL  = PAW_PBE Fe 06Sep2000                                                
   LULTRA =        F    use ultrasoft PP ?                                      
   IUNSCR =        1    unscreen: 0-lin 1-nonlin 2-no                           
   RPACOR =    2.000    partial core radius                                     
   POMASS =   55.847; ZVAL   =    8.000    mass and valenz                      
   RCORE  =    2.300    outmost cutoff radius                                   
   RWIGS  =    2.460; RWIGS  =    1.302    wigner-seitz radius (au A)           
   ENMAX  =  267.882; ENMIN  =  200.911 eV                                      
   RCLOC  =    1.701    cutoff for local pot                                    
   LCOR   =        T    correct aug charges                                     
   LPAW   =        T    paw PP                                                  
   EAUG   =  511.368                                                            
   DEXC   =    0.000                                                            
   RMAX   =    2.356    core radius for proj-oper                               
   RAUG   =    1.300    factor for augmentation sphere                          
   RDEP   =    2.442    radius for radial grids                                 
   RDEPT  =    1.890    core radius for aug-charge                              
                                                                                
   Atomic configuration                                                         
    9 entries                                                                   
     n  l   j            E        occ.                                          
     1  0  0.50     -6993.8440   2.0000                                         
     2  0  0.50      -814.6047   2.0000                                         
     2  1  1.50      -693.3689   6.0000                                         
     3  0  0.50       -89.4732   2.0000                                         
     3  1  1.50       -55.6373   6.0000                                         
     3  2  2.50        -3.8151   7.0000                                         
     4  0  0.50        -4.2551   1.0000                                         
     4  1  1.50        -3.4015   0.0000                                         
     4  3  2.50        -1.3606   0.0000                                         
   Description                                                                  
     l       E           TYP  RCUT    TYP  RCUT                                 
     2     -3.8151135     23  2.300                                             
     2     -5.1756961     23  2.300                                             
     0     -4.2550963     23  2.300                                             
     0      7.2035603     23  2.300                                             
     1     -2.7211652     23  2.300                                             
     1     18.4316424     23  2.300                                             
  local pseudopotential read in
  partial core-charges read in
  partial kinetic energy density read in
  atomic valenz-charges read in
  non local Contribution for L=           2  read in
    real space projection operators read in
  non local Contribution for L=           2  read in
    real space projection operators read in
  non local Contribution for L=           0  read in
    real space projection operators read in
  non local Contribution for L=           0  read in
    real space projection operators read in
  non local Contribution for L=           1  read in
    real space projection operators read in
  non local Contribution for L=           1  read in
    real space projection operators read in
    PAW grid and wavefunctions read in
 
   number of l-projection  operators is LMAX  =           6
   number of lm-projection operators is LMMAX =          18
 
 POTCAR:    PAW_PBE Ti 08Apr2002                  
   VRHFIN =Ti: d3 s1                                                            
   LEXCH  = PE                                                                  
   EATOM  =    94.7928 eV,    6.9671 Ry                                         
                                                                                
   TITEL  = PAW_PBE Ti 08Apr2002                                                
   LULTRA =        F    use ultrasoft PP ?                                      
   IUNSCR =        1    unscreen: 0-lin 1-nonlin 2-no                           
   RPACOR =    2.200    partial core radius                                     
   POMASS =   47.880; ZVAL   =    4.000    mass and valenz                      
   RCORE  =    2.800    outmost cutoff radius                                   
   RWIGS  =    2.500; RWIGS  =    1.323    wigner-seitz radius (au A)           
   ENMAX  =  178.330; ENMIN  =  133.747 eV                                      
   RCLOC  =    2.215    cutoff for local pot                                    
   LCOR   =        T    correct aug charges                                     
   LPAW   =        T    paw PP                                                  
   EAUG   =  328.883                                                            
   DEXC   =    0.000                                                            
   RMAX   =    2.868    core radius for proj-oper                               
   RAUG   =    1.300    factor for augmentation sphere                          
   RDEP   =    2.885    radius for radial grids                                 
   RDEPT  =    2.320    core radius for aug-charge                              
                                                                                
   Atomic configuration                                                         
    9 entries                                                                   
     n  l   j            E        occ.                                          
     1  0  0.50     -4865.3608   2.0000                                         
     2  0  0.50      -533.1367   2.0000                                         
     2  1  1.50      -440.5031   6.0000                                         
     3  0  0.50       -59.3186   2.0000                                         
     3  1  1.50       -35.7012   6.0000                                         
     3  2  2.50        -1.9157   3.0000                                         
     4  0  0.50        -3.7291   1.0000                                         
     4  1  1.50        -4.0817   0.0000                                         
     4  3  2.50        -1.3606   0.0000                                         
   Description                                                                  
     l       E           TYP  RCUT    TYP  RCUT                                 
     2     -1.9156924     23  2.800                                             
     2     -0.4062961     23  2.800                                             
     0     -3.7290832     23  2.800                                             
     0     20.4087390     23  2.800                                             
     1     -5.4423304     23  2.800                                             
  local pseudopotential read in
  partial core-charges read in
  partial kinetic energy density read in
  atomic valenz-charges read in
  non local Contribution for L=           2  read in
    real space projection operators read in
  non local Contribution for L=           2  read in
    real space projection operators read in
  non local Contribution for L=           0  read in
    real space projection operators read in
  non local Contribution for L=           0  read in
    real space projection operators read in
  non local Contribution for L=           1  read in
    real space projection operators read in
    PAW grid and wavefunctions read in
 
   number of l-projection  operators is LMAX  =           5
   number of lm-projection operators is LMMAX =          15
 

 ----------------------------------------------------------------------------- 
|                                                                             |
|  ADVICE TO THIS USER RUNNING 'VASP/VAMP'   (HEAR YOUR MASTER'S VOICE ...):  |
|                                                                             |
|      You have a (more or less) 'large supercell' and for larger cells       |
|      it might be more efficient to use real space projection opertators     |
|      So try LREAL= Auto  in the INCAR   file.                               |
|      Mind:          For very  accurate calculation you might also keep the  |
|      reciprocal projection scheme          (i.e. LREAL=.FALSE.)             |
|                                                                             |
 ----------------------------------------------------------------------------- 

  PAW_PBE C 08Apr2002                   :
 energy of atom  1       EATOM= -147.1560
 kinetic energy error for atom=    0.0076 (will be added to EATOM!!)
  PAW_PBE N 08Apr2002                   :
 energy of atom  2       EATOM= -264.5486
 kinetic energy error for atom=    0.0138 (will be added to EATOM!!)
  PAW_PBE Fe 06Sep2000                  :
 energy of atom  3       EATOM= -594.3153
 kinetic energy error for atom=    0.0026 (will be added to EATOM!!)
  PAW_PBE Ti 08Apr2002                  :
 energy of atom  4       EATOM=  -94.7928
 kinetic energy error for atom=    0.0002 (will be added to EATOM!!)
 
 
 POSCAR:  C  N Fe Ti                             
  positions in cartesian coordinates
  No initial velocities read in
 exchange correlation table for  LEXCH =        8
   RHO(1)=    0.500       N(1)  =     2000
   RHO(2)=  100.500       N(2)  =     4000

 VTST: version 3.2, (02/03/18)

 CHAIN: initializing optimizer
 
 OPT: Using VASP Conjugate-Gradient optimizer
 CHAIN: Read ICHAIN            0
 
 POSCAR:  C  N Fe Ti                             
  positions in cartesian coordinates
  No initial velocities read in
 


--------------------------------------------------------------------------------------------------------


 ion  position               nearest neighbor table
   1  0.221  0.998  0.500-   4 1.42   3 1.43  19 1.43
   2  0.053  0.100  0.500-   7 1.42  34 1.43   3 1.43
   3  0.110  1.000  0.500-  17 1.42   1 1.43   2 1.43
   4  0.275  0.098  0.499-   1 1.42   5 1.43  21 1.43
   5  0.217  0.198  0.499-   8 1.41   7 1.42   4 1.43
   6  0.051  0.301  0.500-   7 1.42  11 1.43  38 1.43
   7  0.106  0.200  0.500-   6 1.42   2 1.42   5 1.42
   8  0.272  0.296  0.498-  51 1.37   5 1.41   9 1.43
   9  0.218  0.398  0.499-  50 1.39  11 1.41   8 1.43
  10  0.055  0.501  0.500-  11 1.42  41 1.42  14 1.45
  11  0.108  0.399  0.500-   9 1.41  10 1.42   6 1.43
  12  0.227  0.594  0.500-  50 1.38  14 1.44  15 1.48
  13  0.059  0.700  0.500-  18 1.42  14 1.43  45 1.43
  14  0.115  0.599  0.500-  13 1.43  12 1.44  10 1.45
  15  0.288  0.695  0.501-  53 1.40  16 1.45  12 1.48
  16  0.227  0.796  0.500-  19 1.43  18 1.44  15 1.45
  17  0.057  0.900  0.500-   3 1.42  49 1.43  18 1.44
  18  0.114  0.799  0.500-  13 1.42  17 1.44  16 1.44
  19  0.279  0.897  0.500-  28 1.43   1 1.43  16 1.43
  20  0.554  0.003  0.499-  30 1.42  22 1.43  23 1.44
  21  0.386  0.099  0.499-  22 1.42   4 1.43  25 1.44
  22  0.443  1.000  0.499-  21 1.42  20 1.43  28 1.44
  23  0.607  0.105  0.499-  24 1.43  20 1.44  32 1.44
  24  0.550  0.205  0.498-  23 1.43  25 1.45  26 1.45
  25  0.437  0.202  0.498-  51 1.36  21 1.44  24 1.45
  26  0.605  0.306  0.500-  52 1.33  36 1.45  24 1.45
  27  0.560  0.801  0.499-  54 1.36  30 1.43  29 1.47
  28  0.390  0.898  0.500-  19 1.43  29 1.44  22 1.44
  29  0.445  0.795  0.500-  53 1.38  28 1.44  27 1.47
  30  0.611  0.903  0.499-  20 1.42  27 1.43  47 1.43
  31  0.888  0.003  0.500-  34 1.42  49 1.43  33 1.43
  32  0.719  0.106  0.499-  33 1.43  23 1.44  37 1.44
  33  0.776  0.005  0.499-  47 1.43  32 1.43  31 1.43
  34  0.941  0.103  0.500-  31 1.42   2 1.43  35 1.43
  35  0.885  0.204  0.501-  38 1.43  34 1.43  37 1.43
  36  0.717  0.309  0.501-  37 1.44  26 1.45  40 1.46
  37  0.773  0.207  0.500-  35 1.43  36 1.44  32 1.44
  38  0.940  0.303  0.501-  35 1.43  39 1.43   6 1.43
  39  0.885  0.405  0.501-  38 1.43  41 1.44  40 1.44
  40  0.773  0.411  0.502-  55 1.40  39 1.44  36 1.46
  41  0.944  0.503  0.501-  42 1.42  10 1.42  39 1.44
  42  0.890  0.605  0.501-  44 1.42  41 1.42  45 1.43
  43  0.725  0.707  0.499-  54 1.38  48 1.42  44 1.43
  44  0.780  0.605  0.501-  55 1.39  42 1.42  43 1.43
  45  0.947  0.703  0.500-  46 1.42  42 1.43  13 1.43
  46  0.891  0.803  0.500-  45 1.42  49 1.42  48 1.43
  47  0.723  0.905  0.499-  48 1.42  33 1.43  30 1.43
  48  0.780  0.805  0.499-  43 1.42  47 1.42  46 1.43
  49  0.945  0.903  0.500-  46 1.42  31 1.43  17 1.43
  50  0.275  0.493  0.499-  12 1.38   9 1.39  56 1.91
  51  0.379  0.296  0.496-  25 1.36   8 1.37  56 1.96
  52  0.553  0.401  0.500-  26 1.33  56 1.82  57 1.89
  53  0.397  0.697  0.501-  29 1.38  15 1.40
  54  0.618  0.707  0.498-  27 1.36  43 1.38  57 2.07
  55  0.721  0.511  0.504-  44 1.39  40 1.40  57 2.15
  56  0.419  0.449  0.496-  52 1.82  50 1.91  51 1.96  57 2.26
  57  0.559  0.554  0.511-  52 1.89  54 2.07  55 2.15  56 2.26
 
  LATTYP: Found a triclinic cell.
 ALAT       =    12.8511910431
 B/A-ratio  =     0.9599485432
 C/A-ratio  =     1.5596170952
 COS(alpha) =     0.0001342966
 COS(beta)  =     0.0009520254
 COS(gamma) =     0.0209216895
  
  Lattice vectors:
  
 A1 = (  12.8504933877,   0.1337626907,   0.0062017955)
 A2 = (   0.1297084598,  12.3358001779,   0.0008877913)
 A3 = (   0.0093974936,   0.0011505710,  20.0429350090)


Analysis of symmetry for initial positions (statically):
=====================================================================
 Subroutine PRICEL returns:
 Original cell was already a primitive cell.
 

 Routine SETGRP: Setting up the symmetry group for a 
 triclinic supercell.


 Subroutine GETGRP returns: Found  1 space group operations
 (whereof  1 operations were pure point group operations)
 out of a pool of  2 trial point group operations.


The static configuration has the point symmetry C_1 .


Analysis of symmetry for dynamics (positions and initial velocities):
=====================================================================
 Subroutine PRICEL returns:
 Original cell was already a primitive cell.
 

 Routine SETGRP: Setting up the symmetry group for a 
 triclinic supercell.


 Subroutine GETGRP returns: Found  1 space group operations
 (whereof  1 operations were pure point group operations)
 out of a pool of  2 trial point group operations.


The dynamic configuration has the point symmetry C_1 .


Analysis of structural, dynamic, and magnetic symmetry:
=====================================================================
 Subroutine PRICEL returns:
 Original cell was already a primitive cell.
 

 Routine SETGRP: Setting up the symmetry group for a 
 triclinic supercell.


 Subroutine GETGRP returns: Found  1 space group operations
 (whereof  1 operations were pure point group operations)
 out of a pool of  2 trial point group operations.


The magnetic configuration has the point symmetry C_1 .


 Subroutine INISYM returns: Found  1 space group operations
 (whereof  1 operations are pure point group operations),
 and found     1 'primitive' translations

 
 
 KPOINTS: KPOINTS created by Atomic Simulation Env

Automatic generation of k-mesh.
Space group operators:
 irot       det(A)        alpha          n_x          n_y          n_z        tau_x        tau_y        tau_z
    1     1.000000     0.000000     1.000000     0.000000     0.000000     0.000000     0.000000     0.000000
 
 Subroutine IBZKPT returns following result:
 ===========================================
 
 Found      2 irreducible k-points:
 
 Following reciprocal coordinates:
            Coordinates               Weight
  0.250000  0.250000 -0.000000      2.000000
 -0.250000  0.250000  0.000000      2.000000
 
 Following cartesian coordinates:
            Coordinates               Weight
  0.019246  0.020064 -0.000010      2.000000
 -0.019668  0.020473  0.000008      2.000000
 
 
 Subroutine IBZKPT_HF returns following result:
 ==============================================
 
 Found      4 k-points in 1st BZ
 the following      4 k-points will be used (e.g. in the exchange kernel)
 Following reciprocal coordinates:   # in IRBZ
  0.250000  0.250000 -0.000000    0.25000000   1 t-inv F
 -0.250000  0.250000  0.000000    0.25000000   2 t-inv F
 -0.250000 -0.250000  0.000000    0.25000000   1 t-inv T
  0.250000 -0.250000 -0.000000    0.25000000   2 t-inv T


--------------------------------------------------------------------------------------------------------




 Dimension of arrays:
   k-points           NKPTS =      2   k-points in BZ     NKDIM =      4   number of bands    NBANDS=    152
   number of dos      NEDOS =    301   number of ions     NIONS =     57
   non local maximal  LDIM  =      6   non local SUM 2l+1 LMDIM =     18
   total plane-waves  NPLWV = ******
   max r-space proj   IRMAX =      1   max aug-charges    IRDMAX=  28371
   dimension x,y,z NGX =    96 NGY =   90 NGZ =  150
   dimension x,y,z NGXF=   192 NGYF=  180 NGZF=  300
   support grid    NGXF=   192 NGYF=  180 NGZF=  300
   ions per type =              49   6   1   1
   NGX,Y,Z   is equivalent  to a cutoff of  12.42, 12.13, 12.44 a.u.
   NGXF,Y,Z  is equivalent  to a cutoff of  24.84, 24.26, 24.88 a.u.

 SYSTEM =  unknown system                          
 POSCAR =   C  N Fe Ti                             

 Startparameter for this run:
   NWRITE =      2    write-flag & timer
   PREC   = accura    normal or accurate (medium, high low for compatibility)
   ISTART =      1    job   : 0-new  1-cont  2-samecut
   ICHARG =      0    charge: 1-file 2-atom 10-const
   ISPIN  =      2    spin polarized calculation?
   LNONCOLLINEAR =      F non collinear calculations
   LSORBIT =      F    spin-orbit coupling
   INIWAV =      1    electr: 0-lowe 1-rand  2-diag
   LASPH  =      T    aspherical Exc in radial PAW
   METAGGA=      F    non-selfconsistent MetaGGA calc.

 Electronic Relaxation 1
   ENCUT  =  500.0 eV  36.75 Ry    6.06 a.u.  23.43 22.49 36.54*2*pi/ulx,y,z
   ENINI  =  500.0     initial cutoff
   ENAUG  =  644.9 eV  augmentation charge cutoff
   NELM   =    250;   NELMIN=  2; NELMDL=  0     # of ELM steps 
   EDIFF  = 0.1E-03   stopping-criterion for ELM
   LREAL  =      F    real-space projection
   NLSPLINE    = F    spline interpolate recip. space projectors
   LCOMPAT=      F    compatible to vasp.4.4
   GGA_COMPAT  = T    GGA compatible to vasp.4.4-vasp.4.6
   LMAXPAW     = -100 max onsite density
   LMAXMIX     =    2 max onsite mixed and CHGCAR
   VOSKOWN=      0    Vosko Wilk Nusair interpolation
   ROPT   =    0.00000   0.00000   0.00000   0.00000
 Ionic relaxation
   EDIFFG = -.3E-01   stopping-criterion for IOM
   NSW    =      0    number of steps for IOM
   NBLOCK =      1;   KBLOCK =      1    inner block; outer block 
   IBRION =     -1    ionic relax: 0-MD 1-quasi-New 2-CG
   NFREE  =      1    steps in history (QN), initial steepest desc. (CG)
   ISIF   =      2    stress and relaxation
   IWAVPR =     10    prediction:  0-non 1-charg 2-wave 3-comb
   ISYM   =      3    0-nonsym 1-usesym 2-fastsym
   LCORR  =      T    Harris-Foulkes like correction to forces

   POTIM  = 0.5000    time-step for ionic-motion
   TEIN   =    0.0    initial temperature
   TEBEG  =    0.0;   TEEND  =   0.0 temperature during run
   SMASS  =  -3.00    Nose mass-parameter (am)
   estimated Nose-frequenzy (Omega)   =  0.10E-29 period in steps =****** mass=  -0.377E-26a.u.
   SCALEE = 1.0000    scale energy and forces
   NPACO  =    256;   APACO  = 16.0  distance and # of slots for P.C.
   PSTRESS=    0.0 pullay stress

  Mass of Ions in am
   POMASS =  12.01 14.00 55.85 47.88
  Ionic Valenz
   ZVAL   =   4.00  5.00  8.00  4.00
  Atomic Wigner-Seitz radii
   RWIGS  =  -1.00 -1.00 -1.00 -1.00
  virtual crystal weights 
   VCA    =   1.00  1.00  1.00  1.00
   NELECT =     238.0000    total number of electrons
   NUPDOWN=      -1.0000    fix difference up-down

 DOS related values:
   EMIN   =  10.00;   EMAX   =-10.00  energy-range for DOS
   EFERMI =   0.00
   ISMEAR =     0;   SIGMA  =   0.10  broadening in eV -4-tet -1-fermi 0-gaus

 Electronic relaxation 2 (details)
   IALGO  =     53    algorithm
   LDIAG  =      T    sub-space diagonalisation (order eigenvalues)
   LSUBROT=      F    optimize rotation matrix (better conditioning)
   TURBO    =      0    0=normal 1=particle mesh
   IRESTART =      0    0=no restart 2=restart with 2 vectors
   NREBOOT  =      0    no. of reboots
   NMIN     =      0    reboot dimension
   EREF     =   0.00    reference energy to select bands
   IMIX   =      4    mixing-type and parameters
     AMIX     =   0.40;   BMIX     =  1.00
     AMIX_MAG =   1.60;   BMIX_MAG =  1.00
     AMIN     =   0.10
     WC   =   100.;   INIMIX=   1;  MIXPRE=   1;  MAXMIX= -45

 Intra band minimization:
   WEIMIN = 0.0000     energy-eigenvalue tresh-hold
   EBREAK =  0.16E-06  absolut break condition
   DEPER  =   0.30     relativ break condition  

   TIME   =   0.20     timestep for ELM

  volume/ion in A,a.u.               =      55.73       376.12
  Fermi-wavevector in a.u.,A,eV,Ry     =   0.690134  1.304165  6.480254  0.476285
  Thomas-Fermi vector in A             =   1.771416
 
 Write flags
   LWAVE        =      T    write WAVECAR
   LDOWNSAMPLE  =      F    k-point downsampling of WAVECAR
   LCHARG       =      T    write CHGCAR
   LVTOT        =      F    write LOCPOT, total local potential
   LVHAR        =      F    write LOCPOT, Hartree potential only
   LELF         =      F    write electronic localiz. function (ELF)
   LORBIT       =     11    0 simple, 1 ext, 2 COOP (PROOUT), +10 PAW based schemes


 Dipole corrections
   LMONO  =      F    monopole corrections only (constant potential shift)
   LDIPOL =      T    correct potential (dipole corrections)
   IDIPOL =      3    1-x, 2-y, 3-z, 4-all directions 
   EPSILON=  1.0000000 bulk dielectric constant

 Exchange correlation treatment:
   GGA     =    PE    GGA type
   LEXCH   =     8    internal setting for exchange type
   VOSKOWN=      0    Vosko Wilk Nusair interpolation
   EXXOEP  =     0    0=HF, 1=EXX-LHF (local Hartree Fock) 2=EXX OEP
   LHFCALC =     T    Hartree Fock is set to
   LSYMGRAD=     F    symmetrize gradient (conserves proper symmetry)
   PRECFOCK=normal    Normal, Fast or Accurate (Low or Medium for compatibility)
   LRHFCALC=     F    long range Hartree Fock
   LRSCOR  =     F    long range correlation only (use DFT for short range part)
   LTHOMAS =     F    Thomas Fermi screening in HF
   LMODELHF=     F    short range full HF, long range fraction AEXX
   ENCUT4O =  -1.0   cutoff for four orbital integrals eV
   LMAXFOCK=     4    L truncation for augmentation on plane wave grid
   LMAXFOCKAE=  -1    L truncation for all-electron charge restoration on plane wave grid
   NMAXFOCKAE=   1    number of basis functions for all-electron charge restoration
   LFOCKAEDFT=     F  apply the AE augmentation even for DFT
   NKREDX  =     1    reduce k-point grid by
   NKREDY  =     1    reduce k-point grid by
   NKREDZ  =     1    reduce k-point grid by
   SHIFTRED=     F    shift reduced grid of Gamma
   HFKIDENT=     F    idential grid for each k-point
   ODDONLY =     F    use only odd q-grid points
   EVENONLY=     F    use only even q-grid points
   HFALPHA =   -1.0000 decay constant for conv. correction
   MCALPHA =    0.0000 extent of test-charge in conv. correction in multipole expansion
   AEXX    =    0.2500 exact exchange contribution
   HFSCREEN=    0.2000 screening length (either q_TF or 0.3 A-1)
   HFSCREENC=   0.2000 screening length for correlation (either q_TF or 0.3 A-1)
   HFRCUT  =    0.0000 spherical cutoff for potential kernel
   ALDAX   =    0.7500 LDA exchange part
   AGGAX   =    0.7500 GGA exchange part
   ALDAC   =    1.0000 LDA correlation
   AGGAC   =    1.0000 GGA correlation
   ENCUTFOCK=  -1.0 apply spherical cutoff to Coloumb kernel
   NBANDSGWLOW=     1    first orbital included in HF term
   NBLOCK_FOCK=    64    blocking factor in FOCK_ACC
 Linear response parameters
   LEPSILON=     F    determine dielectric tensor
   LRPA    =     F    only Hartree local field effects (RPA)
   LNABLA  =     F    use nabla operator in PAW spheres
   LVEL    =     F    velocity operator in full k-point grid
   LINTERFAST=   F  fast interpolation
   KINTER  =     0    interpolate to denser k-point grid
   CSHIFT  =0.1000    complex shift for real part using Kramers Kronig
   OMEGAMAX=  -1.0    maximum frequency
   DEG_THRESHOLD= 0.2000000E-02 threshold for treating states as degnerate
   RTIME   =   -0.100 relaxation time in fs
  (WPLASMAI=    0.000 imaginary part of plasma frequency in eV, 0.658/RTIME)
   DFIELD  = 0.0000000 0.0000000 0.0000000 field for delta impulse in time
 
 Orbital magnetization related:
   ORBITALMAG=     F  switch on orbital magnetization
   LCHIMAG   =     F  perturbation theory with respect to B field
   DQ        =  0.001000  dq finite difference perturbation B field
   LLRAUG    =     F  two centre corrections for induced B field



--------------------------------------------------------------------------------------------------------


 Static calculation
 charge density and potential will be updated during run
 spin polarized calculation
 Conjugate gradient for all bands (Freysoldt, et al. PRB 79, 241103 (2009))
 perform sub-space diagonalisation
    before iterative eigenvector-optimisation
 modified Broyden-mixing scheme, WC =      100.0
 initial mixing is a Kerker type mixing with AMIX =  0.4000 and BMIX =      1.0000
 Hartree-type preconditioning will be used
 using additional bands           33
 reciprocal scheme for non local part
 use partial core corrections
 no Harris-corrections to forces 
 use gradient corrections 
 use of overlap-Matrix (Vanderbilt PP)
 Gauss-broadening in eV      SIGMA  =   0.10


--------------------------------------------------------------------------------------------------------


  energy-cutoff  :      500.00
  volume of cell :     3176.88
      direct lattice vectors                 reciprocal lattice vectors
    12.850493388  0.133762691  0.006201795     0.077826559 -0.000818328 -0.000036443
     0.129708460 12.335800178  0.000887791    -0.000843907  0.081073741 -0.000004258
     0.009397494  0.001150571 20.042935009    -0.000024044 -0.000003338  0.049892904

  length of vectors
    12.851191043 12.336482120 20.042937245     0.077830870  0.081078133  0.049892910


 
 old parameters found on file WAVECAR:
  energy-cutoff  :      500.00
  volume of cell :     3176.88
      direct lattice vectors                 reciprocal lattice vectors
    12.810000000  0.000000000  0.000000000     0.078064012  0.000000000  0.000000000
     0.000000000 12.400000000  0.000000000     0.000000000  0.080645161  0.000000000
     0.000000000  0.000000000 20.000000000     0.000000000  0.000000000  0.050000000

  length of vectors

 
 k-points in units of 2pi/SCALE and weight: KPOINTS created by Atomic Simulation Env
   0.01924566  0.02006385 -0.00001018       0.500
  -0.01966762  0.02047302  0.00000805       0.500
 
 k-points in reciprocal lattice and weights: KPOINTS created by Atomic Simulation Env
   0.25000000  0.25000000 -0.00000000       0.500
  -0.25000000  0.25000000  0.00000000       0.500
 
 position of ions in fractional coordinates (direct lattice) 
   0.22142289  0.99791516  0.50006882
   0.05257922  0.10025521  0.50039851
   0.11009455  0.99971077  0.50034648
   0.27472863  0.09784463  0.49928665
   0.21711729  0.19786263  0.49913136
   0.05101183  0.30065031  0.50018220
   0.10624609  0.19974131  0.50005855
   0.27210995  0.29553532  0.49772818
   0.21770851  0.39809839  0.49858741
   0.05497587  0.50118270  0.50038451
   0.10783511  0.39912002  0.49979305
   0.22713955  0.59394455  0.50004511
   0.05869520  0.70023946  0.50036386
   0.11484529  0.59922767  0.50033301
   0.28751096  0.69501696  0.50077942
   0.22673426  0.79574418  0.50048561
   0.05699246  0.90006218  0.50032071
   0.11442108  0.79872767  0.50036953
   0.27902461  0.89729707  0.50021105
   0.55419268  0.00323051  0.49881675
   0.38561515  0.09948578  0.49874714
   0.44335071  0.99986248  0.49904436
   0.60704723  0.10467302  0.49871876
   0.54950146  0.20517046  0.49805833
   0.43703305  0.20230245  0.49755487
   0.60466072  0.30635388  0.49957171
   0.55954440  0.80123692  0.49900119
   0.39026931  0.89801828  0.49969106
   0.44543577  0.79547375  0.50005294
   0.61103382  0.90322831  0.49886651
   0.88770290  0.00299173  0.49998846
   0.71885445  0.10599651  0.49947055
   0.77613220  0.00504483  0.49940648
   0.94139578  0.10267282  0.50039848
   0.88478573  0.20390441  0.50058522
   0.71725661  0.30885378  0.50109975
   0.77320255  0.20685908  0.50039399
   0.93964022  0.30332808  0.50065183
   0.88500612  0.40541094  0.50109455
   0.77258875  0.41064044  0.50209464
   0.94417164  0.50302988  0.50094672
   0.88980708  0.60456609  0.50069256
   0.72462015  0.70732152  0.49942953
   0.77960991  0.60508660  0.50137465
   0.94701916  0.70265482  0.50015862
   0.89132989  0.80334213  0.49984216
   0.72260654  0.90497726  0.49892411
   0.78029972  0.80526164  0.49926820
   0.94545538  0.90261215  0.50004669
   0.27508810  0.49268259  0.49857742
   0.37900661  0.29599124  0.49601127
   0.55341667  0.40143826  0.50039962
   0.39654450  0.69652282  0.50143279
   0.61761241  0.70736636  0.49847816
   0.72119927  0.51135036  0.50397807
   0.41850610  0.44897231  0.49602226
   0.55875392  0.55377935  0.51094558
 
 position of ions in cartesian coordinates  (Angst):
   2.97953080 12.34027552 10.02510612
   0.69337541  1.24433714 10.02986998
   1.54914225 12.34753449 10.02998228
   3.54778171  1.24431473 10.00896064
   2.82041928  2.47041034 10.00557958
   0.69922455  3.71616118 10.02570258
   1.39592214  2.47875605 10.02347720
   3.53975793  3.68263554  9.97788352
   2.85398390  4.94055709  9.99485872
   0.77617711  6.19041913 10.02996013
   1.44220041  4.93846423 10.01834273
   3.00059405  7.35773938 10.02430768
   0.84979148  8.64644093 10.02974595
   1.55824543  7.40789048 10.02938632
   3.78951329  8.61262470 10.03948949
   3.02156515  9.84704558 10.03331315
   0.85382873 11.11118627 10.02904807
   1.57867128  9.86882592 10.03029262
   3.70669171 11.10677599 10.02822453
   7.12675598  0.11455517 10.00119151
   4.97293603  1.27939146  9.99883630
   5.83165570 12.39398168 10.00595099
   7.81912007  1.37299951  9.99964540
   7.09265768  2.60501761  9.98614074
   5.64700646  2.55459376  9.97534986
   7.81461998  3.86057610 10.01690518
   7.29903813  9.95931886 10.00562986
   5.13632961 11.13055242 10.01849300
   5.83194835  9.87296329 10.02599721
   7.97393045 11.22435149 10.00334039
  11.41250694  0.15622221 10.02674425
   9.25607680  1.40428231 10.01540814
   9.97902926  0.16662410 10.01438952
  12.11542026  1.39305083 10.03538374
  11.40108559  2.63425130 10.03886536
   9.26187129  3.90647722 10.04823226
   9.96756808  2.65577371 10.03434311
  12.11888951  3.86805937 10.04062890
  11.43005961  5.12002573 10.04925407
   9.98612864  5.16949960 10.06860619
  12.20302624  6.33214739 10.04674475
  11.51758264  7.57740561 10.04140353
   9.40816542  8.82287868 10.01515553
  10.10156847  7.56908695 10.05439173
  12.26550400  8.79506072 10.03114369
  11.56292641 10.02966974 10.02454503
   9.40792243 11.26085046 10.00518831
  10.13637750 10.03849606 10.01235425
  12.27134373 11.26148507 10.02906813
   3.60360826  6.11500417  9.99509827
   4.91347573  3.70255640  9.94413486
   7.16844972  5.02666446 10.03326571
   5.19084956  8.64578616 10.05326253
   8.03306006  8.80911709  9.99542372
   9.33882900  6.40496522 10.10612639
   5.44090676  5.59498388  9.94473593
   7.25689508  6.90663968 10.24480597
 


--------------------------------------------------------------------------------------------------------


 k-point  1 :   0.2500 0.2500-0.0000  plane waves:   80686
 k-point  2 :  -0.2500 0.2500 0.0000  plane waves:   80651

 maximum and minimum number of plane-waves per node :      2567     2492

 maximum number of plane-waves:     80686
 maximum index in each direction: 
   IXMAX=   23   IYMAX=   22   IZMAX=   36
   IXMIN=  -23   IYMIN=  -22   IZMIN=  -36


 parallel 3D FFT for wavefunctions:
    minimum data exchange during FFTs selected (reduces bandwidth)
 parallel 3D FFT for charge:
    minimum data exchange during FFTs selected (reduces bandwidth)


 FFT grid for exact exchange (Hartree Fock) 
  NGX = 72; NGY = 70; NGZ =112

 
 Radii for the augmentation spheres in the non-local exchange
 for species   1 augmentation radius   0.874 (default was   0.699)
       energy cutoff for augmentation   2000.0
 for species   2 augmentation radius   0.886 (default was   0.709)
       energy cutoff for augmentation   2000.0
 for species   3 augmentation radius   1.263 (default was   1.010)
       energy cutoff for augmentation   2000.0
 for species   4 augmentation radius   1.575 (default was   1.260)
       energy cutoff for augmentation   2000.0

 real space projection operators:
  total allocation   :       2778.60 KBytes
  max/ min on nodes  :        132.29         55.75

 Maximum index for augmentation-charges in exchange          150
  SETUP_FOCK is finished

 total amount of memory used by VASP MPI-rank0   162367. kBytes
=======================================================================

   base      :      30000. kBytes
   nonl-proj :       5314. kBytes
   fftplans  :      13455. kBytes
   grid      :      34560. kBytes
   one-center:         62. kBytes
   HF        :         23. kBytes
   nonlr-proj:       3047. kBytes
   wavefun   :      75906. kBytes
 
     INWAV:  cpu time    3.4714: real time    3.4720
 Broyden mixing: mesh for mixing (old mesh)
   NGX = 47   NGY = 45   NGZ = 73
  (NGX  =192   NGY  =180   NGZ  =300)
  gives a total of 154395 points

 charge density for first step will be calculated from the start-wavefunctions


--------------------------------------------------------------------------------------------------------


 Maximum index for augmentation-charges          698 (set IRDMAX)


--------------------------------------------------------------------------------------------------------


 initial charge from wavefunction
 First call to EWALD:  gamma=   0.121
 Maximum number of real-space cells 3x 3x 2
 Maximum number of reciprocal cells 2x 2x 4

    FEWALD:  cpu time    0.0037: real time    0.0037


--------------------------------------- Iteration      1(   1)  ---------------------------------------


    POTLOK:  cpu time    1.3128: real time    1.3188
    SETDIJ:  cpu time    2.0913: real time    2.0923
    TRIAL :  cpu time  501.9283: real time  502.0310
    CORREC:  cpu time    0.0021: real time    0.0023
    CHARGE:  cpu time    1.6043: real time    1.6044
    --------------------------------------------
      LOOP:  cpu time  506.9461: real time  507.0780

 eigenvalue-minimisations  :     0
 total energy-change (2. order) :-0.5982160E+03  (-0.4131864E+00)
 number of electron     238.0000001 magnetization      -1.9316652
 augmentation part       11.1827828 magnetization      -1.5117436

 DIPCOR: dipole corrections for dipol
 direction  3 min pos     1,
 dipolmoment          -0.000051     -0.000006     -0.108196 electrons x Angstroem
 Tr[quadrupol]     -6135.555161

 energy correction for charged system         0.000000 eV
 dipol+quadrupol energy correction            0.000335 eV
 added-field ion interaction          0.000000 eV  (added to PSCEN)


 Free energy of the ion-electron system (eV)
  ---------------------------------------------------
  alpha Z        PSCENC =        98.14745725
  Ewald energy   TEWEN  =     37756.63675064
  -Hartree energ DENC   =    -45829.74819739
  -exchange      EXHF   =       539.30374274
  -V(xc)+E(xc)   XCENC  =       584.40562856
  PAW double counting   =     25672.25070584   -25677.96216362
  entropy T*S    EENTRO =        -0.01659072
  eigenvalues    EBANDS =     -3117.08016755
  atomic energy  EATOM  =      9375.85010754
  ---------------------------------------------------
  free energy    TOTEN  =      -598.21599169 eV

  energy without entropy =     -598.19940097  energy(sigma->0) =     -598.20769633
  exchange ACFDT corr.  =        -0.01411442  see jH, gK, PRB 81, 115126


--------------------------------------------------------------------------------------------------------




--------------------------------------- Iteration      1(   2)  ---------------------------------------


    POTLOK:  cpu time    1.3225: real time    1.3226
    SETDIJ:  cpu time    2.0837: real time    2.0861
    TRIAL :  cpu time  502.8816: real time  502.9795
    CORREC:  cpu time    0.0022: real time    0.0025
    CHARGE:  cpu time    1.6056: real time    1.6060
    --------------------------------------------
      LOOP:  cpu time  507.8976: real time  507.9987

 eigenvalue-minimisations  :     0
 total energy-change (2. order) :-0.3385253E+00  (-0.3465088E+00)
 number of electron     238.0000001 magnetization      -1.9504396
 augmentation part       11.1294131 magnetization      -1.5678250

 DIPCOR: dipole corrections for dipol
 direction  3 min pos     1,
 dipolmoment          -0.000053     -0.000006     -0.112650 electrons x Angstroem
 Tr[quadrupol]     -6135.334164

 energy correction for charged system         0.000000 eV
 dipol+quadrupol energy correction            0.000363 eV
 added-field ion interaction          0.000000 eV  (added to PSCEN)


 Free energy of the ion-electron system (eV)
  ---------------------------------------------------
  alpha Z        PSCENC =        98.14748537
  Ewald energy   TEWEN  =     37756.63675064
  -Hartree energ DENC   =    -45813.13808724
  -exchange      EXHF   =       539.13174108
  -V(xc)+E(xc)   XCENC  =       584.06888069
  PAW double counting   =     25801.57041279   -25806.79956607
  entropy T*S    EENTRO =        -0.01313784
  eigenvalues    EBANDS =     -3134.00565107
  atomic energy  EATOM  =      9375.85010754
  ---------------------------------------------------
  free energy    TOTEN  =      -598.55451700 eV

  energy without entropy =     -598.54137916  energy(sigma->0) =     -598.54794808
  exchange ACFDT corr.  =        -0.01367337  see jH, gK, PRB 81, 115126


--------------------------------------------------------------------------------------------------------




--------------------------------------- Iteration      1(   3)  ---------------------------------------


    POTLOK:  cpu time    1.3237: real time    1.3237
    SETDIJ:  cpu time    2.0850: real time    2.0856
    TRIAL :  cpu time  502.5953: real time  502.6863
    CORREC:  cpu time    0.0022: real time    0.0025
    CHARGE:  cpu time    1.6054: real time    1.6054
    --------------------------------------------
      LOOP:  cpu time  507.6135: real time  507.7055

 eigenvalue-minimisations  :     0
 total energy-change (2. order) :-0.2648789E+00  (-0.1975370E+00)
 number of electron     238.0000001 magnetization      -1.9642641
 augmentation part       11.1144638 magnetization      -1.6134837

 DIPCOR: dipole corrections for dipol
 direction  3 min pos     1,
 dipolmoment          -0.000051     -0.000006     -0.108721 electrons x Angstroem
 Tr[quadrupol]     -6135.115881

 energy correction for charged system         0.000000 eV
 dipol+quadrupol energy correction            0.000338 eV
 added-field ion interaction          0.000000 eV  (added to PSCEN)


 Free energy of the ion-electron system (eV)
  ---------------------------------------------------
  alpha Z        PSCENC =        98.14746051
  Ewald energy   TEWEN  =     37756.63675064
  -Hartree energ DENC   =    -45795.33643992
  -exchange      EXHF   =       538.98511244
  -V(xc)+E(xc)   XCENC  =       583.70202977
  PAW double counting   =     25964.65554891   -25969.56503719
  entropy T*S    EENTRO =        -0.01051551
  eigenvalues    EBANDS =     -3151.88179072
  atomic energy  EATOM  =      9375.85010754
  ---------------------------------------------------
  free energy    TOTEN  =      -598.81939585 eV

  energy without entropy =     -598.80888034  energy(sigma->0) =     -598.81413809
  exchange ACFDT corr.  =        -0.00959982  see jH, gK, PRB 81, 115126


--------------------------------------------------------------------------------------------------------




--------------------------------------- Iteration      1(   4)  ---------------------------------------


    POTLOK:  cpu time    1.3256: real time    1.3257
    SETDIJ:  cpu time    2.0810: real time    2.0811
    TRIAL :  cpu time  503.3166: real time  503.4231
    CORREC:  cpu time    0.0021: real time    0.0024
    CHARGE:  cpu time    1.6012: real time    1.6014
    --------------------------------------------
      LOOP:  cpu time  508.3286: real time  508.4358

 eigenvalue-minimisations  :     0
 total energy-change (2. order) :-0.1527065E+00  (-0.1182947E+00)
 number of electron     238.0000001 magnetization      -1.9747012
 augmentation part       11.1216787 magnetization      -1.6454037

 DIPCOR: dipole corrections for dipol
 direction  3 min pos     1,
 dipolmoment          -0.000047     -0.000006     -0.099437 electrons x Angstroem
 Tr[quadrupol]     -6135.026952

 energy correction for charged system         0.000000 eV
 dipol+quadrupol energy correction            0.000283 eV
 added-field ion interaction          0.000000 eV  (added to PSCEN)


 Free energy of the ion-electron system (eV)
  ---------------------------------------------------
  alpha Z        PSCENC =        98.14740527
  Ewald energy   TEWEN  =     37756.63675064
  -Hartree energ DENC   =    -45786.32882971
  -exchange      EXHF   =       539.02702670
  -V(xc)+E(xc)   XCENC  =       583.53322918
  PAW double counting   =     26101.08530936   -26105.99629873
  entropy T*S    EENTRO =        -0.00849024
  eigenvalues    EBANDS =     -3160.91628714
  atomic energy  EATOM  =      9375.85010754
  ---------------------------------------------------
  free energy    TOTEN  =      -598.97210239 eV

  energy without entropy =     -598.96361215  energy(sigma->0) =     -598.96785727
  exchange ACFDT corr.  =        -0.00696585  see jH, gK, PRB 81, 115126


--------------------------------------------------------------------------------------------------------




--------------------------------------- Iteration      1(   5)  ---------------------------------------


    POTLOK:  cpu time    1.3252: real time    1.3252
    SETDIJ:  cpu time    2.0832: real time    2.0833
    TRIAL :  cpu time  501.9979: real time  502.1185
    CORREC:  cpu time    0.0021: real time    0.0024
    CHARGE:  cpu time    1.6036: real time    1.6040
    --------------------------------------------
      LOOP:  cpu time  507.0143: real time  507.1356

 eigenvalue-minimisations  :     0
 total energy-change (2. order) :-0.9640841E-01  (-0.8238719E-01)
 number of electron     238.0000001 magnetization      -1.9823812
 augmentation part       11.1319726 magnetization      -1.6670139

 DIPCOR: dipole corrections for dipol
 direction  3 min pos     1,
 dipolmoment          -0.000044     -0.000005     -0.092960 electrons x Angstroem
 Tr[quadrupol]     -6135.049377

 energy correction for charged system         0.000000 eV
 dipol+quadrupol energy correction            0.000247 eV
 added-field ion interaction          0.000000 eV  (added to PSCEN)


 Free energy of the ion-electron system (eV)
  ---------------------------------------------------
  alpha Z        PSCENC =        98.14736964
  Ewald energy   TEWEN  =     37756.63675064
  -Hartree energ DENC   =    -45786.19296611
  -exchange      EXHF   =       539.24566518
  -V(xc)+E(xc)   XCENC  =       583.58014855
  PAW double counting   =     26195.84279148   -26200.88832183
  entropy T*S    EENTRO =        -0.00683994
  eigenvalues    EBANDS =     -3161.28156564
  atomic energy  EATOM  =      9375.85010754
  ---------------------------------------------------
  free energy    TOTEN  =      -599.06851080 eV

  energy without entropy =     -599.06167086  energy(sigma->0) =     -599.06509083
  exchange ACFDT corr.  =        -0.00521543  see jH, gK, PRB 81, 115126


--------------------------------------------------------------------------------------------------------




--------------------------------------- Iteration      1(   6)  ---------------------------------------


    POTLOK:  cpu time    1.3233: real time    1.3249
    SETDIJ:  cpu time    2.0822: real time    2.0824
    TRIAL :  cpu time  502.1729: real time  502.3235
    CORREC:  cpu time    0.0020: real time    0.0023
    CHARGE:  cpu time    1.6045: real time    1.6049
    --------------------------------------------
      LOOP:  cpu time  507.1866: real time  507.3397

 eigenvalue-minimisations  :     0
 total energy-change (2. order) :-0.7076208E-01  (-0.6273928E-01)
 number of electron     238.0000001 magnetization      -1.9876409
 augmentation part       11.1386585 magnetization      -1.6822226

 DIPCOR: dipole corrections for dipol
 direction  3 min pos     1,
 dipolmoment          -0.000043     -0.000005     -0.091263 electrons x Angstroem
 Tr[quadrupol]     -6135.110028

 energy correction for charged system         0.000000 eV
 dipol+quadrupol energy correction            0.000238 eV
 added-field ion interaction          0.000000 eV  (added to PSCEN)


 Free energy of the ion-electron system (eV)
  ---------------------------------------------------
  alpha Z        PSCENC =        98.14736070
  Ewald energy   TEWEN  =     37756.63675064
  -Hartree energ DENC   =    -45790.07145552
  -exchange      EXHF   =       539.52787923
  -V(xc)+E(xc)   XCENC  =       583.73392527
  PAW double counting   =     26254.74269864   -26259.89142871
  entropy T*S    EENTRO =        -0.00554518
  eigenvalues    EBANDS =     -3157.80827075
  atomic energy  EATOM  =      9375.85010754
  ---------------------------------------------------
  free energy    TOTEN  =      -599.13927288 eV

  energy without entropy =     -599.13372770  energy(sigma->0) =     -599.13650029
  exchange ACFDT corr.  =        -0.00360876  see jH, gK, PRB 81, 115126


--------------------------------------------------------------------------------------------------------




--------------------------------------- Iteration      1(   7)  ---------------------------------------


    POTLOK:  cpu time    1.3239: real time    1.3240
    SETDIJ:  cpu time    2.0801: real time    2.0822
    TRIAL :  cpu time  502.3252: real time  502.4818
    CORREC:  cpu time    0.0020: real time    0.0023
    CHARGE:  cpu time    1.6020: real time    1.6021
    --------------------------------------------
      LOOP:  cpu time  507.3354: real time  507.4945

 eigenvalue-minimisations  :     0
 total energy-change (2. order) :-0.5542430E-01  (-0.4903361E-01)
 number of electron     238.0000001 magnetization      -1.9910067
 augmentation part       11.1430720 magnetization      -1.6937041

 DIPCOR: dipole corrections for dipol
 direction  3 min pos     1,
 dipolmoment          -0.000043     -0.000005     -0.091594 electrons x Angstroem
 Tr[quadrupol]     -6135.160390

 energy correction for charged system         0.000000 eV
 dipol+quadrupol energy correction            0.000240 eV
 added-field ion interaction          0.000000 eV  (added to PSCEN)


 Free energy of the ion-electron system (eV)
  ---------------------------------------------------
  alpha Z        PSCENC =        98.14736243
  Ewald energy   TEWEN  =     37756.63675064
  -Hartree energ DENC   =    -45794.00732846
  -exchange      EXHF   =       539.78033713
  -V(xc)+E(xc)   XCENC  =       583.89414813
  PAW double counting   =     26288.40532319   -26293.59467435
  entropy T*S    EENTRO =        -0.00459116
  eigenvalues    EBANDS =     -3154.30117825
  atomic energy  EATOM  =      9375.85010754
  ---------------------------------------------------
  free energy    TOTEN  =      -599.19469719 eV

  energy without entropy =     -599.19010602  energy(sigma->0) =     -599.19240160
  exchange ACFDT corr.  =        -0.00282704  see jH, gK, PRB 81, 115126


--------------------------------------------------------------------------------------------------------




--------------------------------------- Iteration      1(   8)  ---------------------------------------


    POTLOK:  cpu time    1.3239: real time    1.3240
    SETDIJ:  cpu time    2.0812: real time    2.0815
    TRIAL :  cpu time  502.0401: real time  502.1804
    CORREC:  cpu time    0.0021: real time    0.0024
    CHARGE:  cpu time    1.6006: real time    1.6011
    --------------------------------------------
      LOOP:  cpu time  507.0497: real time  507.1911

 eigenvalue-minimisations  :     0
 total energy-change (2. order) :-0.4429656E-01  (-0.4005249E-01)
 number of electron     238.0000001 magnetization      -1.9931046
 augmentation part       11.1475387 magnetization      -1.7029207

 DIPCOR: dipole corrections for dipol
 direction  3 min pos     1,
 dipolmoment          -0.000043     -0.000005     -0.091170 electrons x Angstroem
 Tr[quadrupol]     -6135.186388

 energy correction for charged system         0.000000 eV
 dipol+quadrupol energy correction            0.000238 eV
 added-field ion interaction          0.000000 eV  (added to PSCEN)


 Free energy of the ion-electron system (eV)
  ---------------------------------------------------
  alpha Z        PSCENC =        98.14736022
  Ewald energy   TEWEN  =     37756.63675064
  -Hartree energ DENC   =    -45796.38350267
  -exchange      EXHF   =       539.96578334
  -V(xc)+E(xc)   XCENC  =       584.01350304
  PAW double counting   =     26306.01397515   -26311.22156531
  entropy T*S    EENTRO =        -0.00390884
  eigenvalues    EBANDS =     -3152.25681454
  atomic energy  EATOM  =      9375.85010754
  ---------------------------------------------------
  free energy    TOTEN  =      -599.23899375 eV

  energy without entropy =     -599.23508490  energy(sigma->0) =     -599.23703932
  exchange ACFDT corr.  =        -0.00227378  see jH, gK, PRB 81, 115126


--------------------------------------------------------------------------------------------------------




--------------------------------------- Iteration      1(   9)  ---------------------------------------


    POTLOK:  cpu time    1.3206: real time    1.3209
    SETDIJ:  cpu time    2.0849: real time    2.0850
    TRIAL :  cpu time  502.7489: real time  503.3178
    CORREC:  cpu time    0.0021: real time    0.0023
    CHARGE:  cpu time    1.6039: real time    1.6040
    --------------------------------------------
      LOOP:  cpu time  507.7625: real time  508.3319

 eigenvalue-minimisations  :     0
 total energy-change (2. order) :-0.3698043E-01  (-0.3431363E-01)
 number of electron     238.0000001 magnetization      -1.9944470
 augmentation part       11.1523573 magnetization      -1.7106171

 DIPCOR: dipole corrections for dipol
 direction  3 min pos     1,
 dipolmoment          -0.000042     -0.000005     -0.089135 electrons x Angstroem
 Tr[quadrupol]     -6135.193578

 energy correction for charged system         0.000000 eV
 dipol+quadrupol energy correction            0.000227 eV
 added-field ion interaction          0.000000 eV  (added to PSCEN)


 Free energy of the ion-electron system (eV)
  ---------------------------------------------------
  alpha Z        PSCENC =        98.14734973
  Ewald energy   TEWEN  =     37756.63675064
  -Hartree energ DENC   =    -45797.25488178
  -exchange      EXHF   =       540.08970875
  -V(xc)+E(xc)   XCENC  =       584.08830718
  PAW double counting   =     26314.53284902   -26319.77129029
  entropy T*S    EENTRO =        -0.00341193
  eigenvalues    EBANDS =     -3151.59096612
  atomic energy  EATOM  =      9375.85010754
  ---------------------------------------------------
  free energy    TOTEN  =      -599.27597417 eV

  energy without entropy =     -599.27256225  energy(sigma->0) =     -599.27426821
  exchange ACFDT corr.  =        -0.00189156  see jH, gK, PRB 81, 115126


--------------------------------------------------------------------------------------------------------




--------------------------------------- Iteration      1(  10)  ---------------------------------------


    POTLOK:  cpu time    1.3189: real time    1.3190
    SETDIJ:  cpu time    2.0820: real time    2.0824
    TRIAL :  cpu time  501.5266: real time  501.6769
    CORREC:  cpu time    0.0020: real time    0.0023
    CHARGE:  cpu time    1.6013: real time    1.6017
    --------------------------------------------
      LOOP:  cpu time  506.5325: real time  506.6839

 eigenvalue-minimisations  :     0
 total energy-change (2. order) :-0.3209596E-01  (-0.3005540E-01)
 number of electron     238.0000001 magnetization      -1.9953624
 augmentation part       11.1567391 magnetization      -1.7171598

 DIPCOR: dipole corrections for dipol
 direction  3 min pos     1,
 dipolmoment          -0.000040     -0.000005     -0.086190 electrons x Angstroem
 Tr[quadrupol]     -6135.192288

 energy correction for charged system         0.000000 eV
 dipol+quadrupol energy correction            0.000212 eV
 added-field ion interaction          0.000000 eV  (added to PSCEN)


 Free energy of the ion-electron system (eV)
  ---------------------------------------------------
  alpha Z        PSCENC =        98.14733497
  Ewald energy   TEWEN  =     37756.63675064
  -Hartree energ DENC   =    -45797.28887153
  -exchange      EXHF   =       540.17494602
  -V(xc)+E(xc)   XCENC  =       584.13413506
  PAW double counting   =     26318.41637787   -26323.70169847
  entropy T*S    EENTRO =        -0.00303170
  eigenvalues    EBANDS =     -3151.67374031
  atomic energy  EATOM  =      9375.85010754
  ---------------------------------------------------
  free energy    TOTEN  =      -599.30807013 eV

  energy without entropy =     -599.30503844  energy(sigma->0) =     -599.30655428
  exchange ACFDT corr.  =        -0.00162098  see jH, gK, PRB 81, 115126


--------------------------------------------------------------------------------------------------------




--------------------------------------- Iteration      1(  11)  ---------------------------------------


    POTLOK:  cpu time    1.3207: real time    1.3208
    SETDIJ:  cpu time    2.0832: real time    2.0833
    TRIAL :  cpu time  502.1422: real time  502.2730
    CORREC:  cpu time    0.0021: real time    0.0024
    CHARGE:  cpu time    1.6114: real time    1.6115
    --------------------------------------------
      LOOP:  cpu time  507.1622: real time  507.2935

 eigenvalue-minimisations  :     0
 total energy-change (2. order) :-0.2832729E-01  (-0.2666582E-01)
 number of electron     238.0000001 magnetization      -1.9960285
 augmentation part       11.1601319 magnetization      -1.7227040

 DIPCOR: dipole corrections for dipol
 direction  3 min pos     1,
 dipolmoment          -0.000039     -0.000005     -0.083448 electrons x Angstroem
 Tr[quadrupol]     -6135.190321

 energy correction for charged system         0.000000 eV
 dipol+quadrupol energy correction            0.000199 eV
 added-field ion interaction          0.000000 eV  (added to PSCEN)


 Free energy of the ion-electron system (eV)
  ---------------------------------------------------
  alpha Z        PSCENC =        98.14732167
  Ewald energy   TEWEN  =     37756.63675064
  -Hartree energ DENC   =    -45797.11918481
  -exchange      EXHF   =       540.24359494
  -V(xc)+E(xc)   XCENC  =       584.16819198
  PAW double counting   =     26320.27872070   -26325.61401924
  entropy T*S    EENTRO =        -0.00272671
  eigenvalues    EBANDS =     -3151.92484915
  atomic energy  EATOM  =      9375.85010754
  ---------------------------------------------------
  free energy    TOTEN  =      -599.33639743 eV

  energy without entropy =     -599.33367072  energy(sigma->0) =     -599.33503408
  exchange ACFDT corr.  =        -0.00141850  see jH, gK, PRB 81, 115126


--------------------------------------------------------------------------------------------------------




--------------------------------------- Iteration      1(  12)  ---------------------------------------


    POTLOK:  cpu time    1.3174: real time    1.3174
    SETDIJ:  cpu time    2.0837: real time    2.0838
    TRIAL :  cpu time  502.2419: real time  502.3558
    CORREC:  cpu time    0.0020: real time    0.0023
    CHARGE:  cpu time    1.6084: real time    1.6084
    --------------------------------------------
      LOOP:  cpu time  507.2558: real time  507.3702

 eigenvalue-minimisations  :     0
 total energy-change (2. order) :-0.2528381E-01  (-0.2391249E-01)
 number of electron     238.0000001 magnetization      -1.9965310
 augmentation part       11.1626626 magnetization      -1.7272423

 DIPCOR: dipole corrections for dipol
 direction  3 min pos     1,
 dipolmoment          -0.000038     -0.000005     -0.081532 electrons x Angstroem
 Tr[quadrupol]     -6135.190781

 energy correction for charged system         0.000000 eV
 dipol+quadrupol energy correction            0.000190 eV
 added-field ion interaction          0.000000 eV  (added to PSCEN)


 Free energy of the ion-electron system (eV)
  ---------------------------------------------------
  alpha Z        PSCENC =        98.14731264
  Ewald energy   TEWEN  =     37756.63675064
  -Hartree energ DENC   =    -45797.07058367
  -exchange      EXHF   =       540.30812340
  -V(xc)+E(xc)   XCENC  =       584.20041280
  PAW double counting   =     26321.68547230   -26327.06308303
  entropy T*S    EENTRO =        -0.00247654
  eigenvalues    EBANDS =     -3152.05346716
  atomic energy  EATOM  =      9375.85010754
  ---------------------------------------------------
  free energy    TOTEN  =      -599.36168124 eV

  energy without entropy =     -599.35920470  energy(sigma->0) =     -599.36044297
  exchange ACFDT corr.  =        -0.00125893  see jH, gK, PRB 81, 115126


--------------------------------------------------------------------------------------------------------




--------------------------------------- Iteration      1(  13)  ---------------------------------------


    POTLOK:  cpu time    1.3167: real time    1.3170
    SETDIJ:  cpu time    2.0792: real time    2.0793
    TRIAL :  cpu time  501.8744: real time  501.9796
    CORREC:  cpu time    0.0021: real time    0.0023
    CHARGE:  cpu time    1.6035: real time    1.6035
    --------------------------------------------
      LOOP:  cpu time  506.8780: real time  506.9838

 eigenvalue-minimisations  :     0
 total energy-change (2. order) :-0.2275833E-01  (-0.2153858E-01)
 number of electron     238.0000001 magnetization      -1.9969131
 augmentation part       11.1647988 magnetization      -1.7306886

 DIPCOR: dipole corrections for dipol
 direction  3 min pos     1,
 dipolmoment          -0.000038     -0.000005     -0.080347 electrons x Angstroem
 Tr[quadrupol]     -6135.193615

 energy correction for charged system         0.000000 eV
 dipol+quadrupol energy correction            0.000185 eV
 added-field ion interaction          0.000000 eV  (added to PSCEN)


 Free energy of the ion-electron system (eV)
  ---------------------------------------------------
  alpha Z        PSCENC =        98.14730715
  Ewald energy   TEWEN  =     37756.63675064
  -Hartree energ DENC   =    -45797.19208769
  -exchange      EXHF   =       540.37152647
  -V(xc)+E(xc)   XCENC  =       584.23290865
  PAW double counting   =     26323.31055165   -26328.72123740
  entropy T*S    EENTRO =        -0.00227129
  eigenvalues    EBANDS =     -3152.01779004
  atomic energy  EATOM  =      9375.85010754
  ---------------------------------------------------
  free energy    TOTEN  =      -599.38443957 eV

  energy without entropy =     -599.38216828  energy(sigma->0) =     -599.38330392
  exchange ACFDT corr.  =        -0.00112999  see jH, gK, PRB 81, 115126


--------------------------------------------------------------------------------------------------------




--------------------------------------- Iteration      1(  14)  ---------------------------------------


    POTLOK:  cpu time    1.3151: real time    1.3152
    SETDIJ:  cpu time    2.0790: real time    2.0800
    TRIAL :  cpu time  502.5490: real time  502.6694
    CORREC:  cpu time    0.0020: real time    0.0023
    CHARGE:  cpu time    1.6000: real time    1.6000
    --------------------------------------------
      LOOP:  cpu time  507.5476: real time  507.6692

 eigenvalue-minimisations  :     0
 total energy-change (2. order) :-0.2054053E-01  (-0.1940874E-01)
 number of electron     238.0000001 magnetization      -1.9972032
 augmentation part       11.1668829 magnetization      -1.7330280

 DIPCOR: dipole corrections for dipol
 direction  3 min pos     1,
 dipolmoment          -0.000037     -0.000005     -0.079484 electrons x Angstroem
 Tr[quadrupol]     -6135.197828

 energy correction for charged system         0.000000 eV
 dipol+quadrupol energy correction            0.000181 eV
 added-field ion interaction          0.000000 eV  (added to PSCEN)


 Free energy of the ion-electron system (eV)
  ---------------------------------------------------
  alpha Z        PSCENC =        98.14730321
  Ewald energy   TEWEN  =     37756.63675064
  -Hartree energ DENC   =    -45797.41758163
  -exchange      EXHF   =       540.43247442
  -V(xc)+E(xc)   XCENC  =       584.26415048
  PAW double counting   =     26325.21179167   -26330.65033071
  entropy T*S    EENTRO =        -0.00210402
  eigenvalues    EBANDS =     -3151.87737442
  atomic energy  EATOM  =      9375.85010754
  ---------------------------------------------------
  free energy    TOTEN  =      -599.40498010 eV

  energy without entropy =     -599.40287608  energy(sigma->0) =     -599.40392809
  exchange ACFDT corr.  =        -0.00102567  see jH, gK, PRB 81, 115126


--------------------------------------------------------------------------------------------------------




--------------------------------------- Iteration      1(  15)  ---------------------------------------


    POTLOK:  cpu time    1.3160: real time    1.3161
    SETDIJ:  cpu time    2.0797: real time    2.0801
    TRIAL :  cpu time  502.0208: real time  502.1410
    CORREC:  cpu time    0.0020: real time    0.0023
    CHARGE:  cpu time    1.6013: real time    1.6079
    --------------------------------------------
      LOOP:  cpu time  507.0224: real time  507.1501

 eigenvalue-minimisations  :     0
 total energy-change (2. order) :-0.1853253E-01  (-0.1746910E-01)
 number of electron     238.0000001 magnetization      -1.9974247
 augmentation part       11.1689731 magnetization      -1.7343782

 DIPCOR: dipole corrections for dipol
 direction  3 min pos     1,
 dipolmoment          -0.000037     -0.000005     -0.078638 electrons x Angstroem
 Tr[quadrupol]     -6135.202511

 energy correction for charged system         0.000000 eV
 dipol+quadrupol energy correction            0.000177 eV
 added-field ion interaction          0.000000 eV  (added to PSCEN)


 Free energy of the ion-electron system (eV)
  ---------------------------------------------------
  alpha Z        PSCENC =        98.14729938
  Ewald energy   TEWEN  =     37756.63675064
  -Hartree energ DENC   =    -45797.67047373
  -exchange      EXHF   =       540.48922682
  -V(xc)+E(xc)   XCENC  =       584.29234295
  PAW double counting   =     26327.30671325   -26332.77133670
  entropy T*S    EENTRO =        -0.00196794
  eigenvalues    EBANDS =     -3151.70203877
  atomic energy  EATOM  =      9375.85010754
  ---------------------------------------------------
  free energy    TOTEN  =      -599.42351263 eV

  energy without entropy =     -599.42154469  energy(sigma->0) =     -599.42252866
  exchange ACFDT corr.  =        -0.00094176  see jH, gK, PRB 81, 115126


--------------------------------------------------------------------------------------------------------




--------------------------------------- Iteration      1(  16)  ---------------------------------------


    POTLOK:  cpu time    1.3138: real time    1.3139
    SETDIJ:  cpu time    2.0812: real time    2.0814
    TRIAL :  cpu time  502.2918: real time  502.3765
    CORREC:  cpu time    0.0021: real time    0.0024
    CHARGE:  cpu time    1.6010: real time    1.6011
    --------------------------------------------
      LOOP:  cpu time  507.2921: real time  507.3774

 eigenvalue-minimisations  :     0
 total energy-change (2. order) :-0.1669232E-01  (-0.1568544E-01)
 number of electron     238.0000001 magnetization      -1.9975967
 augmentation part       11.1709610 magnetization      -1.7349295

 DIPCOR: dipole corrections for dipol
 direction  3 min pos     1,
 dipolmoment          -0.000036     -0.000004     -0.077763 electrons x Angstroem
 Tr[quadrupol]     -6135.207221

 energy correction for charged system         0.000000 eV
 dipol+quadrupol energy correction            0.000173 eV
 added-field ion interaction          0.000000 eV  (added to PSCEN)


 Free energy of the ion-electron system (eV)
  ---------------------------------------------------
  alpha Z        PSCENC =        98.14729547
  Ewald energy   TEWEN  =     37756.63675064
  -Hartree energ DENC   =    -45797.91283446
  -exchange      EXHF   =       540.54129520
  -V(xc)+E(xc)   XCENC  =       584.31696037
  PAW double counting   =     26329.50406796   -26334.99368288
  entropy T*S    EENTRO =        -0.00185657
  eigenvalues    EBANDS =     -3151.52819686
  atomic energy  EATOM  =      9375.85010754
  ---------------------------------------------------
  free energy    TOTEN  =      -599.44020495 eV

  energy without entropy =     -599.43834838  energy(sigma->0) =     -599.43927666
  exchange ACFDT corr.  =        -0.00087433  see jH, gK, PRB 81, 115126


--------------------------------------------------------------------------------------------------------




--------------------------------------- Iteration      1(  17)  ---------------------------------------


    POTLOK:  cpu time    1.3118: real time    1.3119
    SETDIJ:  cpu time    2.0822: real time    2.0822
    TRIAL :  cpu time  501.9739: real time  502.0329
    CORREC:  cpu time    0.0019: real time    0.0022
    CHARGE:  cpu time    1.6001: real time    1.6002
    --------------------------------------------
      LOOP:  cpu time  506.9724: real time  507.0320

 eigenvalue-minimisations  :     0
 total energy-change (2. order) :-0.1499382E-01  (-0.1404731E-01)
 number of electron     238.0000001 magnetization      -1.9977338
 augmentation part       11.1727385 magnetization      -1.7348590

 DIPCOR: dipole corrections for dipol
 direction  3 min pos     1,
 dipolmoment          -0.000036     -0.000004     -0.076981 electrons x Angstroem
 Tr[quadrupol]     -6135.211887

 energy correction for charged system         0.000000 eV
 dipol+quadrupol energy correction            0.000169 eV
 added-field ion interaction          0.000000 eV  (added to PSCEN)


 Free energy of the ion-electron system (eV)
  ---------------------------------------------------
  alpha Z        PSCENC =        98.14729201
  Ewald energy   TEWEN  =     37756.63675064
  -Hartree energ DENC   =    -45798.14493576
  -exchange      EXHF   =       540.58925982
  -V(xc)+E(xc)   XCENC  =       584.33859920
  PAW double counting   =     26331.69446001   -26337.20701808
  entropy T*S    EENTRO =        -0.00176460
  eigenvalues    EBANDS =     -3151.35785759
  atomic energy  EATOM  =      9375.85010754
  ---------------------------------------------------
  free energy    TOTEN  =      -599.45519877 eV

  energy without entropy =     -599.45343417  energy(sigma->0) =     -599.45431647
  exchange ACFDT corr.  =        -0.00081972  see jH, gK, PRB 81, 115126


--------------------------------------------------------------------------------------------------------




--------------------------------------- Iteration      1(  18)  ---------------------------------------


    POTLOK:  cpu time    1.3148: real time    1.3148
    SETDIJ:  cpu time    2.0843: real time    2.0843
    TRIAL :  cpu time  501.2458: real time  501.3380
    CORREC:  cpu time    0.0019: real time    0.0022
    CHARGE:  cpu time    1.6021: real time    1.6022
    --------------------------------------------
      LOOP:  cpu time  506.2517: real time  506.3445

 eigenvalue-minimisations  :     0
 total energy-change (2. order) :-0.1343230E-01  (-0.1254811E-01)
 number of electron     238.0000001 magnetization      -1.9978455
 augmentation part       11.1742880 magnetization      -1.7343004

 DIPCOR: dipole corrections for dipol
 direction  3 min pos     1,
 dipolmoment          -0.000036     -0.000004     -0.076402 electrons x Angstroem
 Tr[quadrupol]     -6135.216533

 energy correction for charged system         0.000000 eV
 dipol+quadrupol energy correction            0.000167 eV
 added-field ion interaction          0.000000 eV  (added to PSCEN)


 Free energy of the ion-electron system (eV)
  ---------------------------------------------------
  alpha Z        PSCENC =        98.14728948
  Ewald energy   TEWEN  =     37756.63675064
  -Hartree energ DENC   =    -45798.37835916
  -exchange      EXHF   =       540.63383714
  -V(xc)+E(xc)   XCENC  =       584.35809097
  PAW double counting   =     26333.75008687   -26339.28266859
  entropy T*S    EENTRO =        -0.00168816
  eigenvalues    EBANDS =     -3151.18200135
  atomic energy  EATOM  =      9375.85010754
  ---------------------------------------------------
  free energy    TOTEN  =      -599.46863107 eV

  energy without entropy =     -599.46694291  energy(sigma->0) =     -599.46778699
[...]
  E(xc)    -693.12894  -693.39109  -705.55642    -1.00291    -0.16831    -0.16291
  Local  -93706.66013-93570.04752 95547.24487   154.70364    -8.66352   -64.53950
  n-local  -188.55626  -186.28285  -184.60871     1.90550    -0.17898    -0.04272
  augment    26.39748    27.14164    27.29122     1.98403     0.37297     0.44337
  Kinetic  3573.57816  3559.84072  4071.99107    13.89292     0.72125     1.81728
  Fock     -288.47447  -289.94082  -263.88518    -1.88735    -0.26457    -0.36230
  -------------------------------------------------------------------------------------
  Total     -41.00006   -42.55604    -0.39226     2.00691     0.21663     0.34601
  in kB     -20.67732   -21.46204    -0.19783     1.01213     0.10925     0.17450
  external pressure =      -14.11 kB  Pullay stress =        0.00 kB


 VOLUME and BASIS-vectors are now :
 -----------------------------------------------------------------------------
  energy-cutoff  :      500.00
  volume of cell :     3176.88
      direct lattice vectors                 reciprocal lattice vectors
    12.850493388  0.133762691  0.006201795     0.077826559 -0.000818328 -0.000036443
     0.129708460 12.335800178  0.000887791    -0.000843907  0.081073741 -0.000004258
     0.009397494  0.001150571 20.042935009    -0.000024044 -0.000003338  0.049892904

  length of vectors
    12.851191043 12.336482120 20.042937245     0.077830870  0.081078133  0.049892910


 FORCES acting on ions:
    Electron-Ion                     Ewald-Force                    Non-Local-Force
 -----------------------------------------------------------------------------------------------
   -.626E+00 0.940E+01 -.214E+01   0.236E+00 -.935E+01 0.214E+01   0.380E+00 -.402E-01 -.134E-01
   0.363E+01 0.524E+01 -.298E+01   -.370E+01 -.535E+01 0.299E+01   0.673E-01 0.102E+00 -.102E-01
   -.743E+00 0.195E+01 -.253E+01   0.590E+00 -.197E+01 0.252E+01   0.979E-01 -.137E-01 0.377E-02
   0.942E+00 0.117E+02 0.478E+00   -.106E+01 -.120E+02 -.521E+00   0.102E+00 0.273E+00 0.367E-01
   0.109E+02 0.114E+02 0.544E+00   -.113E+02 -.115E+02 -.526E+00   0.441E+00 0.754E-01 -.264E-01
   0.858E+01 -.164E+01 -.138E+01   -.883E+01 0.129E+01 0.135E+01   0.266E+00 0.320E+00 0.223E-01
   0.564E+01 0.327E+01 -.230E+01   -.604E+01 -.330E+01 0.231E+01   0.372E+00 0.385E-02 -.182E-01
   0.319E+02 0.351E+01 0.750E+01   -.351E+02 -.388E+01 -.743E+01   0.313E+01 0.289E+00 -.711E-01
   0.183E+02 0.951E+01 0.430E+01   -.202E+02 -.125E+02 -.427E+01   0.186E+01 0.286E+01 -.252E-01
   0.451E+01 -.110E+02 -.188E+01   -.472E+01 0.111E+02 0.186E+01   0.105E+00 -.199E+00 0.122E-01
   0.129E+02 0.211E+01 -.411E+00   -.134E+02 -.248E+01 0.430E+00   0.498E+00 0.332E+00 -.213E-01
   -.148E+02 -.435E+02 -.264E+01   0.132E+02 0.467E+02 0.269E+01   0.142E+01 -.312E+01 -.564E-01
   -.186E+01 -.498E+00 -.135E+01   0.184E+01 0.807E+00 0.136E+01   0.189E-01 -.219E+00 -.127E-01
   -.316E+01 -.739E+01 -.208E+01   0.316E+01 0.782E+01 0.207E+01   0.146E+00 -.341E+00 0.774E-02
   0.189E+00 0.202E+02 -.440E+01   -.294E+01 -.201E+02 0.437E+01   0.264E+01 -.314E-01 0.370E-01
   -.252E+01 0.101E+02 -.231E+01   0.215E+01 -.104E+02 0.230E+01   0.353E+00 0.298E+00 0.122E-01
   -.115E+01 0.688E+01 -.165E+01   0.121E+01 -.679E+01 0.165E+01   -.622E-01 -.241E-01 -.455E-02
   -.781E+01 -.260E+00 -.131E+01   0.752E+01 0.253E+00 0.129E+01   0.249E+00 -.287E-01 0.183E-01
   -.701E+00 0.651E+01 -.219E+01   0.470E+00 -.632E+01 0.221E+01   0.224E+00 -.158E+00 -.273E-01
   -.171E+01 0.171E+00 0.317E+01   0.172E+01 0.268E+00 -.318E+01   0.709E-01 -.411E+00 0.457E-02
   -.740E+01 0.105E+02 0.169E+01   0.764E+01 -.109E+02 -.165E+01   -.224E+00 0.158E+00 -.400E-01
   -.121E+01 0.120E+02 0.194E+01   0.159E+01 -.118E+02 -.195E+01   -.400E+00 -.110E+00 0.678E-02
   -.332E+01 0.139E+01 0.408E+01   0.321E+01 -.119E+01 -.407E+01   0.647E-01 -.228E+00 -.116E-01
   -.829E+01 -.167E+01 0.902E+01   0.863E+01 0.214E+01 -.913E+01   -.279E+00 -.464E+00 0.116E+00
   -.322E+02 0.295E+02 0.744E+01   0.344E+02 -.319E+02 -.736E+01   -.232E+01 0.269E+01 -.854E-01
   -.231E+02 0.201E+02 0.316E+01   0.243E+02 -.225E+02 -.316E+01   -.147E+01 0.259E+01 0.123E-01
   0.346E+02 0.169E+01 0.512E+01   -.363E+02 0.131E+01 -.518E+01   0.207E+01 -.318E+01 0.690E-01
   -.733E+01 0.552E+01 0.629E+00   0.752E+01 -.509E+01 -.651E+00   -.178E+00 -.442E+00 0.204E-01
   -.220E+02 0.101E+02 -.253E-01   0.225E+02 -.782E+01 -.106E+00   -.750E+00 -.242E+01 0.123E+00
   0.533E+01 0.343E+01 0.395E+01   -.552E+01 -.253E+01 -.394E+01   0.160E+00 -.799E+00 -.945E-02
   0.340E+01 0.159E+01 -.418E+00   -.335E+01 -.159E+01 0.424E+00   -.325E-01 -.719E-02 -.683E-02
   0.759E+00 -.368E+01 0.147E+01   -.714E+00 0.379E+01 -.147E+01   -.656E-02 -.164E+00 -.514E-02
   0.157E+01 -.304E+01 0.208E+01   -.137E+01 0.358E+01 -.207E+01   -.167E+00 -.454E+00 -.490E-02
   0.383E+01 -.180E+01 -.227E+01   -.393E+01 0.177E+01 0.226E+01   0.973E-01 0.299E-01 0.905E-03
   0.574E+01 0.254E+00 -.256E+01   -.588E+01 -.385E+00 0.256E+01   0.117E+00 0.964E-01 -.630E-02
   0.721E+00 -.101E+02 -.570E+01   -.117E+01 0.100E+02 0.580E+01   0.539E+00 0.178E-01 -.108E+00
   0.423E+01 -.249E+01 -.183E+01   -.443E+01 0.279E+01 0.181E+01   0.187E+00 -.250E+00 0.159E-01
   0.669E+01 -.772E+00 -.198E+01   -.680E+01 0.563E+00 0.197E+01   0.840E-01 0.243E+00 0.909E-02
   0.685E+01 0.166E+01 -.216E+01   -.680E+01 -.198E+01 0.212E+01   0.153E-01 0.243E+00 0.461E-01
   0.101E+02 0.188E+02 -.696E+01   -.912E+01 -.218E+02 0.675E+01   -.108E+01 0.308E+01 0.220E+00
   0.144E+01 0.320E+01 -.341E+01   -.129E+01 -.335E+01 0.348E+01   -.572E-01 0.999E-01 -.678E-01
   -.779E+00 -.422E+01 -.458E+00   0.108E+01 0.457E+01 0.435E+00   -.399E+00 -.262E+00 0.320E-01
   -.665E+01 0.145E+02 0.590E+01   0.103E+02 -.144E+02 -.598E+01   -.378E+01 -.140E-01 0.102E+00
   0.918E+01 -.116E+02 -.306E+01   -.733E+01 0.134E+02 0.294E+01   -.176E+01 -.204E+01 0.122E+00
   -.366E+01 0.148E+01 0.933E+00   0.384E+01 -.125E+01 -.966E+00   -.183E+00 -.194E+00 0.363E-01
   0.873E+00 0.288E+00 0.109E+01   -.303E+00 -.237E+00 -.106E+01   -.526E+00 -.439E-01 -.303E-01
   0.353E+01 -.315E+01 0.506E+01   -.334E+01 0.359E+01 -.510E+01   -.185E+00 -.498E+00 0.496E-01
   -.241E+01 -.758E+00 0.419E+01   0.313E+01 0.112E+01 -.418E+01   -.678E+00 -.322E+00 -.543E-03
   -.177E+01 -.160E+01 -.276E+00   0.181E+01 0.176E+01 0.269E+00   -.452E-01 -.154E+00 0.640E-02
   -.525E+02 -.468E+02 0.563E+01   0.710E+02 0.463E+02 -.597E+01   -.178E+02 0.649E+00 0.362E+00
   -.382E+02 -.253E+02 0.260E+02   0.494E+02 0.445E+02 -.275E+02   -.105E+02 -.186E+02 0.134E+01
   -.294E+02 -.823E+02 -.406E+01   0.256E+02 0.968E+02 0.446E+01   0.397E+01 -.138E+02 -.285E+00
   -.714E+02 0.113E+03 -.120E+02   0.845E+02 -.135E+03 0.124E+02   -.123E+02 0.211E+02 -.429E+00
   0.709E+02 0.103E+03 0.186E+02   -.812E+02 -.122E+03 -.199E+02   0.972E+01 0.183E+02 0.124E+01
   0.108E+03 -.488E+01 -.269E+02   -.130E+03 0.523E+01 0.280E+02   0.215E+02 -.369E+00 -.106E+01
   -.428E+02 -.149E+03 0.494E+02   0.424E+02 0.145E+03 -.490E+02   -.133E+01 0.363E+01 -.729E+00
   0.216E+02 -.464E+02 -.705E+02   -.183E+02 0.463E+02 0.691E+02   -.213E+01 0.227E+01 0.186E+01
 -----------------------------------------------------------------------------------------------
   0.792E+01 -.105E+02 -.291E+01   0.171E-12 -.213E-13 0.000E+00   -.759E+01 0.103E+02 0.278E+01
 
 
 POSITION                                       TOTAL-FORCE (eV/Angst)
 -----------------------------------------------------------------------------------
      2.97953     12.34028     10.02511         0.009677      0.012080     -0.006939
      0.69338      1.24434     10.02987        -0.001834      0.002394     -0.006341
      1.54914     12.34753     10.02998        -0.051086     -0.040169     -0.005204
      3.54778      1.24431     10.00896        -0.010559      0.008413     -0.004202
      2.82042      2.47041     10.00558        -0.010732      0.051779     -0.011009
      0.69922      3.71616     10.02570         0.033090     -0.023287     -0.005639
      1.39592      2.47876     10.02348        -0.008329     -0.025305     -0.008580
      3.53976      3.68264      9.97788         0.123304     -0.064514     -0.000630
      2.85398      4.94056      9.99486         0.148702      0.037771      0.001690
      0.77618      6.19042     10.02996        -0.094865     -0.102021     -0.001516
      1.44220      4.93846     10.01834         0.009059     -0.014057     -0.003283
      3.00059      7.35774     10.02431        -0.097940     -0.147942     -0.008407
      0.84979      8.64644     10.02975         0.007645      0.079689      0.001051
      1.55825      7.40789     10.02939         0.154933      0.080706     -0.002276
      3.78951      8.61262     10.03949         0.039949      0.108293      0.004528
      3.02157      9.84705     10.03331         0.000611     -0.025762      0.001279
      0.85383     11.11119     10.02905        -0.004316      0.067768     -0.003254
      1.57867      9.86883     10.03029        -0.032461     -0.043257     -0.001969
      3.70669     11.10678     10.02822         0.008778      0.019683     -0.007500
      7.12676      0.11456     10.00119         0.084059     -0.000873     -0.003033
      4.97294      1.27939      9.99884         0.001895     -0.176916     -0.001499
      5.83166     12.39398     10.00595        -0.045041      0.084766     -0.000172
      7.81912      1.37300      9.99965        -0.041262     -0.038764     -0.000115
      7.09266      2.60502      9.98614         0.054959     -0.023803      0.012780
      5.64701      2.55459      9.97535        -0.272075      0.375868     -0.006861
      7.81462      3.86058     10.01691        -0.297913      0.396633      0.013245
      7.29904      9.95932     10.00563         0.472373     -0.363215      0.012011
      5.13633     11.13055     10.01849        -0.000907     -0.046390     -0.000163
      5.83195      9.87296     10.02600        -0.362440     -0.274524     -0.001138
      7.97393     11.22435     10.00334        -0.019455      0.063705      0.001530
     11.41251      0.15622     10.02674         0.010943      0.002268     -0.001729
      9.25608      1.40428     10.01541         0.038193     -0.060199      0.001530
      9.97903      0.16662     10.01439         0.021764      0.056736      0.002433
     12.11542      1.39305     10.03538         0.000924     -0.011524     -0.004985
     11.40109      2.63425     10.03887        -0.010063     -0.026518     -0.003124
      9.26187      3.90648     10.04823         0.111838     -0.071575     -0.019909
      9.96757      2.65577     10.03434        -0.000030      0.036477      0.000004
     12.11889      3.86806     10.04063        -0.019712      0.045647     -0.002943
     11.43006      5.12003     10.04925         0.076146     -0.062145      0.014241
      9.98613      5.16950     10.06861        -0.201955      0.268098      0.026647
     12.20303      6.33215     10.04674         0.085483     -0.040654     -0.002526
     11.51758      7.57741     10.04140        -0.123078      0.070923      0.010969
      9.40817      8.82288     10.01516        -0.364401      0.071245      0.022232
     10.10157      7.56909     10.05439        -0.016232     -0.339435      0.014297
     12.26550      8.79506     10.03114        -0.014506      0.025590      0.005765
     11.56293     10.02967     10.02455         0.018866      0.005760     -0.001107
      9.40792     11.26085     10.00519        -0.002007     -0.087520      0.008010
     10.13638     10.03850     10.01235         0.000188      0.024269      0.005209
     12.27134     11.26149     10.02907        -0.006151     -0.013142     -0.000162
      3.60361      6.11500      9.99510        -0.757662      0.204968      0.054350
      4.91348      3.70256      9.94413        -0.220624     -1.033817      0.028018
      7.16845      5.02666     10.03327         0.554697     -0.558462      0.079587
      5.19085      8.64579     10.05326        -0.184807      0.675810     -0.036020
      8.03306      8.80912      9.99542         0.315615      0.850761      0.029011
      9.33883      6.40497     10.10613         0.797777     -0.056876     -0.099684
      5.44091      5.59498      9.94474        -0.907806     -0.540425     -0.200151
      7.25690      6.90664     10.24481         0.998779      0.584991      0.111652
 -----------------------------------------------------------------------------------
    total drift:                               -0.004810     -0.003955      0.003672


--------------------------------------------------------------------------------------------------------



  FREE ENERGIE OF THE ION-ELECTRON SYSTEM (eV)
  ---------------------------------------------------
  free  energy   TOTEN  =      -599.58162277 eV

  energy  without entropy=     -599.58031434  energy(sigma->0) =     -599.58096856
 


--------------------------------------------------------------------------------------------------------


    POTLOK:  cpu time    3.3786: real time    3.3788


--------------------------------------------------------------------------------------------------------


 stress matrix after NEB project (eV)
    -41.00006      2.00738      0.34601
      2.00691    -42.55604      0.21925
      0.34360      0.21663     -0.39226
  FORCES: max atom, RMS     1.162859    0.386931
  FORCE total and by dimension    2.921263    1.033817
  Stress total and by dimension   59.165570   42.556035
 writing wavefunctions
     LOOP+:  cpu time35095.3325: real time35101.3288
    4ORBIT:  cpu time    0.0000: real time    0.0000
 


 total charge     
 
# of ion       s       p       d       tot
------------------------------------------
    1        0.864   1.776   0.000   2.640
    2        0.867   1.772   0.000   2.639
    3        0.866   1.776   0.000   2.642
    4        0.870   1.770   0.000   2.640
    5        0.870   1.791   0.000   2.661
    6        0.864   1.777   0.000   2.641
    7        0.869   1.784   0.000   2.652
    8        0.864   1.769   0.000   2.633
    9        0.861   1.748   0.000   2.608
   10        0.865   1.767   0.000   2.632
   11        0.871   1.785   0.000   2.657
   12        0.847   1.696   0.000   2.543
   13        0.865   1.769   0.000   2.634
   14        0.860   1.753   0.000   2.613
   15        0.840   1.681   0.000   2.522
   16        0.860   1.740   0.000   2.600
   17        0.865   1.764   0.000   2.629
   18        0.861   1.760   0.000   2.621
   19        0.867   1.751   0.000   2.618
   20        0.863   1.779   0.000   2.642
   21        0.866   1.771   0.000   2.637
   22        0.863   1.767   0.000   2.630
   23        0.864   1.746   0.000   2.610
   24        0.857   1.765   0.000   2.622
   25        0.858   1.723   0.000   2.581
   26        0.863   1.725   0.000   2.588
   27        0.859   1.722   0.000   2.581
   28        0.862   1.760   0.000   2.622
   29        0.853   1.705   0.000   2.557
   30        0.865   1.771   0.000   2.637
   31        0.865   1.772   0.000   2.636
   32        0.860   1.755   0.000   2.616
   33        0.864   1.766   0.000   2.629
   34        0.867   1.769   0.000   2.635
   35        0.864   1.764   0.000   2.629
   36        0.854   1.754   0.000   2.608
   37        0.862   1.746   0.000   2.608
   38        0.865   1.766   0.000   2.631
   39        0.862   1.756   0.000   2.618
   40        0.850   1.690   0.000   2.540
   41        0.866   1.769   0.000   2.636
   42        0.869   1.788   0.000   2.656
   43        0.864   1.755   0.000   2.620
   44        0.862   1.744   0.000   2.606
   45        0.864   1.771   0.000   2.636
   46        0.867   1.784   0.000   2.652
   47        0.868   1.764   0.000   2.632
   48        0.870   1.785   0.000   2.655
   49        0.866   1.769   0.000   2.634
   50        1.224   2.688   0.000   3.912
   51        1.240   2.687   0.000   3.927
   52        1.258   2.633   0.000   3.891
   53        1.231   2.586   0.000   3.817
   54        1.240   2.695   0.000   3.935
   55        1.232   2.635   0.000   3.867
   56        0.500   0.614   6.231   7.345
   57        0.485   0.691   2.628   3.803
--------------------------------------------------
tot         50.689 103.359   8.859 162.906
 


 magnetization (x)
 
# of ion       s       p       d       tot
------------------------------------------
    1       -0.000  -0.004   0.000  -0.004
    2       -0.000   0.000   0.000   0.000
    3        0.000  -0.000   0.000   0.000
    4        0.000   0.002   0.000   0.002
    5       -0.000  -0.001   0.000  -0.001
    6       -0.000  -0.004   0.000  -0.004
    7        0.000   0.003   0.000   0.003
    8        0.000   0.001   0.000   0.002
    9       -0.002  -0.005   0.000  -0.007
   10        0.000   0.006   0.000   0.006
   11        0.000   0.004   0.000   0.004
   12       -0.001  -0.007   0.000  -0.009
   13       -0.000  -0.004   0.000  -0.005
   14       -0.000   0.001   0.000   0.001
   15        0.000   0.004   0.000   0.004
   16       -0.000  -0.001   0.000  -0.002
   17       -0.000   0.000   0.000   0.000
   18        0.000   0.002   0.000   0.002
   19        0.000   0.001   0.000   0.001
   20       -0.000  -0.004   0.000  -0.004
   21       -0.001  -0.002   0.000  -0.003
   22       -0.000  -0.003   0.000  -0.003
   23        0.000   0.003   0.000   0.003
   24       -0.002  -0.009   0.000  -0.010
   25        0.001   0.012   0.000   0.012
   26        0.001   0.011   0.000   0.012
   27        0.000  -0.003   0.000  -0.002
   28       -0.000   0.002   0.000   0.001
   29       -0.001  -0.007   0.000  -0.007
   30        0.000   0.002   0.000   0.002
   31       -0.000  -0.002   0.000  -0.002
   32       -0.000  -0.006   0.000  -0.006
   33        0.000  -0.001   0.000  -0.001
   34        0.000   0.001   0.000   0.001
   35       -0.000   0.000   0.000   0.000
   36       -0.001  -0.009   0.000  -0.010
   37        0.000   0.005   0.000   0.005
   38       -0.000  -0.001   0.000  -0.001
   39       -0.000  -0.000   0.000  -0.000
   40        0.001   0.008   0.000   0.008
   41        0.000   0.007   0.000   0.007
   42       -0.000  -0.000   0.000  -0.000
   43        0.000   0.003   0.000   0.003
   44       -0.000  -0.002   0.000  -0.002
   45       -0.000  -0.005   0.000  -0.005
   46        0.000   0.001   0.000   0.001
   47       -0.000  -0.002   0.000  -0.002
   48       -0.000  -0.001   0.000  -0.001
   49        0.000   0.002   0.000   0.002
   50        0.006   0.044   0.000   0.050
   51       -0.010  -0.036   0.000  -0.046
   52       -0.005  -0.042   0.000  -0.046
   53       -0.006  -0.035   0.000  -0.041
   54       -0.003  -0.030   0.000  -0.032
   55       -0.002  -0.004   0.000  -0.006
   56       -0.057  -0.035  -2.936  -3.028
   57        0.069   0.029   1.071   1.170
--------------------------------------------------
tot         -0.011  -0.112  -1.865  -1.988
 

 total amount of memory used by VASP MPI-rank0   188557. kBytes
=======================================================================

   base      :      30000. kBytes
   nonl-proj :       5314. kBytes
   fftplans  :      13455. kBytes
   grid      :      34560. kBytes
   one-center:         62. kBytes
   HF        :         23. kBytes
   nonlr-proj:      29237. kBytes
   wavefun   :      75906. kBytes
 
  
  
 General timing and accounting informations for this job:
 ========================================================
  
                  Total CPU time used (sec):    35182.168
                            User time (sec):    35132.684
                          System time (sec):       49.482
                         Elapsed time (sec):    35189.294
  
                   Maximum memory used (kb):      420552.
                   Average memory used (kb):           0.
  
                          Minor page faults:       267362
                          Major page faults:            2
                 Voluntary context switches:         1332
