 vasp.5.4.4.18Apr17-6-g9f103f2a35 (build Feb 25 2019 10:51:38) complex          
  
 executed on             LinuxIFC date 2021.07.24  11:09:29
 running on   32 total cores
 distrk:  each k-point on   32 cores,    1 groups
 distr:  one band on NCORES_PER_BAND=  32 cores,    1 groups


--------------------------------------------------------------------------------------------------------


 INCAR:
 POTCAR:    PAW_PBE C 08Apr2002                   
 POTCAR:    PAW_PBE N 08Apr2002                   
 POTCAR:    PAW_PBE Fe 06Sep2000                  
 POTCAR:    PAW_PBE Cr 06Sep2000                  

 ----------------------------------------------------------------------------- 
|                                                                             |
|           W    W    AA    RRRRR   N    N  II  N    N   GGGG   !!!           |
|           W    W   A  A   R    R  NN   N  II  NN   N  G    G  !!!           |
|           W    W  A    A  R    R  N N  N  II  N N  N  G       !!!           |
|           W WW W  AAAAAA  RRRRR   N  N N  II  N  N N  G  GGG   !            |
|           WW  WW  A    A  R   R   N   NN  II  N   NN  G    G                |
|           W    W  A    A  R    R  N    N  II  N    N   GGGG   !!!           |
|                                                                             |
|      For optimal performance we recommend to set                            |
|        NCORE= 4 - approx SQRT( number of cores)                             |
|      NCORE specifies how many cores store one orbital (NPAR=cpu/NCORE).     |
|      This setting can  greatly improve the performance of VASP for DFT.     |
|      The default,   NCORE=1            might be grossly inefficient         |
|      on modern multi-core architectures or massively parallel machines.     |
|      Do your own testing !!!!                                               |
|      Unfortunately you need to use the default for GW and RPA calculations. |
|      (for HF NCORE is supported but not extensively tested yet)             |
|                                                                             |
 ----------------------------------------------------------------------------- 

 POTCAR:    PAW_PBE C 08Apr2002                   
   VRHFIN =C: s2p2                                                              
   LEXCH  = PE                                                                  
   EATOM  =   147.1560 eV,   10.8157 Ry                                         
                                                                                
   TITEL  = PAW_PBE C 08Apr2002                                                 
   LULTRA =        F    use ultrasoft PP ?                                      
   IUNSCR =        1    unscreen: 0-lin 1-nonlin 2-no                           
   RPACOR =    1.200    partial core radius                                     
   POMASS =   12.011; ZVAL   =    4.000    mass and valenz                      
   RCORE  =    1.500    outmost cutoff radius                                   
   RWIGS  =    1.630; RWIGS  =    0.863    wigner-seitz radius (au A)           
   ENMAX  =  400.000; ENMIN  =  300.000 eV                                      
   ICORE  =        2    local potential                                         
   LCOR   =        T    correct aug charges                                     
   LPAW   =        T    paw PP                                                  
   EAUG   =  644.873                                                            
   DEXC   =    0.000                                                            
   RMAX   =    1.529    core radius for proj-oper                               
   RAUG   =    1.300    factor for augmentation sphere                          
   RDEP   =    1.501    radius for radial grids                                 
   RDEPT  =    1.300    core radius for aug-charge                              
                                                                                
   Atomic configuration                                                         
    4 entries                                                                   
     n  l   j            E        occ.                                          
     1  0  0.50      -273.3789   2.0000                                         
     2  0  0.50       -13.7508   2.0000                                         
     2  1  0.50        -5.2854   2.0000                                         
     3  2  1.50        -5.4423   0.0000                                         
   Description                                                                  
     l       E           TYP  RCUT    TYP  RCUT                                 
     0    -13.7508458     23  1.200                                             
     0     -8.2022199     23  1.200                                             
     1     -5.2854383     23  1.500                                             
     1     34.0145650     23  1.500                                             
     2     -5.4423304      7  1.500                                             
  local pseudopotential read in
  partial core-charges read in
  partial kinetic energy density read in
  atomic valenz-charges read in
  non local Contribution for L=           0  read in
    real space projection operators read in
  non local Contribution for L=           0  read in
    real space projection operators read in
  non local Contribution for L=           1  read in
    real space projection operators read in
  non local Contribution for L=           1  read in
    real space projection operators read in
    PAW grid and wavefunctions read in
 
   number of l-projection  operators is LMAX  =           4
   number of lm-projection operators is LMMAX =           8
 
 POTCAR:    PAW_PBE N 08Apr2002                   
   VRHFIN =N: s2p3                                                              
   LEXCH  = PE                                                                  
   EATOM  =   264.5486 eV,   19.4438 Ry                                         
                                                                                
   TITEL  = PAW_PBE N 08Apr2002                                                 
   LULTRA =        F    use ultrasoft PP ?                                      
   IUNSCR =        1    unscreen: 0-lin 1-nonlin 2-no                           
   RPACOR =    1.200    partial core radius                                     
   POMASS =   14.001; ZVAL   =    5.000    mass and valenz                      
   RCORE  =    1.500    outmost cutoff radius                                   
   RWIGS  =    1.400; RWIGS  =    0.741    wigner-seitz radius (au A)           
   ENMAX  =  400.000; ENMIN  =  300.000 eV                                      
   ICORE  =        2    local potential                                         
   LCOR   =        T    correct aug charges                                     
   LPAW   =        T    paw PP                                                  
   EAUG   =  627.112                                                            
   DEXC   =    0.000                                                            
   RMAX   =    1.529    core radius for proj-oper                               
   RAUG   =    1.300    factor for augmentation sphere                          
   RDEP   =    1.514    radius for radial grids                                 
   RDEPT  =    1.338    core radius for aug-charge                              
                                                                                
   Atomic configuration                                                         
    4 entries                                                                   
     n  l   j            E        occ.                                          
     1  0  0.50      -384.7179   2.0000                                         
     2  0  0.50       -18.5828   2.0000                                         
     2  1  0.50        -7.0898   3.0000                                         
     3  2  1.50        -6.8029   0.0000                                         
   Description                                                                  
     l       E           TYP  RCUT    TYP  RCUT                                 
     0    -18.5828119     23  1.200                                             
     0    -13.5018863     23  1.200                                             
     1     -7.0897853     23  1.500                                             
     1      9.5240782     23  1.500                                             
     2     -6.8029130      7  1.500                                             
  local pseudopotential read in
  partial core-charges read in
  partial kinetic energy density read in
  atomic valenz-charges read in
  non local Contribution for L=           0  read in
    real space projection operators read in
  non local Contribution for L=           0  read in
    real space projection operators read in
  non local Contribution for L=           1  read in
    real space projection operators read in
  non local Contribution for L=           1  read in
    real space projection operators read in
    PAW grid and wavefunctions read in
 
   number of l-projection  operators is LMAX  =           4
   number of lm-projection operators is LMMAX =           8
 
 POTCAR:    PAW_PBE Fe 06Sep2000                  
   VRHFIN =Fe:  d7 s1                                                           
   LEXCH  = PE                                                                  
   EATOM  =   594.3153 eV,   43.6809 Ry                                         
                                                                                
   TITEL  = PAW_PBE Fe 06Sep2000                                                
   LULTRA =        F    use ultrasoft PP ?                                      
   IUNSCR =        1    unscreen: 0-lin 1-nonlin 2-no                           
   RPACOR =    2.000    partial core radius                                     
   POMASS =   55.847; ZVAL   =    8.000    mass and valenz                      
   RCORE  =    2.300    outmost cutoff radius                                   
   RWIGS  =    2.460; RWIGS  =    1.302    wigner-seitz radius (au A)           
   ENMAX  =  267.882; ENMIN  =  200.911 eV                                      
   RCLOC  =    1.701    cutoff for local pot                                    
   LCOR   =        T    correct aug charges                                     
   LPAW   =        T    paw PP                                                  
   EAUG   =  511.368                                                            
   DEXC   =    0.000                                                            
   RMAX   =    2.356    core radius for proj-oper                               
   RAUG   =    1.300    factor for augmentation sphere                          
   RDEP   =    2.442    radius for radial grids                                 
   RDEPT  =    1.890    core radius for aug-charge                              
                                                                                
   Atomic configuration                                                         
    9 entries                                                                   
     n  l   j            E        occ.                                          
     1  0  0.50     -6993.8440   2.0000                                         
     2  0  0.50      -814.6047   2.0000                                         
     2  1  1.50      -693.3689   6.0000                                         
     3  0  0.50       -89.4732   2.0000                                         
     3  1  1.50       -55.6373   6.0000                                         
     3  2  2.50        -3.8151   7.0000                                         
     4  0  0.50        -4.2551   1.0000                                         
     4  1  1.50        -3.4015   0.0000                                         
     4  3  2.50        -1.3606   0.0000                                         
   Description                                                                  
     l       E           TYP  RCUT    TYP  RCUT                                 
     2     -3.8151135     23  2.300                                             
     2     -5.1756961     23  2.300                                             
     0     -4.2550963     23  2.300                                             
     0      7.2035603     23  2.300                                             
     1     -2.7211652     23  2.300                                             
     1     18.4316424     23  2.300                                             
  local pseudopotential read in
  partial core-charges read in
  partial kinetic energy density read in
  atomic valenz-charges read in
  non local Contribution for L=           2  read in
    real space projection operators read in
  non local Contribution for L=           2  read in
    real space projection operators read in
  non local Contribution for L=           0  read in
    real space projection operators read in
  non local Contribution for L=           0  read in
    real space projection operators read in
  non local Contribution for L=           1  read in
    real space projection operators read in
  non local Contribution for L=           1  read in
    real space projection operators read in
    PAW grid and wavefunctions read in
 
   number of l-projection  operators is LMAX  =           6
   number of lm-projection operators is LMMAX =          18
 
 POTCAR:    PAW_PBE Cr 06Sep2000                  
   VRHFIN =Cr : d5 s1                                                           
   LEXCH  = PE                                                                  
   EATOM  =   276.8859 eV,   20.3505 Ry                                         
                                                                                
   TITEL  = PAW_PBE Cr 06Sep2000                                                
   LULTRA =        F    use ultrasoft PP ?                                      
   IUNSCR =        1    unscreen: 0-lin 1-nonlin 2-no                           
   RPACOR =    2.080    partial core radius                                     
   POMASS =   51.996; ZVAL   =    6.000    mass and valenz                      
   RCORE  =    2.500    outmost cutoff radius                                   
   RWIGS  =    2.500; RWIGS  =    1.323    wigner-seitz radius (au A)           
   ENMAX  =  227.080; ENMIN  =  170.310 eV                                      
   RCLOC  =    1.721    cutoff for local pot                                    
   LCOR   =        T    correct aug charges                                     
   LPAW   =        T    paw PP                                                  
   EAUG   =  402.108                                                            
   DEXC   =    0.000                                                            
   RMAX   =    2.552    core radius for proj-oper                               
   RAUG   =    1.300    factor for augmentation sphere                          
   RDEP   =    2.609    radius for radial grids                                 
   RDEPT  =    2.065    core radius for aug-charge                              
                                                                                
   Atomic configuration                                                         
    9 entries                                                                   
     n  l   j            E        occ.                                          
     1  0  0.50     -5880.4963   2.0000                                         
     2  0  0.50      -667.0865   2.0000                                         
     2  1  1.50      -560.6250   6.0000                                         
     3  0  0.50       -73.9860   2.0000                                         
     3  1  1.50       -45.4378   6.0000                                         
     3  2  2.50        -2.9137   5.0000                                         
     4  0  0.50        -4.0071   1.0000                                         
     4  1  0.50        -1.2789   0.0000                                         
     4  3  2.50        -1.3606   0.0000                                         
   Description                                                                  
     l       E           TYP  RCUT    TYP  RCUT                                 
     2     -2.9136677     23  2.500                                             
     2     -4.2742503     23  2.500                                             
     0     -4.0071322     23  2.500                                             
     0      9.4498801     23  2.500                                             
     1     -5.4423304     23  2.500                                             
     1     27.2116520     23  2.500                                             
  local pseudopotential read in
  partial core-charges read in
  partial kinetic energy density read in
  atomic valenz-charges read in
  non local Contribution for L=           2  read in
    real space projection operators read in
  non local Contribution for L=           2  read in
    real space projection operators read in
  non local Contribution for L=           0  read in
    real space projection operators read in
  non local Contribution for L=           0  read in
    real space projection operators read in
  non local Contribution for L=           1  read in
    real space projection operators read in
  non local Contribution for L=           1  read in
    real space projection operators read in
    PAW grid and wavefunctions read in
 
   number of l-projection  operators is LMAX  =           6
   number of lm-projection operators is LMMAX =          18
 

 ----------------------------------------------------------------------------- 
|                                                                             |
|  ADVICE TO THIS USER RUNNING 'VASP/VAMP'   (HEAR YOUR MASTER'S VOICE ...):  |
|                                                                             |
|      You have a (more or less) 'large supercell' and for larger cells       |
|      it might be more efficient to use real space projection opertators     |
|      So try LREAL= Auto  in the INCAR   file.                               |
|      Mind:          For very  accurate calculation you might also keep the  |
|      reciprocal projection scheme          (i.e. LREAL=.FALSE.)             |
|                                                                             |
 ----------------------------------------------------------------------------- 

  PAW_PBE C 08Apr2002                   :
 energy of atom  1       EATOM= -147.1560
 kinetic energy error for atom=    0.0076 (will be added to EATOM!!)
  PAW_PBE N 08Apr2002                   :
 energy of atom  2       EATOM= -264.5486
 kinetic energy error for atom=    0.0138 (will be added to EATOM!!)
  PAW_PBE Fe 06Sep2000                  :
 energy of atom  3       EATOM= -594.3153
 kinetic energy error for atom=    0.0026 (will be added to EATOM!!)
  PAW_PBE Cr 06Sep2000                  :
 energy of atom  4       EATOM= -276.8859
 kinetic energy error for atom=    0.0012 (will be added to EATOM!!)
 
 
 POSCAR:  C  N Fe Cr                             
  positions in cartesian coordinates
  No initial velocities read in
 exchange correlation table for  LEXCH =        8
   RHO(1)=    0.500       N(1)  =     2000
   RHO(2)=  100.500       N(2)  =     4000

 VTST: version 3.2, (02/03/18)

 CHAIN: initializing optimizer
 
 OPT: Using VASP Conjugate-Gradient optimizer
 CHAIN: Read ICHAIN            0
 
 POSCAR:  C  N Fe Cr                             
  positions in cartesian coordinates
  No initial velocities read in
 


--------------------------------------------------------------------------------------------------------


 ion  position               nearest neighbor table
   1  0.222  0.998  0.500-   3 1.42  17 1.42   4 1.43
   2  0.054  0.098  0.500-  34 1.42   7 1.42   3 1.44
   3  0.110  0.998  0.500-   1 1.42  15 1.43   2 1.44
   4  0.277  0.097  0.500-  19 1.42   5 1.42   1 1.43
   5  0.219  0.194  0.500-   8 1.41   7 1.41   4 1.42
   6  0.054  0.298  0.500-  38 1.42  10 1.44   7 1.44
   7  0.108  0.196  0.500-   5 1.41   2 1.42   6 1.44
   8  0.274  0.291  0.500-  53 1.39  51 1.40   5 1.41  57 2.51
   9  0.062  0.498  0.500-  10 1.45  42 1.45  12 1.46
  10  0.113  0.395  0.500-  53 1.36   6 1.44   9 1.45
  11  0.060  0.698  0.500-  46 1.43  16 1.43  12 1.46
  12  0.120  0.599  0.500-  54 1.40  11 1.46   9 1.46
  13  0.279  0.701  0.500-  54 1.39  14 1.42  25 1.43
  14  0.224  0.800  0.500-  16 1.42  13 1.42  17 1.43
  15  0.056  0.899  0.500-  50 1.41   3 1.43  16 1.44
  16  0.112  0.799  0.500-  14 1.42  11 1.43  15 1.44
  17  0.278  0.899  0.500-  28 1.41   1 1.42  14 1.43
  18  0.556  0.000  0.500-  20 1.41  30 1.43  21 1.43
  19  0.388  0.099  0.500-   4 1.42  20 1.43  23 1.44
  20  0.444  1.000  0.500-  18 1.41  19 1.43  28 1.44
  21  0.610  0.099  0.500-  32 1.42  22 1.42  18 1.43
  22  0.555  0.198  0.500-  55 1.38  21 1.42  23 1.44
  23  0.442  0.200  0.500-  51 1.44  22 1.44  19 1.44
  24  0.558  0.607  0.500-  56 1.39  26 1.42  52 1.43  58 2.51
  25  0.392  0.700  0.500-  13 1.43  52 1.43  29 1.44
  26  0.613  0.705  0.500-  44 1.42  27 1.42  24 1.42
  27  0.557  0.803  0.500-  29 1.42  26 1.42  30 1.43
  28  0.390  0.900  0.500-  17 1.41  29 1.43  20 1.44
  29  0.445  0.801  0.500-  27 1.42  28 1.43  25 1.44
  30  0.612  0.901  0.500-  48 1.42  18 1.43  27 1.43
  31  0.889  1.000  0.500-  33 1.41  34 1.43  50 1.44
  32  0.722  0.100  0.500-  21 1.42  37 1.44  33 1.44
  33  0.777  0.000  0.500-  31 1.41  48 1.43  32 1.44
  34  0.942  0.099  0.500-   2 1.42  31 1.43  35 1.44
  35  0.887  0.200  0.500-  37 1.42  38 1.44  34 1.44
  36  0.716  0.300  0.500-  55 1.38  37 1.45  41 1.47
  37  0.775  0.201  0.500-  35 1.42  32 1.44  36 1.45
  38  0.942  0.300  0.500-   6 1.42  35 1.44  39 1.44
  39  0.887  0.401  0.500-  38 1.44  41 1.45  42 1.46
  40  0.722  0.505  0.500-  56 1.35  45 1.43  41 1.45
  41  0.773  0.401  0.500-  39 1.45  40 1.45  36 1.47
  42  0.947  0.499  0.500-  43 1.44   9 1.45  39 1.46
  43  0.892  0.600  0.500-  45 1.42  46 1.44  42 1.44
  44  0.725  0.702  0.500-  26 1.42  49 1.42  45 1.44
  45  0.780  0.602  0.500-  43 1.42  40 1.43  44 1.44
  46  0.948  0.699  0.500-  11 1.43  43 1.44  47 1.45
  47  0.892  0.799  0.500-  49 1.42  50 1.43  46 1.45
  48  0.723  0.901  0.500-  30 1.42  33 1.43  49 1.44
  49  0.780  0.801  0.500-  47 1.42  44 1.42  48 1.44
  50  0.945  0.899  0.500-  15 1.41  47 1.43  31 1.44
  51  0.384  0.299  0.501-   8 1.40  23 1.44  58 2.10  57 2.41
  52  0.445  0.599  0.500-  24 1.43  25 1.43  57 2.09  58 2.40
  53  0.220  0.388  0.500-  10 1.36   8 1.39  57 1.83
  54  0.230  0.603  0.500-  13 1.39  12 1.40  57 1.96
  55  0.607  0.295  0.500-  36 1.38  22 1.38  58 2.03
  56  0.615  0.513  0.500-  40 1.35  24 1.39  58 1.90
  57  0.329  0.483  0.500-  53 1.83  54 1.96  52 2.09  58 2.33  51 2.41   8 2.51
  58  0.501  0.416  0.501-  56 1.90  55 2.03  51 2.10  57 2.33  52 2.40  24 2.51
 
  LATTYP: Found a triclinic cell.
 ALAT       =    34.4312578754
 B/A-ratio  =     0.3648283791
 C/A-ratio  =     0.5784772683
 COS(alpha) =     0.0000331613
 COS(beta)  =     0.5787569976
 COS(gamma) =     0.7273703668
  
  Lattice vectors:
  
 A1 = (  12.5546387088, -25.1232558301, -19.9176952047)
 A2 = (  -0.0785310895, -12.5612545201,   0.0000000000)
 A3 = (   0.0138008878,  -0.0007467899, -19.9176952047)


Analysis of symmetry for initial positions (statically):
=====================================================================
 Subroutine PRICEL returns:
 Original cell was already a primitive cell.
 

 Routine SETGRP: Setting up the symmetry group for a 
 triclinic supercell.


 Subroutine GETGRP returns: Found  1 space group operations
 (whereof  1 operations were pure point group operations)
 out of a pool of  2 trial point group operations.


The static configuration has the point symmetry C_1 .


Analysis of symmetry for dynamics (positions and initial velocities):
=====================================================================
 Subroutine PRICEL returns:
 Original cell was already a primitive cell.
 

 Routine SETGRP: Setting up the symmetry group for a 
 triclinic supercell.


 Subroutine GETGRP returns: Found  1 space group operations
 (whereof  1 operations were pure point group operations)
 out of a pool of  2 trial point group operations.


The dynamic configuration has the point symmetry C_1 .


Analysis of structural, dynamic, and magnetic symmetry:
=====================================================================
 Subroutine PRICEL returns:
 Original cell was already a primitive cell.
 

 Routine SETGRP: Setting up the symmetry group for a 
 triclinic supercell.


 Subroutine GETGRP returns: Found  1 space group operations
 (whereof  1 operations were pure point group operations)
 out of a pool of  2 trial point group operations.


The magnetic configuration has the point symmetry C_1 .


 Subroutine INISYM returns: Found  1 space group operations
 (whereof  1 operations are pure point group operations),
 and found     1 'primitive' translations

 
 
 KPOINTS: KPOINTS created by Atomic Simulation Env

Automatic generation of k-mesh.
Space group operators:
 irot       det(A)        alpha          n_x          n_y          n_z        tau_x        tau_y        tau_z
    1     1.000000     0.000000     1.000000     0.000000     0.000000     0.000000     0.000000     0.000000
 
 Subroutine IBZKPT returns following result:
 ===========================================
 
 Found      2 irreducible k-points:
 
 Following reciprocal coordinates:
            Coordinates               Weight
  0.250000  0.250000 -0.000000      2.000000
 -0.250000  0.250000  0.000000      2.000000
 
 Following cartesian coordinates:
            Coordinates               Weight
  0.019688  0.019779  0.000013      2.000000
 -0.019688  0.020026 -0.000014      2.000000
 
 
 Subroutine IBZKPT_HF returns following result:
 ==============================================
 
 Found      4 k-points in 1st BZ
 the following      4 k-points will be used (e.g. in the exchange kernel)
 Following reciprocal coordinates:   # in IRBZ
  0.250000  0.250000 -0.000000    0.25000000   1 t-inv F
 -0.250000  0.250000  0.000000    0.25000000   2 t-inv F
 -0.250000 -0.250000  0.000000    0.25000000   1 t-inv T
  0.250000 -0.250000  0.000000    0.25000000   2 t-inv T


--------------------------------------------------------------------------------------------------------




 Dimension of arrays:
   k-points           NKPTS =      2   k-points in BZ     NKDIM =      4   number of bands    NBANDS=    155
   number of dos      NEDOS =    301   number of ions     NIONS =     58
   non local maximal  LDIM  =      6   non local SUM 2l+1 LMDIM =     18
   total plane-waves  NPLWV = ******
   max r-space proj   IRMAX =      1   max aug-charges    IRDMAX=  22427
   dimension x,y,z NGX =    96 NGY =   96 NGZ =  150
   dimension x,y,z NGXF=   192 NGYF=  192 NGZF=  300
   support grid    NGXF=   192 NGYF=  192 NGZF=  300
   ions per type =              52   4   1   1
   NGX,Y,Z   is equivalent  to a cutoff of  12.57, 12.71, 12.52 a.u.
   NGXF,Y,Z  is equivalent  to a cutoff of  25.14, 25.41, 25.04 a.u.

 SYSTEM =  unknown system                          
 POSCAR =   C  N Fe Cr                             

 Startparameter for this run:
   NWRITE =      2    write-flag & timer
   PREC   = accura    normal or accurate (medium, high low for compatibility)
   ISTART =      1    job   : 0-new  1-cont  2-samecut
   ICHARG =      0    charge: 1-file 2-atom 10-const
   ISPIN  =      2    spin polarized calculation?
   LNONCOLLINEAR =      F non collinear calculations
   LSORBIT =      F    spin-orbit coupling
   INIWAV =      1    electr: 0-lowe 1-rand  2-diag
   LASPH  =      T    aspherical Exc in radial PAW
   METAGGA=      F    non-selfconsistent MetaGGA calc.

 Electronic Relaxation 1
   ENCUT  =  500.0 eV  36.75 Ry    6.06 a.u.  23.15 22.90 36.31*2*pi/ulx,y,z
   ENINI  =  500.0     initial cutoff
   ENAUG  =  644.9 eV  augmentation charge cutoff
   NELM   =    250;   NELMIN=  2; NELMDL=  0     # of ELM steps 
   EDIFF  = 0.1E-03   stopping-criterion for ELM
   LREAL  =      F    real-space projection
   NLSPLINE    = F    spline interpolate recip. space projectors
   LCOMPAT=      F    compatible to vasp.4.4
   GGA_COMPAT  = T    GGA compatible to vasp.4.4-vasp.4.6
   LMAXPAW     = -100 max onsite density
   LMAXMIX     =    2 max onsite mixed and CHGCAR
   VOSKOWN=      0    Vosko Wilk Nusair interpolation
   ROPT   =    0.00000   0.00000   0.00000   0.00000
 Ionic relaxation
   EDIFFG = -.3E-01   stopping-criterion for IOM
   NSW    =      0    number of steps for IOM
   NBLOCK =      1;   KBLOCK =      1    inner block; outer block 
   IBRION =     -1    ionic relax: 0-MD 1-quasi-New 2-CG
   NFREE  =      1    steps in history (QN), initial steepest desc. (CG)
   ISIF   =      2    stress and relaxation
   IWAVPR =     10    prediction:  0-non 1-charg 2-wave 3-comb
   ISYM   =      3    0-nonsym 1-usesym 2-fastsym
   LCORR  =      T    Harris-Foulkes like correction to forces

   POTIM  = 0.5000    time-step for ionic-motion
   TEIN   =    0.0    initial temperature
   TEBEG  =    0.0;   TEEND  =   0.0 temperature during run
   SMASS  =  -3.00    Nose mass-parameter (am)
   estimated Nose-frequenzy (Omega)   =  0.10E-29 period in steps =****** mass=  -0.368E-26a.u.
   SCALEE = 1.0000    scale energy and forces
   NPACO  =    256;   APACO  = 16.0  distance and # of slots for P.C.
   PSTRESS=    0.0 pullay stress

  Mass of Ions in am
   POMASS =  12.01 14.00 55.85 52.00
  Ionic Valenz
   ZVAL   =   4.00  5.00  8.00  6.00
  Atomic Wigner-Seitz radii
   RWIGS  =  -1.00 -1.00 -1.00 -1.00
  virtual crystal weights 
   VCA    =   1.00  1.00  1.00  1.00
   NELECT =     242.0000    total number of electrons
   NUPDOWN=      -1.0000    fix difference up-down

 DOS related values:
   EMIN   =  10.00;   EMAX   =-10.00  energy-range for DOS
   EFERMI =   0.00
   ISMEAR =     0;   SIGMA  =   0.10  broadening in eV -4-tet -1-fermi 0-gaus

 Electronic relaxation 2 (details)
   IALGO  =     53    algorithm
   LDIAG  =      T    sub-space diagonalisation (order eigenvalues)
   LSUBROT=      F    optimize rotation matrix (better conditioning)
   TURBO    =      0    0=normal 1=particle mesh
   IRESTART =      0    0=no restart 2=restart with 2 vectors
   NREBOOT  =      0    no. of reboots
   NMIN     =      0    reboot dimension
   EREF     =   0.00    reference energy to select bands
   IMIX   =      4    mixing-type and parameters
     AMIX     =   0.40;   BMIX     =  1.00
     AMIX_MAG =   1.60;   BMIX_MAG =  1.00
     AMIN     =   0.10
     WC   =   100.;   INIMIX=   1;  MIXPRE=   1;  MAXMIX= -45

 Intra band minimization:
   WEIMIN = 0.0000     energy-eigenvalue tresh-hold
   EBREAK =  0.16E-06  absolut break condition
   DEPER  =   0.30     relativ break condition  

   TIME   =   0.20     timestep for ELM

  volume/ion in A,a.u.               =      54.77       369.63
  Fermi-wavevector in a.u.,A,eV,Ry     =   0.693977  1.311427  6.552628  0.481605
  Thomas-Fermi vector in A             =   1.776342
 
 Write flags
   LWAVE        =      T    write WAVECAR
   LDOWNSAMPLE  =      F    k-point downsampling of WAVECAR
   LCHARG       =      T    write CHGCAR
   LVTOT        =      F    write LOCPOT, total local potential
   LVHAR        =      F    write LOCPOT, Hartree potential only
   LELF         =      F    write electronic localiz. function (ELF)
   LORBIT       =     11    0 simple, 1 ext, 2 COOP (PROOUT), +10 PAW based schemes


 Dipole corrections
   LMONO  =      F    monopole corrections only (constant potential shift)
   LDIPOL =      T    correct potential (dipole corrections)
   IDIPOL =      3    1-x, 2-y, 3-z, 4-all directions 
   EPSILON=  1.0000000 bulk dielectric constant

 Exchange correlation treatment:
   GGA     =    PE    GGA type
   LEXCH   =     8    internal setting for exchange type
   VOSKOWN=      0    Vosko Wilk Nusair interpolation
   EXXOEP  =     0    0=HF, 1=EXX-LHF (local Hartree Fock) 2=EXX OEP
   LHFCALC =     T    Hartree Fock is set to
   LSYMGRAD=     F    symmetrize gradient (conserves proper symmetry)
   PRECFOCK=normal    Normal, Fast or Accurate (Low or Medium for compatibility)
   LRHFCALC=     F    long range Hartree Fock
   LRSCOR  =     F    long range correlation only (use DFT for short range part)
   LTHOMAS =     F    Thomas Fermi screening in HF
   LMODELHF=     F    short range full HF, long range fraction AEXX
   ENCUT4O =  -1.0   cutoff for four orbital integrals eV
   LMAXFOCK=     4    L truncation for augmentation on plane wave grid
   LMAXFOCKAE=  -1    L truncation for all-electron charge restoration on plane wave grid
   NMAXFOCKAE=   1    number of basis functions for all-electron charge restoration
   LFOCKAEDFT=     F  apply the AE augmentation even for DFT
   NKREDX  =     1    reduce k-point grid by
   NKREDY  =     1    reduce k-point grid by
   NKREDZ  =     1    reduce k-point grid by
   SHIFTRED=     F    shift reduced grid of Gamma
   HFKIDENT=     F    idential grid for each k-point
   ODDONLY =     F    use only odd q-grid points
   EVENONLY=     F    use only even q-grid points
   HFALPHA =   -1.0000 decay constant for conv. correction
   MCALPHA =    0.0000 extent of test-charge in conv. correction in multipole expansion
   AEXX    =    0.2500 exact exchange contribution
   HFSCREEN=    0.2000 screening length (either q_TF or 0.3 A-1)
   HFSCREENC=   0.2000 screening length for correlation (either q_TF or 0.3 A-1)
   HFRCUT  =    0.0000 spherical cutoff for potential kernel
   ALDAX   =    0.7500 LDA exchange part
   AGGAX   =    0.7500 GGA exchange part
   ALDAC   =    1.0000 LDA correlation
   AGGAC   =    1.0000 GGA correlation
   ENCUTFOCK=  -1.0 apply spherical cutoff to Coloumb kernel
   NBANDSGWLOW=     1    first orbital included in HF term
   NBLOCK_FOCK=    64    blocking factor in FOCK_ACC
 Linear response parameters
   LEPSILON=     F    determine dielectric tensor
   LRPA    =     F    only Hartree local field effects (RPA)
   LNABLA  =     F    use nabla operator in PAW spheres
   LVEL    =     F    velocity operator in full k-point grid
   LINTERFAST=   F  fast interpolation
   KINTER  =     0    interpolate to denser k-point grid
   CSHIFT  =0.1000    complex shift for real part using Kramers Kronig
   OMEGAMAX=  -1.0    maximum frequency
   DEG_THRESHOLD= 0.2000000E-02 threshold for treating states as degnerate
   RTIME   =   -0.100 relaxation time in fs
  (WPLASMAI=    0.000 imaginary part of plasma frequency in eV, 0.658/RTIME)
   DFIELD  = 0.0000000 0.0000000 0.0000000 field for delta impulse in time
 
 Orbital magnetization related:
   ORBITALMAG=     F  switch on orbital magnetization
   LCHIMAG   =     F  perturbation theory with respect to B field
   DQ        =  0.001000  dq finite difference perturbation B field
   LLRAUG    =     F  two centre corrections for induced B field



--------------------------------------------------------------------------------------------------------


 Static calculation
 charge density and potential will be updated during run
 spin polarized calculation
 Conjugate gradient for all bands (Freysoldt, et al. PRB 79, 241103 (2009))
 perform sub-space diagonalisation
    before iterative eigenvector-optimisation
 modified Broyden-mixing scheme, WC =      100.0
 initial mixing is a Kerker type mixing with AMIX =  0.4000 and BMIX =      1.0000
 Hartree-type preconditioning will be used
 using additional bands           34
 reciprocal scheme for non local part
 use partial core corrections
 no Harris-corrections to forces 
 use gradient corrections 
 use of overlap-Matrix (Vanderbilt PP)
 Gauss-broadening in eV      SIGMA  =   0.10


--------------------------------------------------------------------------------------------------------


  energy-cutoff  :      500.00
  volume of cell :     3176.90
      direct lattice vectors                 reciprocal lattice vectors
    12.697900000  0.000000000  0.000000000     0.078753180 -0.000492353  0.000054586
     0.078531090 12.561254520  0.000000000     0.000000000  0.079609883 -0.000002985
    -0.013800888  0.000746790 19.917695205     0.000000000  0.000000000  0.050206612

  length of vectors
    12.697900000 12.561500000 19.917700000     0.078754738  0.079609883  0.050206612


 
 old parameters found on file WAVECAR:
  energy-cutoff  :      500.00
  volume of cell :     3176.90
      direct lattice vectors                 reciprocal lattice vectors
    12.697900000  0.000000000  0.000000000     0.078753180 -0.000492353  0.000054586
     0.078531090 12.561254520  0.000000000     0.000000000  0.079609883 -0.000002985
    -0.013800888  0.000746790 19.917695205     0.000000000  0.000000000  0.050206612

  length of vectors

 
 k-points in units of 2pi/SCALE and weight: KPOINTS created by Atomic Simulation Env
   0.01968829  0.01977938  0.00001290       0.500
  -0.01968829  0.02002556 -0.00001439       0.500
 
 k-points in reciprocal lattice and weights: KPOINTS created by Atomic Simulation Env
   0.25000000  0.25000000 -0.00000000       0.500
  -0.25000000  0.25000000  0.00000000       0.500
 
 position of ions in fractional coordinates (direct lattice) 
   0.22190614  0.99765669  0.49994859
   0.05374075  0.09781617  0.49994135
   0.11034435  0.99825714  0.49996906
   0.27676519  0.09656541  0.49996036
   0.21913878  0.19376291  0.50005843
   0.05390082  0.29756521  0.50002131
   0.10798351  0.19642746  0.49999201
   0.27361400  0.29131263  0.50037318
   0.06168337  0.49805592  0.50000165
   0.11286262  0.39487080  0.50014775
   0.06016830  0.69803452  0.49997105
   0.11956777  0.59854526  0.49995070
   0.27900384  0.70132285  0.49995425
   0.22374209  0.79975111  0.49997771
   0.05623756  0.89861191  0.50000561
   0.11230649  0.79897002  0.49998762
   0.27820411  0.89921484  0.49995814
   0.55562525  0.00011611  0.49985385
   0.38844474  0.09914885  0.49995591
   0.44428352  0.99969340  0.49988179
   0.61015310  0.09946242  0.49990159
   0.55545651  0.19829068  0.50013776
   0.44171534  0.20043641  0.50015898
   0.55750726  0.60721673  0.50002572
   0.39170921  0.69988504  0.49999441
   0.61307363  0.70495291  0.49993471
   0.55668976  0.80286317  0.49990364
   0.38953962  0.90009116  0.49991376
   0.44521149  0.80070618  0.49992924
   0.61178575  0.90148770  0.49988044
   0.88871264  0.99952386  0.49996826
   0.72174471  0.10011136  0.49992543
   0.77749084  0.00021301  0.49993679
   0.94221023  0.09937736  0.49992425
   0.88687658  0.20022848  0.49992441
   0.71609121  0.30008959  0.50019008
   0.77487609  0.20061308  0.49997750
   0.94212187  0.29987482  0.49996555
   0.88707247  0.40063358  0.50001013
   0.72153561  0.50497773  0.50009033
   0.77293943  0.40145146  0.50012479
   0.94743458  0.49887851  0.49996821
   0.89226896  0.59951243  0.49994329
   0.72479404  0.70229788  0.49994205
   0.78037308  0.60195968  0.49995402
   0.94778758  0.69867632  0.49997254
   0.89155935  0.79925018  0.50000019
   0.72334385  0.90061526  0.49993089
   0.77969932  0.80085910  0.49995978
   0.94493472  0.89922228  0.50001583
   0.38386254  0.29917244  0.50053118
   0.44508814  0.59904299  0.50008953
   0.21958426  0.38780331  0.50043961
   0.22966803  0.60319346  0.49989837
   0.60726819  0.29494439  0.50045885
   0.61522707  0.51290690  0.50022100
   0.32862279  0.48269839  0.50023730
   0.50069694  0.41640055  0.50118929
 
 position of ions in cartesian coordinates  (Angst):
   2.88918932 12.53219294  9.95782373
   0.68317671  1.22906717  9.95767934
   1.47263571 12.53973536  9.95823133
   3.51502020  1.21335604  9.95805816
   2.79091748  2.43427864  9.96001132
   0.70089458  3.73816577  9.95927197
   1.37968919  2.46774872  9.95868844
   3.49029473  3.65962571  9.96628047
   0.81546173  6.25658062  9.95888044
   1.45722536  4.96044611  9.96179037
   0.81192841  8.76856262  9.95827093
   1.55836424  7.51885266  9.95786562
   3.59093864  8.80986817  9.95793641
   2.89695987 10.04625065  9.95840368
   0.77776740 11.28806625  9.95895943
   1.48190029 10.03643914  9.95860100
   3.59632437 11.29563982  9.95801385
   7.04838449  0.00183176  9.95593660
   4.93331891  1.24580726  9.95796945
   5.71307589 12.55777650  9.95649314
   7.74857487  1.24974607  9.95688745
   7.06180080  2.49115325  9.96159137
   5.61769507  2.51810631  9.96201406
   7.11995606  7.62777726  9.95935994
   5.02194680  8.79180751  9.95873620
   7.83320887  8.85546622  9.95754725
   7.12494150 10.08534200  9.95692842
   5.01012109 11.30664752  9.95712998
   5.70923186 10.05824747  9.95743826
   7.83229028 11.32418979  9.95646616
  11.35637792 12.55564695  9.95821539
   9.16560455  1.25789766  9.95736240
   9.86561805  0.00304901  9.95758861
  11.96499605  1.24867768  9.95733888
  11.27029493  2.51549423  9.95734206
   9.10951792  3.76987521  9.96263360
   9.84815327  2.52032531  9.95839936
  11.97961885  3.76717729  9.95816152
  11.28851913  5.03283377  9.95904933
   9.19474177  6.34352729  9.96064677
   9.83933188  5.04310742  9.96133319
  12.06270706  6.26691336  9.95821437
  11.37012279  7.53100163  9.95771797
   9.25161486  8.82211579  9.95769344
   9.94947209  7.56174210  9.95793188
  12.08287966  8.77662441  9.95830067
  11.37679698 10.03995838  9.95885131
   9.24877466 11.31323082  9.95747104
   9.95653649 10.06016836  9.95804642
  12.06240278 11.29573333  9.95916296
   4.89083465  3.75835494  9.96942758
   5.69182649  7.52510495  9.96063075
   2.81180714  4.87166981  9.96760353
   2.95677212  7.57723992  9.95682338
   7.72728628  3.70524535  9.96798676
   7.84546743  6.44312764  9.96324941
   4.20382242  6.06367091  9.96357400
   6.38358317  5.23088756  9.98253548
 


--------------------------------------------------------------------------------------------------------


 k-point  1 :   0.2500 0.2500-0.0000  plane waves:   80677
 k-point  2 :  -0.2500 0.2500 0.0000  plane waves:   80651

 maximum and minimum number of plane-waves per node :      2556     2486

 maximum number of plane-waves:     80677
 maximum index in each direction: 
   IXMAX=   23   IYMAX=   22   IZMAX=   36
   IXMIN=  -23   IYMIN=  -23   IZMIN=  -36


 parallel 3D FFT for wavefunctions:
    minimum data exchange during FFTs selected (reduces bandwidth)
 parallel 3D FFT for charge:
    minimum data exchange during FFTs selected (reduces bandwidth)


 FFT grid for exact exchange (Hartree Fock) 
  NGX = 70; NGY = 70; NGZ =112

 
 Radii for the augmentation spheres in the non-local exchange
 for species   1 augmentation radius   0.874 (default was   0.699)
       energy cutoff for augmentation   2000.0
 for species   2 augmentation radius   0.886 (default was   0.709)
       energy cutoff for augmentation   2000.0
 for species   3 augmentation radius   1.263 (default was   1.010)
       energy cutoff for augmentation   2000.0
 for species   4 augmentation radius   1.424 (default was   1.139)
       energy cutoff for augmentation   2000.0

 real space projection operators:
  total allocation   :       2570.07 KBytes
  max/ min on nodes  :        117.41         41.20

 Maximum index for augmentation-charges in exchange          172
  SETUP_FOCK is finished

 total amount of memory used by VASP MPI-rank0   165835. kBytes
=======================================================================

   base      :      30000. kBytes
   nonl-proj :       5333. kBytes
   fftplans  :      14250. kBytes
   grid      :      36827. kBytes
   one-center:         62. kBytes
   HF        :         23. kBytes
   nonlr-proj:       2264. kBytes
   wavefun   :      77076. kBytes
 
     INWAV:  cpu time    3.4922: real time    3.4928
 Broyden mixing: mesh for mixing (old mesh)
   NGX = 47   NGY = 45   NGZ = 73
  (NGX  =192   NGY  =192   NGZ  =300)
  gives a total of 154395 points

 charge density for first step will be calculated from the start-wavefunctions


--------------------------------------------------------------------------------------------------------


 Maximum index for augmentation-charges          942 (set IRDMAX)


--------------------------------------------------------------------------------------------------------


 initial charge from wavefunction
 First call to EWALD:  gamma=   0.121
 Maximum number of real-space cells 3x 3x 2
 Maximum number of reciprocal cells 2x 2x 4

    FEWALD:  cpu time    0.0028: real time    0.0028


--------------------------------------- Iteration      1(   1)  ---------------------------------------


    POTLOK:  cpu time    1.3794: real time    1.3803
    SETDIJ:  cpu time    2.0914: real time    2.0923
    TRIAL :  cpu time  516.3832: real time  516.5970
    CORREC:  cpu time    0.0021: real time    0.0023
    CHARGE:  cpu time    1.6634: real time    1.6639
    --------------------------------------------
      LOOP:  cpu time  521.5352: real time  521.7553

 eigenvalue-minimisations  :     0
 total energy-change (2. order) :-0.6105403E+03  (-0.4340764E+00)
 number of electron     242.0000003 magnetization       2.0019694
 augmentation part       12.5460116 magnetization       1.0321022

 DIPCOR: dipole corrections for dipol
 direction  3 min pos     1,
 dipolmoment           0.000002     -0.000000     -0.003153 electrons x Angstroem
 Tr[quadrupol]     -6405.963440

 energy correction for charged system         0.000000 eV
 dipol+quadrupol energy correction            0.000000 eV
 added-field ion interaction          0.000000 eV  (added to PSCEN)


 Free energy of the ion-electron system (eV)
  ---------------------------------------------------
  alpha Z        PSCENC =        99.74176744
  Ewald energy   TEWEN  =     38407.85632328
  -Hartree energ DENC   =    -46569.56791166
  -exchange      EXHF   =       545.50951371
  -V(xc)+E(xc)   XCENC  =       598.89263842
  PAW double counting   =     25928.63611244   -25951.09922611
  entropy T*S    EENTRO =        -0.00157846
  eigenvalues    EBANDS =     -3138.63698773
  atomic energy  EATOM  =      9468.12998047
  ---------------------------------------------------
  free energy    TOTEN  =      -610.54034475 eV

  energy without entropy =     -610.53876628  energy(sigma->0) =     -610.53955552
  exchange ACFDT corr.  =        -0.00132159  see jH, gK, PRB 81, 115126


--------------------------------------------------------------------------------------------------------




--------------------------------------- Iteration      1(   2)  ---------------------------------------


    POTLOK:  cpu time    1.3953: real time    1.3958
    SETDIJ:  cpu time    2.0909: real time    2.0911
    TRIAL :  cpu time  515.4088: real time  515.5817
    CORREC:  cpu time    0.0020: real time    0.0023
    CHARGE:  cpu time    1.6630: real time    1.6630
    --------------------------------------------
      LOOP:  cpu time  520.5634: real time  520.7372

 eigenvalue-minimisations  :     0
 total energy-change (2. order) :-0.3684625E+00  (-0.4067308E+00)
 number of electron     242.0000003 magnetization       2.0009996
 augmentation part       12.5222566 magnetization       1.0305282

 DIPCOR: dipole corrections for dipol
 direction  3 min pos     1,
 dipolmoment           0.000002     -0.000000     -0.003380 electrons x Angstroem
 Tr[quadrupol]     -6405.791816

 energy correction for charged system         0.000000 eV
 dipol+quadrupol energy correction            0.000000 eV
 added-field ion interaction          0.000000 eV  (added to PSCEN)


 Free energy of the ion-electron system (eV)
  ---------------------------------------------------
  alpha Z        PSCENC =        99.74176749
  Ewald energy   TEWEN  =     38407.85632328
  -Hartree energ DENC   =    -46555.20110744
  -exchange      EXHF   =       545.40194225
  -V(xc)+E(xc)   XCENC  =       598.55105866
  PAW double counting   =     26056.25154982   -26078.57979384
  entropy T*S    EENTRO =        -0.00078171
  eigenvalues    EBANDS =     -3153.05894947
  atomic energy  EATOM  =      9468.12998047
  ---------------------------------------------------
  free energy    TOTEN  =      -610.90880724 eV

  energy without entropy =     -610.90802553  energy(sigma->0) =     -610.90841638
  exchange ACFDT corr.  =        -0.00070979  see jH, gK, PRB 81, 115126


--------------------------------------------------------------------------------------------------------




--------------------------------------- Iteration      1(   3)  ---------------------------------------


    POTLOK:  cpu time    1.4025: real time    1.4025
    SETDIJ:  cpu time    2.1238: real time    2.1238
    TRIAL :  cpu time  514.7312: real time  514.7604
    CORREC:  cpu time    0.0019: real time    0.0022
    CHARGE:  cpu time    1.6610: real time    1.6611
    --------------------------------------------
      LOOP:  cpu time  519.9235: real time  519.9531

 eigenvalue-minimisations  :     0
 total energy-change (2. order) :-0.3224580E+00  (-0.2526727E+00)
 number of electron     242.0000003 magnetization       2.0003883
 augmentation part       12.5133015 magnetization       1.0270573

 DIPCOR: dipole corrections for dipol
 direction  3 min pos     1,
 dipolmoment           0.000003     -0.000000     -0.003652 electrons x Angstroem
 Tr[quadrupol]     -6405.616091

 energy correction for charged system         0.000000 eV
 dipol+quadrupol energy correction            0.000000 eV
 added-field ion interaction          0.000000 eV  (added to PSCEN)


 Free energy of the ion-electron system (eV)
  ---------------------------------------------------
  alpha Z        PSCENC =        99.74176754
  Ewald energy   TEWEN  =     38407.85632328
  -Hartree energ DENC   =    -46539.63411910
  -exchange      EXHF   =       545.36959134
  -V(xc)+E(xc)   XCENC  =       598.20487075
  PAW double counting   =     26216.37319445   -26238.43629704
  entropy T*S    EENTRO =        -0.00036072
  eigenvalues    EBANDS =     -3168.83579523
  atomic energy  EATOM  =      9468.12998047
  ---------------------------------------------------
  free energy    TOTEN  =      -611.23126525 eV

  energy without entropy =     -611.23090454  energy(sigma->0) =     -611.23108490
  exchange ACFDT corr.  =        -0.00029661  see jH, gK, PRB 81, 115126


--------------------------------------------------------------------------------------------------------




--------------------------------------- Iteration      1(   4)  ---------------------------------------


    POTLOK:  cpu time    1.4048: real time    1.4048
    SETDIJ:  cpu time    2.0869: real time    2.0869
    TRIAL :  cpu time  513.0521: real time  513.0739
    CORREC:  cpu time    0.0019: real time    0.0021
    CHARGE:  cpu time    1.6582: real time    1.6582
    --------------------------------------------
      LOOP:  cpu time  518.2070: real time  518.2290

 eigenvalue-minimisations  :     0
 total energy-change (2. order) :-0.2014564E+00  (-0.1607257E+00)
 number of electron     242.0000003 magnetization       2.0001251
 augmentation part       12.5195161 magnetization       1.0226526

 DIPCOR: dipole corrections for dipol
 direction  3 min pos     1,
 dipolmoment           0.000003     -0.000000     -0.003941 electrons x Angstroem
 Tr[quadrupol]     -6405.548231

 energy correction for charged system         0.000000 eV
 dipol+quadrupol energy correction            0.000000 eV
 added-field ion interaction          0.000000 eV  (added to PSCEN)


 Free energy of the ion-electron system (eV)
  ---------------------------------------------------
  alpha Z        PSCENC =        99.74176760
  Ewald energy   TEWEN  =     38407.85632328
  -Hartree energ DENC   =    -46532.54219452
  -exchange      EXHF   =       545.53782064
  -V(xc)+E(xc)   XCENC  =       598.07582349
  PAW double counting   =     26354.52666892   -26376.51173819
  entropy T*S    EENTRO =        -0.00017194
  eigenvalues    EBANDS =     -3176.24681260
  atomic energy  EATOM  =      9468.12998047
  ---------------------------------------------------
  free energy    TOTEN  =      -611.43272162 eV

  energy without entropy =     -611.43254968  energy(sigma->0) =     -611.43263565
  exchange ACFDT corr.  =        -0.00011643  see jH, gK, PRB 81, 115126


--------------------------------------------------------------------------------------------------------




--------------------------------------- Iteration      1(   5)  ---------------------------------------


    POTLOK:  cpu time    1.4034: real time    1.4035
    SETDIJ:  cpu time    2.1192: real time    2.1192
    TRIAL :  cpu time  512.9282: real time  512.9522
    CORREC:  cpu time    0.0019: real time    0.0021
    CHARGE:  cpu time    1.6636: real time    1.6635
    --------------------------------------------
      LOOP:  cpu time  518.1194: real time  518.1437

 eigenvalue-minimisations  :     0
 total energy-change (2. order) :-0.1338576E+00  (-0.1118343E+00)
 number of electron     242.0000003 magnetization       2.0000246
 augmentation part       12.5284909 magnetization       1.0178793

 DIPCOR: dipole corrections for dipol
 direction  3 min pos     1,
 dipolmoment           0.000003     -0.000000     -0.004168 electrons x Angstroem
 Tr[quadrupol]     -6405.578092

 energy correction for charged system         0.000000 eV
 dipol+quadrupol energy correction            0.000000 eV
 added-field ion interaction          0.000000 eV  (added to PSCEN)


 Free energy of the ion-electron system (eV)
  ---------------------------------------------------
  alpha Z        PSCENC =        99.74176766
  Ewald energy   TEWEN  =     38407.85632328
  -Hartree energ DENC   =    -46533.62624459
  -exchange      EXHF   =       545.85358041
  -V(xc)+E(xc)   XCENC  =       598.15017024
  PAW double counting   =     26455.49458335   -26477.57988861
  entropy T*S    EENTRO =        -0.00008974
  eigenvalues    EBANDS =     -3175.58667953
  atomic energy  EATOM  =      9468.12998047
  ---------------------------------------------------
  free energy    TOTEN  =      -611.56657926 eV

  energy without entropy =     -611.56648952  energy(sigma->0) =     -611.56653439
  exchange ACFDT corr.  =        -0.00004844  see jH, gK, PRB 81, 115126


--------------------------------------------------------------------------------------------------------




--------------------------------------- Iteration      1(   6)  ---------------------------------------


    POTLOK:  cpu time    1.4020: real time    1.4022
    SETDIJ:  cpu time    2.0881: real time    2.0881
    TRIAL :  cpu time  513.6081: real time  513.6431
    CORREC:  cpu time    0.0018: real time    0.0020
    CHARGE:  cpu time    1.6614: real time    1.6615
    --------------------------------------------
      LOOP:  cpu time  518.7643: real time  518.7999

 eigenvalue-minimisations  :     0
 total energy-change (2. order) :-0.9558440E-01  (-0.7929125E-01)
 number of electron     242.0000003 magnetization       1.9999893
 augmentation part       12.5348195 magnetization       1.0139165

 DIPCOR: dipole corrections for dipol
 direction  3 min pos     1,
 dipolmoment           0.000003     -0.000000     -0.004333 electrons x Angstroem
 Tr[quadrupol]     -6405.641167

 energy correction for charged system         0.000000 eV
 dipol+quadrupol energy correction            0.000001 eV
 added-field ion interaction          0.000000 eV  (added to PSCEN)


 Free energy of the ion-electron system (eV)
  ---------------------------------------------------
  alpha Z        PSCENC =        99.74176770
  Ewald energy   TEWEN  =     38407.85632328
  -Hartree energ DENC   =    -46537.83123158
  -exchange      EXHF   =       546.19183839
  -V(xc)+E(xc)   XCENC  =       598.30404091
  PAW double counting   =     26521.71763950   -26543.91442750
  entropy T*S    EENTRO =        -0.00005263
  eigenvalues    EBANDS =     -3171.85800510
  atomic energy  EATOM  =      9468.12998047
  ---------------------------------------------------
  free energy    TOTEN  =      -611.66216366 eV

  energy without entropy =     -611.66211103  energy(sigma->0) =     -611.66213735
  exchange ACFDT corr.  =        -0.00002274  see jH, gK, PRB 81, 115126


--------------------------------------------------------------------------------------------------------




--------------------------------------- Iteration      1(   7)  ---------------------------------------


    POTLOK:  cpu time    1.3997: real time    1.3997
    SETDIJ:  cpu time    2.0879: real time    2.0879
    TRIAL :  cpu time  513.3148: real time  513.3581
    CORREC:  cpu time    0.0019: real time    0.0021
    CHARGE:  cpu time    1.6586: real time    1.6585
    --------------------------------------------
      LOOP:  cpu time  518.4656: real time  518.5090

 eigenvalue-minimisations  :     0
 total energy-change (2. order) :-0.6893588E-01  (-0.5685621E-01)
 number of electron     242.0000003 magnetization       1.9999781
 augmentation part       12.5395676 magnetization       1.0114229

 DIPCOR: dipole corrections for dipol
 direction  3 min pos     1,
 dipolmoment           0.000003     -0.000000     -0.004452 electrons x Angstroem
 Tr[quadrupol]     -6405.693944

 energy correction for charged system         0.000000 eV
 dipol+quadrupol energy correction            0.000001 eV
 added-field ion interaction          0.000000 eV  (added to PSCEN)


 Free energy of the ion-electron system (eV)
  ---------------------------------------------------
  alpha Z        PSCENC =        99.74176773
  Ewald energy   TEWEN  =     38407.85632328
  -Hartree energ DENC   =    -46541.63146989
  -exchange      EXHF   =       546.47334556
  -V(xc)+E(xc)   XCENC  =       598.44753221
  PAW double counting   =     26561.89471813   -26584.15570323
  entropy T*S    EENTRO =        -0.00003464
  eigenvalues    EBANDS =     -3168.48754117
  atomic energy  EATOM  =      9468.12998047
  ---------------------------------------------------
  free energy    TOTEN  =      -611.73109954 eV

  energy without entropy =     -611.73106490  energy(sigma->0) =     -611.73108222
  exchange ACFDT corr.  =        -0.00001235  see jH, gK, PRB 81, 115126


--------------------------------------------------------------------------------------------------------




--------------------------------------- Iteration      1(   8)  ---------------------------------------


    POTLOK:  cpu time    1.3999: real time    1.4001
    SETDIJ:  cpu time    2.0877: real time    2.0877
    TRIAL :  cpu time  512.8653: real time  512.9039
    CORREC:  cpu time    0.0019: real time    0.0021
    CHARGE:  cpu time    1.6595: real time    1.6595
    --------------------------------------------
      LOOP:  cpu time  518.0169: real time  518.0558

 eigenvalue-minimisations  :     0
 total energy-change (2. order) :-0.5024022E-01  (-0.4181249E-01)
 number of electron     242.0000004 magnetization       1.9999752
 augmentation part       12.5441363 magnetization       1.0100117

 DIPCOR: dipole corrections for dipol
 direction  3 min pos     1,
 dipolmoment           0.000003     -0.000000     -0.004530 electrons x Angstroem
 Tr[quadrupol]     -6405.724153

 energy correction for charged system         0.000000 eV
 dipol+quadrupol energy correction            0.000001 eV
 added-field ion interaction          0.000000 eV  (added to PSCEN)


 Free energy of the ion-electron system (eV)
  ---------------------------------------------------
  alpha Z        PSCENC =        99.74176775
  Ewald energy   TEWEN  =     38407.85632328
  -Hartree energ DENC   =    -46543.94720444
  -exchange      EXHF   =       546.67869754
  -V(xc)+E(xc)   XCENC  =       598.54964200
  PAW double counting   =     26584.87629534   -26607.18353098
  entropy T*S    EENTRO =        -0.00002521
  eigenvalues    EBANDS =     -3166.48327608
  atomic energy  EATOM  =      9468.12998047
  ---------------------------------------------------
  free energy    TOTEN  =      -611.78133976 eV

  energy without entropy =     -611.78131454  energy(sigma->0) =     -611.78132715
  exchange ACFDT corr.  =        -0.00000771  see jH, gK, PRB 81, 115126


--------------------------------------------------------------------------------------------------------




--------------------------------------- Iteration      1(   9)  ---------------------------------------


    POTLOK:  cpu time    1.3982: real time    1.3982
    SETDIJ:  cpu time    2.1210: real time    2.1212
    TRIAL :  cpu time  513.1329: real time  513.1829
    CORREC:  cpu time    0.0018: real time    0.0020
    CHARGE:  cpu time    1.6563: real time    1.6563
    --------------------------------------------
      LOOP:  cpu time  518.3130: real time  518.3634

 eigenvalue-minimisations  :     0
 total energy-change (2. order) :-0.3748014E-01  (-0.3151783E-01)
 number of electron     242.0000004 magnetization       1.9999747
 augmentation part       12.5482974 magnetization       1.0088549

 DIPCOR: dipole corrections for dipol
 direction  3 min pos     1,
 dipolmoment           0.000003     -0.000000     -0.004591 electrons x Angstroem
 Tr[quadrupol]     -6405.736419

 energy correction for charged system         0.000000 eV
 dipol+quadrupol energy correction            0.000001 eV
 added-field ion interaction          0.000000 eV  (added to PSCEN)


 Free energy of the ion-electron system (eV)
  ---------------------------------------------------
  alpha Z        PSCENC =        99.74176776
  Ewald energy   TEWEN  =     38407.85632328
  -Hartree energ DENC   =    -46545.00275121
  -exchange      EXHF   =       546.82095098
  -V(xc)+E(xc)   XCENC  =       598.61366697
  PAW double counting   =     26597.55546447   -26619.91666285
  entropy T*S    EENTRO =        -0.00001997
  eigenvalues    EBANDS =     -3165.61753456
  atomic energy  EATOM  =      9468.12998047
  ---------------------------------------------------
  free energy    TOTEN  =      -611.81881990 eV

  energy without entropy =     -611.81879993  energy(sigma->0) =     -611.81880992
  exchange ACFDT corr.  =        -0.00000542  see jH, gK, PRB 81, 115126


--------------------------------------------------------------------------------------------------------




--------------------------------------- Iteration      1(  10)  ---------------------------------------


    POTLOK:  cpu time    1.3913: real time    1.3913
    SETDIJ:  cpu time    2.1211: real time    2.1211
    TRIAL :  cpu time  511.8537: real time  511.8904
    CORREC:  cpu time    0.0019: real time    0.0021
    CHARGE:  cpu time    1.6586: real time    1.6586
    --------------------------------------------
      LOOP:  cpu time  517.0290: real time  517.0658

 eigenvalue-minimisations  :     0
 total energy-change (2. order) :-0.2855952E-01  (-0.2422738E-01)
 number of electron     242.0000004 magnetization       1.9999746
 augmentation part       12.5515792 magnetization       1.0074280

 DIPCOR: dipole corrections for dipol
 direction  3 min pos     1,
 dipolmoment           0.000003     -0.000000     -0.004646 electrons x Angstroem
 Tr[quadrupol]     -6405.739292

 energy correction for charged system         0.000000 eV
 dipol+quadrupol energy correction            0.000001 eV
 added-field ion interaction          0.000000 eV  (added to PSCEN)


 Free energy of the ion-electron system (eV)
  ---------------------------------------------------
  alpha Z        PSCENC =        99.74176778
  Ewald energy   TEWEN  =     38407.85632328
  -Hartree energ DENC   =    -46545.33833544
  -exchange      EXHF   =       546.92123230
  -V(xc)+E(xc)   XCENC  =       598.65288826
  PAW double counting   =     26604.31255441   -26626.73179769
  entropy T*S    EENTRO =        -0.00001693
  eigenvalues    EBANDS =     -3165.39197282
  atomic energy  EATOM  =      9468.12998047
  ---------------------------------------------------
  free energy    TOTEN  =      -611.84737942 eV

  energy without entropy =     -611.84736248  energy(sigma->0) =     -611.84737095
  exchange ACFDT corr.  =        -0.00000420  see jH, gK, PRB 81, 115126


--------------------------------------------------------------------------------------------------------




--------------------------------------- Iteration      1(  11)  ---------------------------------------


    POTLOK:  cpu time    1.3874: real time    1.3874
    SETDIJ:  cpu time    2.0913: real time    2.0913
    TRIAL :  cpu time  512.4251: real time  512.4773
    CORREC:  cpu time    0.0018: real time    0.0021
    CHARGE:  cpu time    1.6541: real time    1.6542
    --------------------------------------------
      LOOP:  cpu time  517.5622: real time  517.6146

 eigenvalue-minimisations  :     0
 total energy-change (2. order) :-0.2215014E-01  (-0.1893295E-01)
 number of electron     242.0000004 magnetization       1.9999743
 augmentation part       12.5538904 magnetization       1.0056955

 DIPCOR: dipole corrections for dipol
 direction  3 min pos     1,
 dipolmoment           0.000003     -0.000000     -0.004688 electrons x Angstroem
 Tr[quadrupol]     -6405.739347

 energy correction for charged system         0.000000 eV
 dipol+quadrupol energy correction            0.000001 eV
 added-field ion interaction          0.000000 eV  (added to PSCEN)


 Free energy of the ion-electron system (eV)
  ---------------------------------------------------
  alpha Z        PSCENC =        99.74176779
  Ewald energy   TEWEN  =     38407.85632328
  -Hartree energ DENC   =    -46545.40852810
  -exchange      EXHF   =       546.99737486
  -V(xc)+E(xc)   XCENC  =       598.67962218
  PAW double counting   =     26607.86555156   -26630.33630461
  entropy T*S    EENTRO =        -0.00001513
  eigenvalues    EBANDS =     -3165.39530006
  atomic energy  EATOM  =      9468.12998047
  ---------------------------------------------------
  free energy    TOTEN  =      -611.86952956 eV

  energy without entropy =     -611.86951442  energy(sigma->0) =     -611.86952199
  exchange ACFDT corr.  =        -0.00000351  see jH, gK, PRB 81, 115126


--------------------------------------------------------------------------------------------------------




--------------------------------------- Iteration      1(  12)  ---------------------------------------


    POTLOK:  cpu time    1.3844: real time    1.3845
    SETDIJ:  cpu time    2.1206: real time    2.1206
    TRIAL :  cpu time  512.5795: real time  512.6149
    CORREC:  cpu time    0.0019: real time    0.0021
    CHARGE:  cpu time    1.6569: real time    1.6570
    --------------------------------------------
      LOOP:  cpu time  517.7457: real time  517.7816

 eigenvalue-minimisations  :     0
 total energy-change (2. order) :-0.1744781E-01  (-0.1503484E-01)
 number of electron     242.0000004 magnetization       1.9999739
 augmentation part       12.5555803 magnetization       1.0038647

 DIPCOR: dipole corrections for dipol
 direction  3 min pos     1,
 dipolmoment           0.000003     -0.000000     -0.004726 electrons x Angstroem
 Tr[quadrupol]     -6405.739599

 energy correction for charged system         0.000000 eV
 dipol+quadrupol energy correction            0.000001 eV
 added-field ion interaction          0.000000 eV  (added to PSCEN)


 Free energy of the ion-electron system (eV)
  ---------------------------------------------------
  alpha Z        PSCENC =        99.74176780
  Ewald energy   TEWEN  =     38407.85632328
  -Hartree energ DENC   =    -46545.44733344
  -exchange      EXHF   =       547.05967989
  -V(xc)+E(xc)   XCENC  =       598.70082720
  PAW double counting   =     26609.91418843   -26632.42460425
  entropy T*S    EENTRO =        -0.00001405
  eigenvalues    EBANDS =     -3165.41779162
  atomic energy  EATOM  =      9468.12998047
  ---------------------------------------------------
  free energy    TOTEN  =      -611.88697737 eV

  energy without entropy =     -611.88696332  energy(sigma->0) =     -611.88697034
  exchange ACFDT corr.  =        -0.00000311  see jH, gK, PRB 81, 115126


--------------------------------------------------------------------------------------------------------




--------------------------------------- Iteration      1(  13)  ---------------------------------------


    POTLOK:  cpu time    1.3867: real time    1.3866
    SETDIJ:  cpu time    2.1197: real time    2.1198
    TRIAL :  cpu time  513.2469: real time  513.3088
    CORREC:  cpu time    0.0019: real time    0.0021
    CHARGE:  cpu time    1.6591: real time    1.6591
    --------------------------------------------
      LOOP:  cpu time  518.4167: real time  518.4789

 eigenvalue-minimisations  :     0
 total energy-change (2. order) :-0.1395352E-01  (-0.1211031E-01)
 number of electron     242.0000004 magnetization       1.9999734
 augmentation part       12.5570468 magnetization       1.0021761

 DIPCOR: dipole corrections for dipol
 direction  3 min pos     1,
 dipolmoment           0.000003     -0.000000     -0.004754 electrons x Angstroem
 Tr[quadrupol]     -6405.740600

 energy correction for charged system         0.000000 eV
 dipol+quadrupol energy correction            0.000001 eV
 added-field ion interaction          0.000000 eV  (added to PSCEN)


 Free energy of the ion-electron system (eV)
  ---------------------------------------------------
  alpha Z        PSCENC =        99.74176781
  Ewald energy   TEWEN  =     38407.85632328
  -Hartree energ DENC   =    -46545.52160846
  -exchange      EXHF   =       547.11275691
  -V(xc)+E(xc)   XCENC  =       598.71915198
  PAW double counting   =     26611.55320696   -26634.09399834
  entropy T*S    EENTRO =        -0.00001339
  eigenvalues    EBANDS =     -3165.39849745
  atomic energy  EATOM  =      9468.12998047
  ---------------------------------------------------
  free energy    TOTEN  =      -611.90093089 eV

  energy without entropy =     -611.90091750  energy(sigma->0) =     -611.90092419
  exchange ACFDT corr.  =        -0.00000287  see jH, gK, PRB 81, 115126


--------------------------------------------------------------------------------------------------------




--------------------------------------- Iteration      1(  14)  ---------------------------------------


    POTLOK:  cpu time    1.3777: real time    1.3778
    SETDIJ:  cpu time    2.0877: real time    2.0878
    TRIAL :  cpu time  513.6410: real time  513.6768
    CORREC:  cpu time    0.0019: real time    0.0021
    CHARGE:  cpu time    1.6587: real time    1.6587
    --------------------------------------------
      LOOP:  cpu time  518.7699: real time  518.8060

 eigenvalue-minimisations  :     0
 total energy-change (2. order) :-0.1130947E-01  (-0.9872061E-02)
 number of electron     242.0000004 magnetization       1.9999728
 augmentation part       12.5584273 magnetization       1.0007557

 DIPCOR: dipole corrections for dipol
 direction  3 min pos     1,
 dipolmoment           0.000003     -0.000000     -0.004775 electrons x Angstroem
 Tr[quadrupol]     -6405.742018

 energy correction for charged system         0.000000 eV
 dipol+quadrupol energy correction            0.000001 eV
 added-field ion interaction          0.000000 eV  (added to PSCEN)


 Free energy of the ion-electron system (eV)
  ---------------------------------------------------
  alpha Z        PSCENC =        99.74176781
  Ewald energy   TEWEN  =     38407.85632328
  -Hartree energ DENC   =    -46545.62290900
  -exchange      EXHF   =       547.15851069
  -V(xc)+E(xc)   XCENC  =       598.73519001
  PAW double counting   =     26613.33566427   -26635.90241319
  entropy T*S    EENTRO =        -0.00001300
  eigenvalues    EBANDS =     -3165.34434133
  atomic energy  EATOM  =      9468.12998047
  ---------------------------------------------------
  free energy    TOTEN  =      -611.91224036 eV

  energy without entropy =     -611.91222737  energy(sigma->0) =     -611.91223386
  exchange ACFDT corr.  =        -0.00000273  see jH, gK, PRB 81, 115126


--------------------------------------------------------------------------------------------------------




--------------------------------------- Iteration      1(  15)  ---------------------------------------


    POTLOK:  cpu time    1.3783: real time    1.3782
    SETDIJ:  cpu time    2.0894: real time    2.0894
    TRIAL :  cpu time  513.3589: real time  513.4054
    CORREC:  cpu time    0.0018: real time    0.0020
    CHARGE:  cpu time    1.6609: real time    1.6609
    --------------------------------------------
      LOOP:  cpu time  518.4918: real time  518.5384

 eigenvalue-minimisations  :     0
 total energy-change (2. order) :-0.9270537E-02  (-0.8149241E-02)
 number of electron     242.0000004 magnetization       1.9999722
 augmentation part       12.5596770 magnetization       0.9995898

 DIPCOR: dipole corrections for dipol
 direction  3 min pos     1,
 dipolmoment           0.000003     -0.000000     -0.004795 electrons x Angstroem
 Tr[quadrupol]     -6405.743507

 energy correction for charged system         0.000000 eV
 dipol+quadrupol energy correction            0.000001 eV
 added-field ion interaction          0.000000 eV  (added to PSCEN)


 Free energy of the ion-electron system (eV)
  ---------------------------------------------------
  alpha Z        PSCENC =        99.74176782
  Ewald energy   TEWEN  =     38407.85632328
  -Hartree energ DENC   =    -46545.72845090
  -exchange      EXHF   =       547.19808736
  -V(xc)+E(xc)   XCENC  =       598.74905433
  PAW double counting   =     26615.42966263   -26638.01998098
  entropy T*S    EENTRO =        -0.00001278
  eigenvalues    EBANDS =     -3165.27794191
  atomic energy  EATOM  =      9468.12998047
  ---------------------------------------------------
  free energy    TOTEN  =      -611.92151090 eV

  energy without entropy =     -611.92149813  energy(sigma->0) =     -611.92150451
  exchange ACFDT corr.  =        -0.00000264  see jH, gK, PRB 81, 115126


--------------------------------------------------------------------------------------------------------




--------------------------------------- Iteration      1(  16)  ---------------------------------------


    POTLOK:  cpu time    1.3727: real time    1.3727
    SETDIJ:  cpu time    2.1165: real time    2.1165
    TRIAL :  cpu time  513.0553: real time  513.0835
    CORREC:  cpu time    0.0017: real time    0.0019
    CHARGE:  cpu time    1.6605: real time    1.6604
    --------------------------------------------
      LOOP:  cpu time  518.2091: real time  518.2375

 eigenvalue-minimisations  :     0
 total energy-change (2. order) :-0.7691711E-02  (-0.6807466E-02)
 number of electron     242.0000004 magnetization       1.9999715
 augmentation part       12.5607411 magnetization       0.9986010

 DIPCOR: dipole corrections for dipol
 direction  3 min pos     1,
 dipolmoment           0.000003     -0.000000     -0.004812 electrons x Angstroem
 Tr[quadrupol]     -6405.744843

 energy correction for charged system         0.000000 eV
 dipol+quadrupol energy correction            0.000001 eV
 added-field ion interaction          0.000000 eV  (added to PSCEN)


 Free energy of the ion-electron system (eV)
  ---------------------------------------------------
  alpha Z        PSCENC =        99.74176782
  Ewald energy   TEWEN  =     38407.85632328
  -Hartree energ DENC   =    -46545.82410096
  -exchange      EXHF   =       547.23251458
  -V(xc)+E(xc)   XCENC  =       598.76098802
  PAW double counting   =     26617.72142605   -26640.33245221
  entropy T*S    EENTRO =        -0.00001267
  eigenvalues    EBANDS =     -3165.21563688
  atomic energy  EATOM  =      9468.12998047
  ---------------------------------------------------
  free energy    TOTEN  =      -611.92920261 eV

  energy without entropy =     -611.92918995  energy(sigma->0) =     -611.92919628
  exchange ACFDT corr.  =        -0.00000260  see jH, gK, PRB 81, 115126


--------------------------------------------------------------------------------------------------------




--------------------------------------- Iteration      1(  17)  ---------------------------------------


    POTLOK:  cpu time    1.3712: real time    1.3714
    SETDIJ:  cpu time    2.1180: real time    2.1180
    TRIAL :  cpu time  512.9909: real time  513.0330
    CORREC:  cpu time    0.0018: real time    0.0020
    CHARGE:  cpu time    1.6560: real time    1.6562
    --------------------------------------------
      LOOP:  cpu time  518.1402: real time  518.1829

 eigenvalue-minimisations  :     0
 total energy-change (2. order) :-0.6454923E-02  (-0.5751147E-02)
 number of electron     242.0000004 magnetization       1.9999708
 augmentation part       12.5616374 magnetization       0.9977258

 DIPCOR: dipole corrections for dipol
 direction  3 min pos     1,
 dipolmoment           0.000003     -0.000000     -0.004825 electrons x Angstroem
 Tr[quadrupol]     -6405.745812

 energy correction for charged system         0.000000 eV
 dipol+quadrupol energy correction            0.000001 eV
 added-field ion interaction          0.000000 eV  (added to PSCEN)


 Free energy of the ion-electron system (eV)
  ---------------------------------------------------
  alpha Z        PSCENC =        99.74176783
  Ewald energy   TEWEN  =     38407.85632328
  -Hartree energ DENC   =    -46545.90026663
  -exchange      EXHF   =       547.26247723
  -V(xc)+E(xc)   XCENC  =       598.77119562
  PAW double counting   =     26619.98505453   -26642.61340485
  entropy T*S    EENTRO =        -0.00001263
  eigenvalues    EBANDS =     -3165.16877236
  atomic energy  EATOM  =      9468.12998047
  ---------------------------------------------------
  free energy    TOTEN  =      -611.93565753 eV

  energy without entropy =     -611.93564490  energy(sigma->0) =     -611.93565122
  exchange ACFDT corr.  =        -0.00000258  see jH, gK, PRB 81, 115126


--------------------------------------------------------------------------------------------------------




--------------------------------------- Iteration      1(  18)  ---------------------------------------


    POTLOK:  cpu time    1.3719: real time    1.3719
    SETDIJ:  cpu time    2.0852: real time    2.0852
    TRIAL :  cpu time  513.0655: real time  513.1006
    CORREC:  cpu time    0.0018: real time    0.0020
    CHARGE:  cpu time    1.6538: real time    1.6537
    --------------------------------------------
      LOOP:  cpu time  518.1810: real time  518.2163

 eigenvalue-minimisations  :     0
 total energy-change (2. order) :-0.5476161E-02  (-0.4911083E-02)
 number of electron     242.0000004 magnetization       1.9999701
 augmentation part       12.5624099 magnetization       0.9969427

 DIPCOR: dipole corrections for dipol
 direction  3 min pos     1,
 dipolmoment           0.000003     -0.000000     -0.004836 electrons x Angstroem
 Tr[quadrupol]     -6405.746337

 energy correction for charged system         0.000000 eV
 dipol+quadrupol energy correction            0.000001 eV
 added-field ion interaction          0.000000 eV  (added to PSCEN)


 Free energy of the ion-electron system (eV)
  ---------------------------------------------------
  alpha Z        PSCENC =        99.74176783
  Ewald energy   TEWEN  =     38407.85632328
  -Hartree energ DENC   =    -46545.95432256
  -exchange      EXHF   =       547.28845914
  -V(xc)+E(xc)   XCENC  =       598.77985525
[...]
  augment    41.73953    44.85983    48.45103     0.33664    -0.02018     0.02805
  Kinetic  3580.53953  3579.03856  4090.44542     8.65114    -0.06979     0.07345
  Fock     -308.46133  -310.97502  -289.62648     0.54151    -0.00521    -0.04105
  -------------------------------------------------------------------------------------
  Total     -20.95391   -60.83325    -0.39264     6.42497    -0.01733     0.02105
  in kB     -10.56749   -30.67945    -0.19802     3.24024    -0.00874     0.01062
  external pressure =      -13.81 kB  Pullay stress =        0.00 kB


 VOLUME and BASIS-vectors are now :
 -----------------------------------------------------------------------------
  energy-cutoff  :      500.00
  volume of cell :     3176.90
      direct lattice vectors                 reciprocal lattice vectors
    12.697900000  0.000000000  0.000000000     0.078753180 -0.000492353  0.000054586
     0.078531090 12.561254520  0.000000000     0.000000000  0.079609883 -0.000002985
    -0.013800888  0.000746790 19.917695205     0.000000000  0.000000000  0.050206612

  length of vectors
    12.697900000 12.561500000 19.917700000     0.078754738  0.079609883  0.050206612


 FORCES acting on ions:
    Electron-Ion                     Ewald-Force                    Non-Local-Force
 -----------------------------------------------------------------------------------------------
   -.175E+01 0.422E+00 0.374E+00   0.182E+01 -.538E+00 -.376E+00   -.110E+00 0.780E-01 0.178E-02
   0.990E+00 0.493E+01 0.478E+00   -.995E+00 -.502E+01 -.480E+00   0.326E-01 0.107E+00 0.266E-02
   0.700E+01 -.619E+00 0.168E+00   -.686E+01 0.716E+00 -.166E+00   -.580E-01 -.633E-01 -.217E-02
   -.182E+01 0.453E+01 0.648E+00   0.221E+01 -.467E+01 -.645E+00   -.379E+00 0.195E+00 0.263E-03
   -.172E+01 0.129E+02 0.432E+00   0.182E+01 -.134E+02 -.439E+00   -.731E-01 0.318E+00 0.107E-01
   0.114E+02 0.142E+01 0.320E+00   -.119E+02 -.153E+01 -.320E+00   0.384E+00 0.101E+00 0.140E-02
   0.128E+02 0.199E+01 0.444E+00   -.130E+02 -.220E+01 -.443E+00   0.224E+00 0.158E+00 -.377E-03
   -.214E+02 0.320E+02 -.134E+01   0.246E+02 -.356E+02 0.136E+01   -.297E+01 0.357E+01 -.158E-01
   0.811E+01 -.768E+01 0.393E+00   -.834E+01 0.739E+01 -.396E+00   0.277E+00 0.718E-01 0.400E-02
   0.468E+02 -.124E+02 -.131E+00   -.507E+02 0.130E+02 0.111E+00   0.393E+01 -.458E+00 0.187E-01
   0.645E+01 0.456E+01 0.183E+00   -.686E+01 -.436E+01 -.182E+00   0.321E+00 -.546E-01 -.102E-02
   0.352E+02 0.940E+01 0.508E+00   -.384E+02 -.986E+01 -.503E+00   0.357E+01 0.447E+00 -.225E-02
   -.135E+02 -.257E+02 0.407E+00   0.160E+02 0.287E+02 -.407E+00   -.250E+01 -.296E+01 0.141E-03
   -.183E+01 -.988E+01 0.582E-01   0.206E+01 0.103E+02 -.569E-01   -.161E+00 -.446E+00 -.324E-02
   -.192E+01 0.104E+01 -.129E+00   0.182E+01 -.822E+00 0.128E+00   0.263E-01 -.190E+00 -.153E-02
   0.118E+02 -.399E+01 0.317E-01   -.119E+02 0.411E+01 -.349E-01   0.965E-01 -.218E+00 0.274E-02
   0.294E+01 -.595E+00 0.140E+00   -.263E+01 0.775E+00 -.137E+00   -.243E+00 -.141E+00 -.424E-02
   -.382E+01 -.182E+01 0.951E+00   0.348E+01 0.160E+01 -.951E+00   0.236E+00 0.176E+00 0.163E-02
   -.843E+01 -.370E+01 0.776E+00   0.878E+01 0.398E+01 -.780E+00   -.324E+00 -.241E+00 0.765E-02
   0.372E+01 -.103E+01 0.788E+00   -.373E+01 0.107E+01 -.787E+00   0.771E-01 -.361E-01 -.355E-03
   0.313E+01 0.533E+01 0.112E+01   -.343E+01 -.574E+01 -.112E+01   0.230E+00 0.448E+00 0.118E-01
   0.192E+02 0.120E+02 0.276E+00   -.215E+02 -.151E+02 -.287E+00   0.234E+01 0.305E+01 0.162E-01
   -.140E+01 -.932E+01 0.178E+00   0.365E+00 0.101E+02 -.188E+00   0.905E+00 -.776E+00 0.161E-01
   0.230E+02 -.163E+02 0.840E+00   -.264E+02 0.201E+02 -.873E+00   0.329E+01 -.376E+01 0.367E-01
   -.123E+02 -.111E+01 0.226E+00   0.133E+02 -.102E+00 -.219E+00   -.961E+00 0.100E+01 -.461E-02
   0.113E+00 -.651E+01 0.637E+00   -.302E+00 0.691E+01 -.637E+00   0.164E+00 -.289E+00 0.512E-04
   -.199E+01 -.344E+01 0.540E+00   0.160E+01 0.355E+01 -.538E+00   0.349E+00 -.196E+00 -.177E-02
   -.569E+01 -.237E+01 0.441E+00   0.571E+01 0.231E+01 -.442E+00   -.893E-01 0.342E-01 0.161E-03
   0.385E+01 0.148E+01 0.401E+00   -.414E+01 -.173E+01 -.399E+00   0.326E+00 0.279E+00 -.299E-02
   0.707E+00 -.131E+01 0.598E+00   -.770E+00 0.141E+01 -.599E+00   0.114E+00 -.486E-01 0.268E-03
   -.552E+01 0.248E+01 0.729E-01   0.543E+01 -.241E+01 -.725E-01   -.738E-02 -.910E-02 -.182E-02
   -.887E+01 0.151E+01 0.620E+00   0.893E+01 -.164E+01 -.614E+00   -.715E-01 0.202E+00 -.314E-02
   0.386E+01 -.166E+01 0.290E+00   -.377E+01 0.145E+01 -.292E+00   -.182E-01 0.211E+00 -.107E-03
   0.813E+01 -.346E+01 0.518E+00   -.810E+01 0.354E+01 -.519E+00   -.443E-01 -.406E-01 0.299E-02
   -.221E+01 -.199E+01 0.688E+00   0.245E+01 0.210E+01 -.690E+00   -.268E+00 -.159E+00 0.391E-02
   -.277E+02 -.176E+02 -.298E+00   0.311E+02 0.180E+02 0.279E+00   -.370E+01 -.496E+00 0.196E-01
   -.185E+01 -.584E+01 0.566E+00   0.228E+01 0.568E+01 -.569E+00   -.367E+00 0.509E-01 0.452E-02
   0.114E+02 -.344E+01 0.507E+00   -.116E+02 0.385E+01 -.505E+00   0.231E+00 -.315E+00 0.135E-03
   0.319E+01 -.349E+01 0.262E+00   -.327E+01 0.379E+01 -.261E+00   0.166E+00 -.191E+00 -.186E-05
   -.357E+02 0.205E+02 0.186E+00   0.396E+02 -.211E+02 -.192E+00   -.402E+01 0.514E+00 0.709E-02
   0.382E+01 0.635E+01 -.250E+00   -.360E+01 -.605E+01 0.249E+00   -.222E+00 -.119E+00 0.452E-03
   0.257E+01 0.374E+01 0.446E+00   -.257E+01 -.399E+01 -.444E+00   -.151E+00 0.170E+00 -.136E-02
   -.583E+01 0.400E+01 0.515E+00   0.605E+01 -.439E+01 -.517E+00   -.253E+00 0.278E+00 0.261E-02
   -.913E+01 -.829E-03 0.447E+00   0.923E+01 0.171E+00 -.444E+00   -.109E+00 -.116E+00 -.204E-02
   -.794E+01 -.251E+00 0.645E+00   0.845E+01 0.292E+00 -.647E+00   -.406E+00 -.713E-01 0.400E-02
   0.431E+01 0.977E-01 0.155E+00   -.450E+01 -.216E+00 -.155E+00   0.210E+00 0.163E+00 0.346E-04
   -.509E+01 0.414E+01 -.122E+00   0.508E+01 -.425E+01 0.123E+00   0.462E-01 0.731E-01 -.239E-02
   -.659E+01 0.974E+00 0.237E+00   0.647E+01 -.111E+01 -.237E+00   0.441E-01 0.850E-01 -.249E-02
   -.124E+00 -.328E+01 0.143E+00   0.124E+00 0.334E+01 -.144E+00   -.386E-01 -.776E-01 -.102E-03
   0.727E+01 -.229E+01 -.249E+00   -.718E+01 0.218E+01 0.249E+00   0.787E-02 0.341E-01 -.343E-02
   -.509E+02 -.392E+02 -.219E+01   0.542E+02 0.447E+02 0.228E+01   -.362E+01 -.558E+01 -.857E-01
   0.143E+02 0.427E+02 0.212E+00   -.184E+02 -.480E+02 -.224E+00   0.454E+01 0.549E+01 0.175E-01
   0.443E+01 -.262E+02 -.287E+01   0.444E+01 0.404E+02 0.305E+01   -.867E+01 -.137E+02 -.167E+00
   -.460E+01 0.333E+02 0.160E+01   0.147E+02 -.491E+02 -.169E+01   -.100E+02 0.151E+02 0.909E-01
   0.305E+02 -.649E+02 -.249E+01   -.410E+02 0.820E+02 0.265E+01   0.102E+02 -.163E+02 -.156E+00
   0.235E+02 0.581E+02 -.322E+00   -.326E+02 -.736E+02 0.353E+00   0.877E+01 0.148E+02 -.335E-01
   -.859E+02 -.291E+01 -.276E+00   0.819E+02 0.874E+01 0.252E+00   0.304E+01 -.497E+01 0.340E-02
   0.183E+02 0.169E+02 -.967E+01   -.155E+02 -.197E+02 0.955E+01   -.149E+01 0.238E+01 0.117E+00
 -----------------------------------------------------------------------------------------------
   -.280E+01 0.263E+01 0.107E+00   0.711E-13 -.433E-12 0.000E+00   0.282E+01 -.242E+01 -.919E-01
 
 
 POSITION                                       TOTAL-FORCE (eV/Angst)
 -----------------------------------------------------------------------------------
      2.88919     12.53219      9.95782        -0.051484     -0.034629     -0.000436
      0.68318      1.22907      9.95768         0.021332      0.029182      0.001123
      1.47264     12.53974      9.95823         0.089587      0.027267     -0.000750
      3.51502      1.21336      9.95806        -0.002054      0.068126      0.002902
      2.79092      2.43428      9.96001         0.024846     -0.081162      0.004207
      0.70089      3.73817      9.95927        -0.138838     -0.006388      0.001092
      1.37969      2.46775      9.95869         0.053321     -0.052557      0.001054
      3.49029      3.65963      9.96628         0.033682      0.175524     -0.003497
      0.81546      6.25658      9.95888         0.053584     -0.220518      0.001414
      1.45723      4.96045      9.96179         0.314929      0.167139     -0.000397
      0.81193      8.76856      9.95827        -0.080262      0.149051     -0.000045
      1.55836      7.51885      9.95787         0.493363      0.017064      0.002579
      3.59094      8.80987      9.95794        -0.209246     -0.117241      0.000998
      2.89696     10.04625      9.95840         0.052601     -0.057103     -0.002115
      0.77777     11.28807      9.95896        -0.085976      0.017539     -0.002608
      1.48190     10.03644      9.95860         0.037716     -0.116726     -0.000319
      3.59632     11.29564      9.95801         0.066204      0.035321     -0.001735
      7.04838      0.00183      9.95594        -0.092799     -0.035272      0.001530
      4.93332      1.24581      9.95797         0.001607      0.027163      0.004351
      5.71308     12.55778      9.95649         0.080902     -0.001929      0.001232
      7.74857      1.24975      9.95689        -0.051180      0.071692      0.006658
      7.06180      2.49115      9.96159         0.230963      0.114812      0.006521
      5.61770      2.51811      9.96201        -0.076320     -0.054354      0.006922
      7.11996      7.62778      9.95936         0.099717     -0.213732      0.005611
      5.02195      8.79181      9.95874         0.027242     -0.166844      0.001956
      7.83321      8.85547      9.95755        -0.018818      0.089959     -0.000554
      7.12494     10.08534      9.95693        -0.022623     -0.099467      0.000166
      5.01012     11.30665      9.95713        -0.078893     -0.033263     -0.001109
      5.70923     10.05825      9.95744         0.058484      0.049495     -0.001339
      7.83229     11.32419      9.95647         0.062854      0.052561     -0.000675
     11.35638     12.55565      9.95822        -0.106415      0.070224     -0.001598
      9.16560      1.25790      9.95736        -0.024303      0.085323      0.002789
      9.86562      0.00305      9.95759         0.083960      0.011690     -0.001163
     11.96500      1.24868      9.95734        -0.010156      0.038300      0.002226
     11.27029      2.51549      9.95734        -0.052165     -0.050502      0.002346
      9.10952      3.76988      9.96263        -0.493423     -0.050196      0.001894
      9.84815      2.52033      9.95840         0.056641     -0.110659      0.002497
     11.97962      3.76718      9.95816         0.091581      0.068993      0.001668
     11.28852      5.03283      9.95905         0.097588      0.087453      0.001154
      9.19474      6.34353      9.96065        -0.299629     -0.019623      0.001577
      9.83933      5.04311      9.96133        -0.007115      0.181397      0.000025
     12.06271      6.26691      9.95821        -0.166171     -0.061865      0.000871
     11.37012      7.53100      9.95772        -0.054517     -0.093373      0.001603
      9.25161      8.82212      9.95769        -0.022378      0.053846      0.000432
      9.94947      7.56174      9.95793         0.093607     -0.037961      0.001686
     12.08288      8.77662      9.95830         0.041057      0.048254      0.000160
     11.37680     10.03996      9.95885         0.033036     -0.023588     -0.002467
      9.24877     11.31323      9.95747        -0.091464     -0.041576     -0.002029
      9.95654     10.06017      9.95805        -0.033705     -0.024842     -0.001065
     12.06240     11.29573      9.95916         0.104243     -0.079980     -0.004328
      4.89083      3.75835      9.96943        -0.610406     -0.389628     -0.006170
      5.69183      7.52510      9.96063         0.763790      0.508562      0.007183
      2.81181      4.87167      9.96760        -0.545245     -0.791065     -0.005688
      2.95677      7.57724      9.95682        -0.784235      0.578360      0.007743
      7.72729      3.70525      9.96799         0.556883     -0.660080     -0.010952
      7.84547      6.44313      9.96325         0.423855      0.646727     -0.005761
      4.20382      6.06367      9.96357        -1.046823      0.550330     -0.014540
      6.38358      5.23089      9.98254         1.107464     -0.295231     -0.014830
 -----------------------------------------------------------------------------------
    total drift:                               -0.006554      0.000549      0.000404


--------------------------------------------------------------------------------------------------------



  FREE ENERGIE OF THE ION-ELECTRON SYSTEM (eV)
  ---------------------------------------------------
  free  energy   TOTEN  =      -611.98710944 eV

  energy  without entropy=     -611.98709557  energy(sigma->0) =     -611.98710251
 


--------------------------------------------------------------------------------------------------------


    POTLOK:  cpu time    3.4413: real time    3.4412


--------------------------------------------------------------------------------------------------------


 stress matrix after NEB project (eV)
    -20.95391      6.42464      0.02105
      6.42497    -60.83325     -0.01786
      0.02117     -0.01733     -0.39264
  FORCES: max atom, RMS     1.182756    0.387064
  FORCE total and by dimension    2.947789    1.107464
  Stress total and by dimension   64.980476   60.833247
 writing wavefunctions
     LOOP+:  cpu time36352.8622: real time36355.4698
    4ORBIT:  cpu time    0.0000: real time    0.0000
 


 total charge     
 
# of ion       s       p       d       tot
------------------------------------------
    1        0.869   1.778   0.000   2.647
    2        0.867   1.778   0.000   2.645
    3        0.865   1.769   0.000   2.634
    4        0.869   1.782   0.000   2.651
    5        0.875   1.803   0.000   2.678
    6        0.864   1.767   0.000   2.631
    7        0.868   1.776   0.000   2.644
    8        0.873   1.751   0.000   2.624
    9        0.847   1.742   0.000   2.588
   10        0.858   1.734   0.000   2.592
   11        0.861   1.753   0.000   2.614
   12        0.846   1.678   0.000   2.524
   13        0.866   1.741   0.000   2.607
   14        0.869   1.789   0.000   2.658
   15        0.866   1.774   0.000   2.640
   16        0.867   1.764   0.000   2.632
   17        0.867   1.783   0.000   2.650
   18        0.867   1.783   0.000   2.650
   19        0.864   1.763   0.000   2.627
   20        0.867   1.771   0.000   2.637
   21        0.869   1.788   0.000   2.657
   22        0.863   1.733   0.000   2.595
   23        0.860   1.735   0.000   2.595
   24        0.866   1.725   0.000   2.592
   25        0.865   1.749   0.000   2.615
   26        0.872   1.792   0.000   2.665
   27        0.870   1.784   0.000   2.655
   28        0.867   1.771   0.000   2.638
   29        0.866   1.769   0.000   2.635
   30        0.869   1.778   0.000   2.648
   31        0.866   1.767   0.000   2.633
   32        0.867   1.761   0.000   2.628
   33        0.866   1.775   0.000   2.641
   34        0.865   1.765   0.000   2.630
   35        0.862   1.756   0.000   2.618
   36        0.850   1.685   0.000   2.535
   37        0.863   1.759   0.000   2.622
   38        0.863   1.758   0.000   2.621
   39        0.853   1.727   0.000   2.580
   40        0.859   1.731   0.000   2.590
   41        0.846   1.740   0.000   2.586
   42        0.853   1.728   0.000   2.581
   43        0.864   1.758   0.000   2.622
   44        0.867   1.766   0.000   2.633
   45        0.864   1.770   0.000   2.634
   46        0.861   1.754   0.000   2.615
   47        0.864   1.759   0.000   2.623
   48        0.866   1.768   0.000   2.633
   49        0.865   1.774   0.000   2.639
   50        0.866   1.767   0.000   2.633
   51        0.856   1.695   0.000   2.551
   52        0.851   1.667   0.000   2.518
   53        1.234   2.719   0.000   3.953
   54        1.228   2.636   0.000   3.864
   55        1.231   2.662   0.000   3.893
   56        1.236   2.733   0.000   3.969
   57        0.433   0.544   6.288   7.265
   58        0.454   0.603   4.335   5.391
--------------------------------------------------
tot         50.718 103.228  10.623 164.570
 


 magnetization (x)
 
# of ion       s       p       d       tot
------------------------------------------
    1       -0.000  -0.004   0.000  -0.004
    2       -0.000  -0.004   0.000  -0.004
    3        0.000   0.003   0.000   0.004
    4        0.001   0.012   0.000   0.013
    5       -0.001  -0.008   0.000  -0.009
    6       -0.000  -0.002   0.000  -0.003
    7        0.000   0.005   0.000   0.006
    8        0.002   0.014   0.000   0.016
    9       -0.001  -0.012   0.000  -0.013
   10        0.001   0.013   0.000   0.014
   11       -0.000  -0.002   0.000  -0.002
   12        0.001   0.013   0.000   0.014
   13        0.000   0.001   0.000   0.001
   14        0.000  -0.001   0.000  -0.001
   15       -0.000  -0.004   0.000  -0.004
   16        0.000   0.005   0.000   0.005
   17        0.000   0.005   0.000   0.006
   18       -0.000  -0.005   0.000  -0.005
   19       -0.000  -0.008   0.000  -0.008
   20        0.001   0.007   0.000   0.007
   21        0.000   0.000   0.000   0.000
   22        0.001   0.005   0.000   0.006
   23        0.006   0.032   0.000   0.038
   24        0.005   0.018   0.000   0.023
   25        0.000  -0.002   0.000  -0.002
   26        0.001   0.003   0.000   0.004
   27        0.000   0.000   0.000   0.000
   28       -0.000  -0.004   0.000  -0.004
   29        0.000   0.002   0.000   0.002
   30        0.000   0.001   0.000   0.001
   31       -0.000   0.000   0.000   0.000
   32        0.000   0.004   0.000   0.004
   33        0.000   0.003   0.000   0.003
   34        0.000   0.004   0.000   0.004
   35       -0.000  -0.003   0.000  -0.004
   36        0.000   0.006   0.000   0.006
   37       -0.000  -0.001   0.000  -0.001
   38        0.001   0.007   0.000   0.008
   39       -0.000  -0.004   0.000  -0.004
   40        0.001   0.010   0.000   0.011
   41        0.000   0.007   0.000   0.007
   42        0.000   0.003   0.000   0.003
   43       -0.000  -0.004   0.000  -0.004
   44        0.000   0.004   0.000   0.005
   45       -0.001  -0.004   0.000  -0.004
   46        0.000   0.005   0.000   0.006
   47       -0.000  -0.000   0.000  -0.000
   48       -0.000   0.001   0.000   0.001
   49        0.000   0.001   0.000   0.001
   50        0.000   0.003   0.000   0.004
   51       -0.005  -0.026   0.000  -0.032
   52       -0.002  -0.012   0.000  -0.014
   53        0.004   0.015   0.000   0.019
   54        0.005   0.009   0.000   0.013
   55       -0.006  -0.016   0.000  -0.022
   56       -0.008  -0.053   0.000  -0.061
   57       -0.026  -0.000  -1.854  -1.880
   58        0.073   0.052   3.481   3.607
--------------------------------------------------
tot          0.053   0.095   1.628   1.777
 

 total amount of memory used by VASP MPI-rank0   184915. kBytes
=======================================================================

   base      :      30000. kBytes
   nonl-proj :       5333. kBytes
   fftplans  :      14250. kBytes
   grid      :      36827. kBytes
   one-center:         62. kBytes
   HF        :         23. kBytes
   nonlr-proj:      21344. kBytes
   wavefun   :      77076. kBytes
 
  
  
 General timing and accounting informations for this job:
 ========================================================
  
                  Total CPU time used (sec):    36445.578
                            User time (sec):    36401.783
                          System time (sec):       43.797
                         Elapsed time (sec):    36452.378
  
                   Maximum memory used (kb):      431748.
                   Average memory used (kb):           0.
  
                          Minor page faults:       273213
                          Major page faults:            0
                 Voluntary context switches:         1105
