 vasp.5.4.4.18Apr17-6-g9f103f2a35 (build Feb 25 2019 10:51:38) complex          
  
 executed on             LinuxIFC date 2021.08.06  12:59:34
 running on   32 total cores
 distrk:  each k-point on   32 cores,    1 groups
 distr:  one band on NCORES_PER_BAND=  32 cores,    1 groups


--------------------------------------------------------------------------------------------------------


 INCAR:
 POTCAR:    PAW_PBE C 08Apr2002                   
 POTCAR:    PAW_PBE N 08Apr2002                   
 POTCAR:    PAW_PBE Fe 06Sep2000                  
 POTCAR:    PAW_PBE V 08Apr2002                   

 ----------------------------------------------------------------------------- 
|                                                                             |
|           W    W    AA    RRRRR   N    N  II  N    N   GGGG   !!!           |
|           W    W   A  A   R    R  NN   N  II  NN   N  G    G  !!!           |
|           W    W  A    A  R    R  N N  N  II  N N  N  G       !!!           |
|           W WW W  AAAAAA  RRRRR   N  N N  II  N  N N  G  GGG   !            |
|           WW  WW  A    A  R   R   N   NN  II  N   NN  G    G                |
|           W    W  A    A  R    R  N    N  II  N    N   GGGG   !!!           |
|                                                                             |
|      For optimal performance we recommend to set                            |
|        NCORE= 4 - approx SQRT( number of cores)                             |
|      NCORE specifies how many cores store one orbital (NPAR=cpu/NCORE).     |
|      This setting can  greatly improve the performance of VASP for DFT.     |
|      The default,   NCORE=1            might be grossly inefficient         |
|      on modern multi-core architectures or massively parallel machines.     |
|      Do your own testing !!!!                                               |
|      Unfortunately you need to use the default for GW and RPA calculations. |
|      (for HF NCORE is supported but not extensively tested yet)             |
|                                                                             |
 ----------------------------------------------------------------------------- 

 POTCAR:    PAW_PBE C 08Apr2002                   
   VRHFIN =C: s2p2                                                              
   LEXCH  = PE                                                                  
   EATOM  =   147.1560 eV,   10.8157 Ry                                         
                                                                                
   TITEL  = PAW_PBE C 08Apr2002                                                 
   LULTRA =        F    use ultrasoft PP ?                                      
   IUNSCR =        1    unscreen: 0-lin 1-nonlin 2-no                           
   RPACOR =    1.200    partial core radius                                     
   POMASS =   12.011; ZVAL   =    4.000    mass and valenz                      
   RCORE  =    1.500    outmost cutoff radius                                   
   RWIGS  =    1.630; RWIGS  =    0.863    wigner-seitz radius (au A)           
   ENMAX  =  400.000; ENMIN  =  300.000 eV                                      
   ICORE  =        2    local potential                                         
   LCOR   =        T    correct aug charges                                     
   LPAW   =        T    paw PP                                                  
   EAUG   =  644.873                                                            
   DEXC   =    0.000                                                            
   RMAX   =    1.529    core radius for proj-oper                               
   RAUG   =    1.300    factor for augmentation sphere                          
   RDEP   =    1.501    radius for radial grids                                 
   RDEPT  =    1.300    core radius for aug-charge                              
                                                                                
   Atomic configuration                                                         
    4 entries                                                                   
     n  l   j            E        occ.                                          
     1  0  0.50      -273.3789   2.0000                                         
     2  0  0.50       -13.7508   2.0000                                         
     2  1  0.50        -5.2854   2.0000                                         
     3  2  1.50        -5.4423   0.0000                                         
   Description                                                                  
     l       E           TYP  RCUT    TYP  RCUT                                 
     0    -13.7508458     23  1.200                                             
     0     -8.2022199     23  1.200                                             
     1     -5.2854383     23  1.500                                             
     1     34.0145650     23  1.500                                             
     2     -5.4423304      7  1.500                                             
  local pseudopotential read in
  partial core-charges read in
  partial kinetic energy density read in
  atomic valenz-charges read in
  non local Contribution for L=           0  read in
    real space projection operators read in
  non local Contribution for L=           0  read in
    real space projection operators read in
  non local Contribution for L=           1  read in
    real space projection operators read in
  non local Contribution for L=           1  read in
    real space projection operators read in
    PAW grid and wavefunctions read in
 
   number of l-projection  operators is LMAX  =           4
   number of lm-projection operators is LMMAX =           8
 
 POTCAR:    PAW_PBE N 08Apr2002                   
   VRHFIN =N: s2p3                                                              
   LEXCH  = PE                                                                  
   EATOM  =   264.5486 eV,   19.4438 Ry                                         
                                                                                
   TITEL  = PAW_PBE N 08Apr2002                                                 
   LULTRA =        F    use ultrasoft PP ?                                      
   IUNSCR =        1    unscreen: 0-lin 1-nonlin 2-no                           
   RPACOR =    1.200    partial core radius                                     
   POMASS =   14.001; ZVAL   =    5.000    mass and valenz                      
   RCORE  =    1.500    outmost cutoff radius                                   
   RWIGS  =    1.400; RWIGS  =    0.741    wigner-seitz radius (au A)           
   ENMAX  =  400.000; ENMIN  =  300.000 eV                                      
   ICORE  =        2    local potential                                         
   LCOR   =        T    correct aug charges                                     
   LPAW   =        T    paw PP                                                  
   EAUG   =  627.112                                                            
   DEXC   =    0.000                                                            
   RMAX   =    1.529    core radius for proj-oper                               
   RAUG   =    1.300    factor for augmentation sphere                          
   RDEP   =    1.514    radius for radial grids                                 
   RDEPT  =    1.338    core radius for aug-charge                              
                                                                                
   Atomic configuration                                                         
    4 entries                                                                   
     n  l   j            E        occ.                                          
     1  0  0.50      -384.7179   2.0000                                         
     2  0  0.50       -18.5828   2.0000                                         
     2  1  0.50        -7.0898   3.0000                                         
     3  2  1.50        -6.8029   0.0000                                         
   Description                                                                  
     l       E           TYP  RCUT    TYP  RCUT                                 
     0    -18.5828119     23  1.200                                             
     0    -13.5018863     23  1.200                                             
     1     -7.0897853     23  1.500                                             
     1      9.5240782     23  1.500                                             
     2     -6.8029130      7  1.500                                             
  local pseudopotential read in
  partial core-charges read in
  partial kinetic energy density read in
  atomic valenz-charges read in
  non local Contribution for L=           0  read in
    real space projection operators read in
  non local Contribution for L=           0  read in
    real space projection operators read in
  non local Contribution for L=           1  read in
    real space projection operators read in
  non local Contribution for L=           1  read in
    real space projection operators read in
    PAW grid and wavefunctions read in
 
   number of l-projection  operators is LMAX  =           4
   number of lm-projection operators is LMMAX =           8
 
 POTCAR:    PAW_PBE Fe 06Sep2000                  
   VRHFIN =Fe:  d7 s1                                                           
   LEXCH  = PE                                                                  
   EATOM  =   594.3153 eV,   43.6809 Ry                                         
                                                                                
   TITEL  = PAW_PBE Fe 06Sep2000                                                
   LULTRA =        F    use ultrasoft PP ?                                      
   IUNSCR =        1    unscreen: 0-lin 1-nonlin 2-no                           
   RPACOR =    2.000    partial core radius                                     
   POMASS =   55.847; ZVAL   =    8.000    mass and valenz                      
   RCORE  =    2.300    outmost cutoff radius                                   
   RWIGS  =    2.460; RWIGS  =    1.302    wigner-seitz radius (au A)           
   ENMAX  =  267.882; ENMIN  =  200.911 eV                                      
   RCLOC  =    1.701    cutoff for local pot                                    
   LCOR   =        T    correct aug charges                                     
   LPAW   =        T    paw PP                                                  
   EAUG   =  511.368                                                            
   DEXC   =    0.000                                                            
   RMAX   =    2.356    core radius for proj-oper                               
   RAUG   =    1.300    factor for augmentation sphere                          
   RDEP   =    2.442    radius for radial grids                                 
   RDEPT  =    1.890    core radius for aug-charge                              
                                                                                
   Atomic configuration                                                         
    9 entries                                                                   
     n  l   j            E        occ.                                          
     1  0  0.50     -6993.8440   2.0000                                         
     2  0  0.50      -814.6047   2.0000                                         
     2  1  1.50      -693.3689   6.0000                                         
     3  0  0.50       -89.4732   2.0000                                         
     3  1  1.50       -55.6373   6.0000                                         
     3  2  2.50        -3.8151   7.0000                                         
     4  0  0.50        -4.2551   1.0000                                         
     4  1  1.50        -3.4015   0.0000                                         
     4  3  2.50        -1.3606   0.0000                                         
   Description                                                                  
     l       E           TYP  RCUT    TYP  RCUT                                 
     2     -3.8151135     23  2.300                                             
     2     -5.1756961     23  2.300                                             
     0     -4.2550963     23  2.300                                             
     0      7.2035603     23  2.300                                             
     1     -2.7211652     23  2.300                                             
     1     18.4316424     23  2.300                                             
  local pseudopotential read in
  partial core-charges read in
  partial kinetic energy density read in
  atomic valenz-charges read in
  non local Contribution for L=           2  read in
    real space projection operators read in
  non local Contribution for L=           2  read in
    real space projection operators read in
  non local Contribution for L=           0  read in
    real space projection operators read in
  non local Contribution for L=           0  read in
    real space projection operators read in
  non local Contribution for L=           1  read in
    real space projection operators read in
  non local Contribution for L=           1  read in
    real space projection operators read in
    PAW grid and wavefunctions read in
 
   number of l-projection  operators is LMAX  =           6
   number of lm-projection operators is LMMAX =          18
 
 POTCAR:    PAW_PBE V 08Apr2002                   
   VRHFIN =V: p6 d4 s1                                                          
   LEXCH  = PE                                                                  
   EATOM  =   170.8679 eV,   12.5584 Ry                                         
                                                                                
   TITEL  = PAW_PBE V 08Apr2002                                                 
   LULTRA =        F    use ultrasoft PP ?                                      
   IUNSCR =        1    unscreen: 0-lin 1-nonlin 2-no                           
   RPACOR =    2.000    partial core radius                                     
   POMASS =   50.941; ZVAL   =    5.000    mass and valenz                      
   RCORE  =    2.700    outmost cutoff radius                                   
   RWIGS  =    2.500; RWIGS  =    1.323    wigner-seitz radius (au A)           
   ENMAX  =  192.543; ENMIN  =  144.408 eV                                      
   RCLOC  =    1.779    cutoff for local pot                                    
   LCOR   =        T    correct aug charges                                     
   LPAW   =        T    paw PP                                                  
   EAUG   =  358.662                                                            
   DEXC   =    0.000                                                            
   RMAX   =    2.768    core radius for proj-oper                               
   RAUG   =    1.300    factor for augmentation sphere                          
   RDEP   =    2.762    radius for radial grids                                 
   RDEPT  =    2.240    core radius for aug-charge                              
                                                                                
   Atomic configuration                                                         
    9 entries                                                                   
     n  l   j            E        occ.                                          
     1  0  0.50     -5360.7193   2.0000                                         
     2  0  0.50      -598.4546   2.0000                                         
     2  1  1.50      -499.0155   6.0000                                         
     3  0  0.50       -66.5711   2.0000                                         
     3  1  1.50       -40.5282   6.0000                                         
     3  2  2.50        -2.4291   4.0000                                         
     4  0  0.50        -3.8743   1.0000                                         
     4  1  0.50        -2.7212   0.0000                                         
     4  3  2.50        -1.3606   0.0000                                         
   Description                                                                  
     l       E           TYP  RCUT    TYP  RCUT                                 
     2     -2.4290901     23  2.700                                             
     2     -3.7896727     23  2.700                                             
     0     -3.8742752     23  2.700                                             
     0     27.2116520     23  2.700                                             
     1     -2.7211652     23  2.700                                             
     1     27.2116520     23  2.700                                             
  local pseudopotential read in
  partial core-charges read in
  partial kinetic energy density read in
  atomic valenz-charges read in
  non local Contribution for L=           2  read in
    real space projection operators read in
  non local Contribution for L=           2  read in
    real space projection operators read in
  non local Contribution for L=           0  read in
    real space projection operators read in
  non local Contribution for L=           0  read in
    real space projection operators read in
  non local Contribution for L=           1  read in
    real space projection operators read in
  non local Contribution for L=           1  read in
    real space projection operators read in
    PAW grid and wavefunctions read in
 
   number of l-projection  operators is LMAX  =           6
   number of lm-projection operators is LMMAX =          18
 

 ----------------------------------------------------------------------------- 
|                                                                             |
|  ADVICE TO THIS USER RUNNING 'VASP/VAMP'   (HEAR YOUR MASTER'S VOICE ...):  |
|                                                                             |
|      You have a (more or less) 'large supercell' and for larger cells       |
|      it might be more efficient to use real space projection opertators     |
|      So try LREAL= Auto  in the INCAR   file.                               |
|      Mind:          For very  accurate calculation you might also keep the  |
|      reciprocal projection scheme          (i.e. LREAL=.FALSE.)             |
|                                                                             |
 ----------------------------------------------------------------------------- 

  PAW_PBE C 08Apr2002                   :
 energy of atom  1       EATOM= -147.1560
 kinetic energy error for atom=    0.0076 (will be added to EATOM!!)
  PAW_PBE N 08Apr2002                   :
 energy of atom  2       EATOM= -264.5486
 kinetic energy error for atom=    0.0138 (will be added to EATOM!!)
  PAW_PBE Fe 06Sep2000                  :
 energy of atom  3       EATOM= -594.3153
 kinetic energy error for atom=    0.0026 (will be added to EATOM!!)
  PAW_PBE V 08Apr2002                   :
 energy of atom  4       EATOM= -170.8679
 kinetic energy error for atom=    0.0003 (will be added to EATOM!!)
 
 
 POSCAR:  C  N Fe  V                             
  positions in cartesian coordinates
  No initial velocities read in
 exchange correlation table for  LEXCH =        8
   RHO(1)=    0.500       N(1)  =     2000
   RHO(2)=  100.500       N(2)  =     4000

 VTST: version 3.2, (02/03/18)

 CHAIN: initializing optimizer
 
 OPT: Using VASP Conjugate-Gradient optimizer
 CHAIN: Read ICHAIN            0
 
 POSCAR:  C  N Fe  V                             
  positions in cartesian coordinates
  No initial velocities read in
 


--------------------------------------------------------------------------------------------------------


 ion  position               nearest neighbor table
   1  0.221  0.000  0.501-   3 1.42   4 1.43  20 1.43
   2  0.055  0.101  0.501-  34 1.43   7 1.43   3 1.44
   3  0.110  0.000  0.501-   1 1.42   2 1.44  18 1.44
   4  0.277  0.100  0.501-  22 1.43   5 1.43   1 1.43
   5  0.223  0.201  0.501-   4 1.43   7 1.44   8 1.45
   6  0.054  0.300  0.501-  38 1.43   7 1.44  11 1.44
   7  0.111  0.200  0.501-   2 1.43   6 1.44   5 1.44
   8  0.282  0.300  0.501-  51 1.43   9 1.45   5 1.45
   9  0.223  0.399  0.501-  11 1.43  12 1.44   8 1.45
  10  0.054  0.499  0.502-  42 1.43  11 1.44  15 1.44
  11  0.111  0.400  0.502-   9 1.43  10 1.44   6 1.44
  12  0.279  0.500  0.501-  52 1.41  13 1.44   9 1.44
  13  0.222  0.599  0.502-  15 1.42  12 1.44  16 1.45
  14  0.055  0.699  0.503-  46 1.42  19 1.44  15 1.44
  15  0.111  0.599  0.503-  13 1.42  10 1.44  14 1.44
  16  0.278  0.700  0.502-  53 1.41  17 1.44  13 1.45
  17  0.222  0.800  0.502-  19 1.43  20 1.43  16 1.44
  18  0.055  0.900  0.502-  50 1.42  19 1.43   3 1.44
  19  0.110  0.800  0.503-  17 1.43  18 1.43  14 1.44
  20  0.276  0.900  0.501-  28 1.42  17 1.43   1 1.43
  21  0.555  1.000  0.500-  23 1.42  30 1.42  24 1.42
  22  0.389  0.099  0.501-  26 1.42   4 1.43  23 1.43
  23  0.444  1.000  0.500-  21 1.42  28 1.43  22 1.43
  24  0.611  0.098  0.501-  25 1.41  32 1.42  21 1.42
  25  0.557  0.196  0.502-  55 1.38  24 1.41  26 1.43
  26  0.445  0.198  0.501-  22 1.42  51 1.43  25 1.43
  27  0.556  0.802  0.498-  54 1.41  30 1.42  29 1.45
  28  0.387  0.901  0.499-  20 1.42  23 1.43  29 1.43
  29  0.442  0.801  0.499-  53 1.42  28 1.43  27 1.45
  30  0.611  0.901  0.500-  27 1.42  21 1.42  48 1.42
  31  0.889  1.000  0.502-  33 1.42  34 1.43  50 1.44
  32  0.722  0.099  0.501-  24 1.42  37 1.42  33 1.43
  33  0.778  0.999  0.501-  31 1.42  32 1.43  48 1.43
  34  0.943  0.101  0.501-   2 1.43  31 1.43  35 1.44
  35  0.887  0.200  0.501-  38 1.43  37 1.43  34 1.44
  36  0.715  0.298  0.501-  55 1.38  37 1.45  41 1.45
  37  0.775  0.199  0.501-  32 1.42  35 1.43  36 1.45
  38  0.942  0.300  0.501-  35 1.43   6 1.43  39 1.44
  39  0.885  0.399  0.501-  38 1.44  42 1.44  41 1.44
  40  0.717  0.500  0.496-  56 1.35  41 1.45  45 1.45
  41  0.772  0.399  0.500-  39 1.44  40 1.45  36 1.45
  42  0.942  0.499  0.502-  10 1.43  43 1.44  39 1.44
  43  0.886  0.599  0.501-  45 1.42  42 1.44  46 1.45
  44  0.720  0.700  0.499-  54 1.41  49 1.44  45 1.44
  45  0.775  0.599  0.498-  43 1.42  44 1.44  40 1.45
  46  0.943  0.699  0.502-  14 1.42  47 1.43  43 1.45
  47  0.888  0.800  0.502-  49 1.43  50 1.43  46 1.43
  48  0.722  0.900  0.501-  30 1.42  49 1.43  33 1.43
  49  0.777  0.800  0.502-  47 1.43  48 1.43  44 1.44
  50  0.944  0.900  0.502-  18 1.42  47 1.43  31 1.44
  51  0.394  0.300  0.501-  26 1.43   8 1.43  57 1.97
  52  0.389  0.494  0.499-  12 1.41  57 1.75  58 2.11
  53  0.388  0.702  0.498-  16 1.41  29 1.42  58 2.05
  54  0.610  0.704  0.497-  44 1.41  27 1.41  58 1.99
  55  0.607  0.294  0.502-  25 1.38  36 1.38  57 2.01
  56  0.612  0.502  0.487-  40 1.35  57 1.82  58 1.93
  57  0.502  0.413  0.502-  52 1.75  56 1.82  51 1.97  55 2.01  58 2.46
  58  0.503  0.601  0.463-  56 1.93  54 1.99  53 2.05  52 2.11  57 2.46
 
  LATTYP: Found a triclinic cell.
 ALAT       =    34.3915140291
 B/A-ratio  =     0.3621853331
 C/A-ratio  =     0.5798152808
 COS(alpha) =     0.0000981567
 COS(beta)  =     0.5801453322
 COS(gamma) =     0.7247104883
  
  Lattice vectors:
  
 A1 = ( -12.8097138045,  24.9193682415, -19.9427319068)
 A2 = (  -0.0052695291,  12.4561008369,   0.0005585020)
 A3 = (  -0.0090102636,   0.0028475991, -19.9407231239)


Analysis of symmetry for initial positions (statically):
=====================================================================
 Subroutine PRICEL returns:
 Original cell was already a primitive cell.
 

 Routine SETGRP: Setting up the symmetry group for a 
 triclinic supercell.


 Subroutine GETGRP returns: Found  1 space group operations
 (whereof  1 operations were pure point group operations)
 out of a pool of  2 trial point group operations.


The static configuration has the point symmetry C_1 .


Analysis of symmetry for dynamics (positions and initial velocities):
=====================================================================
 Subroutine PRICEL returns:
 Original cell was already a primitive cell.
 

 Routine SETGRP: Setting up the symmetry group for a 
 triclinic supercell.


 Subroutine GETGRP returns: Found  1 space group operations
 (whereof  1 operations were pure point group operations)
 out of a pool of  2 trial point group operations.


The dynamic configuration has the point symmetry C_1 .


Analysis of structural, dynamic, and magnetic symmetry:
=====================================================================
 Subroutine PRICEL returns:
 Original cell was already a primitive cell.
 

 Routine SETGRP: Setting up the symmetry group for a 
 triclinic supercell.


 Subroutine GETGRP returns: Found  1 space group operations
 (whereof  1 operations were pure point group operations)
 out of a pool of  2 trial point group operations.


The magnetic configuration has the point symmetry C_1 .


 Subroutine INISYM returns: Found  1 space group operations
 (whereof  1 operations are pure point group operations),
 and found     1 'primitive' translations

 
 
 KPOINTS: KPOINTS created by Atomic Simulation Env

Automatic generation of k-mesh.
Space group operators:
 irot       det(A)        alpha          n_x          n_y          n_z        tau_x        tau_y        tau_z
    1     1.000000     0.000001     1.000000     0.000000     0.000000     0.000000     0.000000     0.000000
 
 Subroutine IBZKPT returns following result:
 ===========================================
 
 Found      2 irreducible k-points:
 
 Following reciprocal coordinates:
            Coordinates               Weight
  0.250000  0.250000  0.000000      2.000000
 -0.250000  0.250000 -0.000000      2.000000
 
 Following cartesian coordinates:
            Coordinates               Weight
  0.019553  0.020079 -0.000006      2.000000
 -0.019539  0.020062  0.000012      2.000000
 
 
 Subroutine IBZKPT_HF returns following result:
 ==============================================
 
 Found      4 k-points in 1st BZ
 the following      4 k-points will be used (e.g. in the exchange kernel)
 Following reciprocal coordinates:   # in IRBZ
  0.250000  0.250000  0.000000    0.25000000   1 t-inv F
 -0.250000  0.250000 -0.000000    0.25000000   2 t-inv F
 -0.250000 -0.250000 -0.000000    0.25000000   1 t-inv T
  0.250000 -0.250000  0.000000    0.25000000   2 t-inv T


--------------------------------------------------------------------------------------------------------




 Dimension of arrays:
   k-points           NKPTS =      2   k-points in BZ     NKDIM =      4   number of bands    NBANDS=    153
   number of dos      NEDOS =    301   number of ions     NIONS =     58
   non local maximal  LDIM  =      6   non local SUM 2l+1 LMDIM =     18
   total plane-waves  NPLWV = ******
   max r-space proj   IRMAX =      1   max aug-charges    IRDMAX=  26586
   dimension x,y,z NGX =    96 NGY =   96 NGZ =  150
   dimension x,y,z NGXF=   192 NGYF=  192 NGZF=  300
   support grid    NGXF=   192 NGYF=  192 NGZF=  300
   ions per type =              54   2   1   1
   NGX,Y,Z   is equivalent  to a cutoff of  12.48, 12.81, 12.51 a.u.
   NGXF,Y,Z  is equivalent  to a cutoff of  24.96, 25.63, 25.01 a.u.

 SYSTEM =  unknown system                          
 POSCAR =   C  N Fe  V                             

 Startparameter for this run:
   NWRITE =      2    write-flag & timer
   PREC   = accura    normal or accurate (medium, high low for compatibility)
   ISTART =      0    job   : 0-new  1-cont  2-samecut
   ICHARG =      2    charge: 1-file 2-atom 10-const
   ISPIN  =      2    spin polarized calculation?
   LNONCOLLINEAR =      F non collinear calculations
   LSORBIT =      F    spin-orbit coupling
   INIWAV =      1    electr: 0-lowe 1-rand  2-diag
   LASPH  =      T    aspherical Exc in radial PAW
   METAGGA=      F    non-selfconsistent MetaGGA calc.

 Electronic Relaxation 1
   ENCUT  =  500.0 eV  36.75 Ry    6.06 a.u.  23.32 22.71 36.36*2*pi/ulx,y,z
   ENINI  =  500.0     initial cutoff
   ENAUG  =  644.9 eV  augmentation charge cutoff
   NELM   =    250;   NELMIN=  2; NELMDL=  0     # of ELM steps 
   EDIFF  = 0.1E-03   stopping-criterion for ELM
   LREAL  =      F    real-space projection
   NLSPLINE    = F    spline interpolate recip. space projectors
   LCOMPAT=      F    compatible to vasp.4.4
   GGA_COMPAT  = T    GGA compatible to vasp.4.4-vasp.4.6
   LMAXPAW     = -100 max onsite density
   LMAXMIX     =    2 max onsite mixed and CHGCAR
   VOSKOWN=      0    Vosko Wilk Nusair interpolation
   ROPT   =    0.00000   0.00000   0.00000   0.00000
 Ionic relaxation
   EDIFFG = -.3E-01   stopping-criterion for IOM
   NSW    =      0    number of steps for IOM
   NBLOCK =      1;   KBLOCK =      1    inner block; outer block 
   IBRION =     -1    ionic relax: 0-MD 1-quasi-New 2-CG
   NFREE  =      1    steps in history (QN), initial steepest desc. (CG)
   ISIF   =      2    stress and relaxation
   IWAVPR =     10    prediction:  0-non 1-charg 2-wave 3-comb
   ISYM   =      3    0-nonsym 1-usesym 2-fastsym
   LCORR  =      T    Harris-Foulkes like correction to forces

   POTIM  = 0.5000    time-step for ionic-motion
   TEIN   =    0.0    initial temperature
   TEBEG  =    0.0;   TEEND  =   0.0 temperature during run
   SMASS  =  -3.00    Nose mass-parameter (am)
   estimated Nose-frequenzy (Omega)   =  0.10E-29 period in steps =****** mass=  -0.374E-26a.u.
   SCALEE = 1.0000    scale energy and forces
   NPACO  =    256;   APACO  = 16.0  distance and # of slots for P.C.
   PSTRESS=    0.0 pullay stress

  Mass of Ions in am
   POMASS =  12.01 14.00 55.85 50.94
  Ionic Valenz
   ZVAL   =   4.00  5.00  8.00  5.00
  Atomic Wigner-Seitz radii
   RWIGS  =  -1.00 -1.00 -1.00 -1.00
  virtual crystal weights 
   VCA    =   1.00  1.00  1.00  1.00
   NELECT =     239.0000    total number of electrons
   NUPDOWN=      -1.0000    fix difference up-down

 DOS related values:
   EMIN   =  10.00;   EMAX   =-10.00  energy-range for DOS
   EFERMI =   0.00
   ISMEAR =     0;   SIGMA  =   0.10  broadening in eV -4-tet -1-fermi 0-gaus

 Electronic relaxation 2 (details)
   IALGO  =     53    algorithm
   LDIAG  =      T    sub-space diagonalisation (order eigenvalues)
   LSUBROT=      F    optimize rotation matrix (better conditioning)
   TURBO    =      0    0=normal 1=particle mesh
   IRESTART =      0    0=no restart 2=restart with 2 vectors
   NREBOOT  =      0    no. of reboots
   NMIN     =      0    reboot dimension
   EREF     =   0.00    reference energy to select bands
   IMIX   =      4    mixing-type and parameters
     AMIX     =   0.40;   BMIX     =  1.00
     AMIX_MAG =   1.60;   BMIX_MAG =  1.00
     AMIN     =   0.10
     WC   =   100.;   INIMIX=   1;  MIXPRE=   1;  MAXMIX= -45

 Intra band minimization:
   WEIMIN = 0.0000     energy-eigenvalue tresh-hold
   EBREAK =  0.16E-06  absolut break condition
   DEPER  =   0.30     relativ break condition  

   TIME   =   0.20     timestep for ELM

  volume/ion in A,a.u.               =      54.77       369.63
  Fermi-wavevector in a.u.,A,eV,Ry     =   0.691100  1.305990  6.498411  0.477620
  Thomas-Fermi vector in A             =   1.772656
 
 Write flags
   LWAVE        =      T    write WAVECAR
   LDOWNSAMPLE  =      F    k-point downsampling of WAVECAR
   LCHARG       =      T    write CHGCAR
   LVTOT        =      F    write LOCPOT, total local potential
   LVHAR        =      F    write LOCPOT, Hartree potential only
   LELF         =      F    write electronic localiz. function (ELF)
   LORBIT       =     11    0 simple, 1 ext, 2 COOP (PROOUT), +10 PAW based schemes


 Dipole corrections
   LMONO  =      F    monopole corrections only (constant potential shift)
   LDIPOL =      T    correct potential (dipole corrections)
   IDIPOL =      3    1-x, 2-y, 3-z, 4-all directions 
   EPSILON=  1.0000000 bulk dielectric constant

 Exchange correlation treatment:
   GGA     =    PE    GGA type
   LEXCH   =     8    internal setting for exchange type
   VOSKOWN=      0    Vosko Wilk Nusair interpolation
   EXXOEP  =     0    0=HF, 1=EXX-LHF (local Hartree Fock) 2=EXX OEP
   LHFCALC =     T    Hartree Fock is set to
   LSYMGRAD=     F    symmetrize gradient (conserves proper symmetry)
   PRECFOCK=normal    Normal, Fast or Accurate (Low or Medium for compatibility)
   LRHFCALC=     F    long range Hartree Fock
   LRSCOR  =     F    long range correlation only (use DFT for short range part)
   LTHOMAS =     F    Thomas Fermi screening in HF
   LMODELHF=     F    short range full HF, long range fraction AEXX
   ENCUT4O =  -1.0   cutoff for four orbital integrals eV
   LMAXFOCK=     4    L truncation for augmentation on plane wave grid
   LMAXFOCKAE=  -1    L truncation for all-electron charge restoration on plane wave grid
   NMAXFOCKAE=   1    number of basis functions for all-electron charge restoration
   LFOCKAEDFT=     F  apply the AE augmentation even for DFT
   NKREDX  =     1    reduce k-point grid by
   NKREDY  =     1    reduce k-point grid by
   NKREDZ  =     1    reduce k-point grid by
   SHIFTRED=     F    shift reduced grid of Gamma
   HFKIDENT=     F    idential grid for each k-point
   ODDONLY =     F    use only odd q-grid points
   EVENONLY=     F    use only even q-grid points
   HFALPHA =   -1.0000 decay constant for conv. correction
   MCALPHA =    0.0000 extent of test-charge in conv. correction in multipole expansion
   AEXX    =    0.2500 exact exchange contribution
   HFSCREEN=    0.2000 screening length (either q_TF or 0.3 A-1)
   HFSCREENC=   0.2000 screening length for correlation (either q_TF or 0.3 A-1)
   HFRCUT  =    0.0000 spherical cutoff for potential kernel
   ALDAX   =    0.7500 LDA exchange part
   AGGAX   =    0.7500 GGA exchange part
   ALDAC   =    1.0000 LDA correlation
   AGGAC   =    1.0000 GGA correlation
   ENCUTFOCK=  -1.0 apply spherical cutoff to Coloumb kernel
   NBANDSGWLOW=     1    first orbital included in HF term
   NBLOCK_FOCK=    64    blocking factor in FOCK_ACC
 Linear response parameters
   LEPSILON=     F    determine dielectric tensor
   LRPA    =     F    only Hartree local field effects (RPA)
   LNABLA  =     F    use nabla operator in PAW spheres
   LVEL    =     F    velocity operator in full k-point grid
   LINTERFAST=   F  fast interpolation
   KINTER  =     0    interpolate to denser k-point grid
   CSHIFT  =0.1000    complex shift for real part using Kramers Kronig
   OMEGAMAX=  -1.0    maximum frequency
   DEG_THRESHOLD= 0.2000000E-02 threshold for treating states as degnerate
   RTIME   =   -0.100 relaxation time in fs
  (WPLASMAI=    0.000 imaginary part of plasma frequency in eV, 0.658/RTIME)
   DFIELD  = 0.0000000 0.0000000 0.0000000 field for delta impulse in time
 
 Orbital magnetization related:
   ORBITALMAG=     F  switch on orbital magnetization
   LCHIMAG   =     F  perturbation theory with respect to B field
   DQ        =  0.001000  dq finite difference perturbation B field
   LLRAUG    =     F  two centre corrections for induced B field



--------------------------------------------------------------------------------------------------------


 Static calculation
 charge density and potential will be updated during run
 spin polarized calculation
 Conjugate gradient for all bands (Freysoldt, et al. PRB 79, 241103 (2009))
 perform sub-space diagonalisation
    before iterative eigenvector-optimisation
 modified Broyden-mixing scheme, WC =      100.0
 initial mixing is a Kerker type mixing with AMIX =  0.4000 and BMIX =      1.0000
 Hartree-type preconditioning will be used
 using additional bands           33
 reciprocal scheme for non local part
 use partial core corrections
 no Harris-corrections to forces 
 use gradient corrections 
 use of overlap-Matrix (Vanderbilt PP)
 Gauss-broadening in eV      SIGMA  =   0.10


--------------------------------------------------------------------------------------------------------


  energy-cutoff  :      500.00
  volume of cell :     3176.87
      direct lattice vectors                 reciprocal lattice vectors
    12.790164483 -0.004318969  0.003125787     0.078185097  0.000033078 -0.000035323
    -0.005269529 12.456100837  0.000558502     0.000027107  0.080281956  0.000011452
     0.009010264 -0.002847599 19.940723124    -0.000012257 -0.000002254  0.050148638

  length of vectors
    12.790165594 12.456101964 19.940725363     0.078185112  0.080281961  0.050148639


 
 k-points in units of 2pi/SCALE and weight: KPOINTS created by Atomic Simulation Env
   0.01955305  0.02007876 -0.00000597       0.500
  -0.01953950  0.02006222  0.00001169       0.500
 
 k-points in reciprocal lattice and weights: KPOINTS created by Atomic Simulation Env
   0.25000000  0.25000000  0.00000000       0.500
  -0.25000000  0.25000000 -0.00000000       0.500
 
 position of ions in fractional coordinates (direct lattice) 
   0.22091420  0.00030413  0.50089200
   0.05496277  0.10057593  0.50096308
   0.11002708  0.00022180  0.50126599
   0.27705149  0.09999047  0.50057369
   0.22327899  0.20053532  0.50068339
   0.05440652  0.29984090  0.50111401
   0.11095504  0.20034643  0.50077836
   0.28175428  0.29996385  0.50092143
   0.22320516  0.39924949  0.50139821
   0.05427905  0.49888601  0.50201384
   0.11122307  0.39951575  0.50150944
   0.27931321  0.49975323  0.50116043
   0.22206504  0.59938195  0.50188165
   0.05464953  0.69938998  0.50288835
   0.11091006  0.59906510  0.50258281
   0.27846163  0.70017279  0.50160892
   0.22156374  0.79983383  0.50236519
   0.05504802  0.89965697  0.50201258
   0.11010985  0.79960060  0.50272464
   0.27622926  0.90013495  0.50098339
   0.55463672  0.99956820  0.50019562
   0.38851117  0.09943158  0.50074545
   0.44350928  0.99974314  0.49996530
   0.61114568  0.09816641  0.50113362
   0.55657852  0.19642565  0.50165889
   0.44461159  0.19827370  0.50122619
   0.55565714  0.80207475  0.49826142
   0.38721492  0.90078303  0.49949522
   0.44224379  0.80109341  0.49856450
   0.61090840  0.90104815  0.49979492
   0.88883094  0.99991512  0.50155675
   0.72219409  0.09871441  0.50133848
   0.77811290  0.99947357  0.50149820
   0.94330060  0.10056764  0.50118258
   0.88693762  0.20018381  0.50119871
   0.71503873  0.29778159  0.50115674
   0.77496890  0.19942524  0.50132430
   0.94243543  0.29995076  0.50132977
   0.88458019  0.39915702  0.50133052
   0.71697965  0.49991215  0.49565583
   0.77181855  0.39876094  0.50030825
   0.94210634  0.49874196  0.50152734
   0.88642502  0.59892277  0.50121989
   0.71989253  0.70015281  0.49930425
   0.77543980  0.59948226  0.49829969
   0.94329212  0.69928055  0.50244816
   0.88839929  0.79965762  0.50224727
   0.72218757  0.89986638  0.50121825
   0.77692163  0.79983813  0.50161930
   0.94396848  0.89959589  0.50199588
   0.39384314  0.30023523  0.50099315
   0.38895702  0.49357784  0.49869650
   0.38831379  0.70150648  0.49837410
   0.61006425  0.70360326  0.49662411
   0.60687901  0.29424242  0.50186252
   0.61233514  0.50233871  0.48733924
   0.50156589  0.41342201  0.50167103
   0.50314619  0.60123593  0.46282665
 
 position of ions in cartesian coordinates  (Angst):
   2.83004058  0.00140778  9.98883935
   0.70696663  1.25112000  9.98979405
   1.41177978  0.00086010  9.99595043
   3.54751757  1.24286931  9.98272321
   2.85922960  2.49549805  9.98479880
   0.69880343  3.73318652  9.99291335
   1.42258960  2.49363011  9.98634133
   3.60661633  3.73373669  9.98978379
   2.85724456  4.97070005  9.99916348
   0.69613236  6.21251052 10.01096720
   1.42497485  4.97449996 10.00103173
   3.57434408  6.22234316  9.99465352
   2.84161204  7.46357379 10.00891183
   0.69982218  8.71000410 10.02851875
   1.41992949  7.46010518 10.02254588
   3.56240015  8.71879188 10.00370611
   2.83414843  9.96042341 10.01866434
   0.70385567 11.20455067 10.01116836
   1.40863919  9.95799860 10.02548354
   3.53278840 11.20955211  9.99133730
   7.09313456 12.44690249  9.97655432
   4.97310972  1.23542587  9.98649633
   5.67179323 12.44956215  9.97161426
   7.82065179  1.21870417  9.99493197
   7.12221577  2.44286532 10.00529046
   5.69012673  2.46636964  9.99631326
   7.10720910  9.98690522  9.93787792
   4.95229638 11.21714954  9.96200941
   5.65664167  9.97517054  9.94356649
   7.81337409 11.21948496  9.96868484
  11.36754400 12.44977645 10.00474101
   9.24097815  1.22504989  9.99936441
   9.95144382 12.44475481 10.00322710
  12.06895568  1.24717937  9.99694788
  11.34753914  2.48825190  9.99714884
   9.14840935  3.70468225  9.99582921
   9.91544584  2.47928631  9.99930289
  12.05684069  3.73071895  9.99999152
  11.31633993  4.96669199  9.99988101
   9.17211935  6.22244813  9.88625593
   9.87409282  4.96224829  9.97914346
  12.05158584  6.20688305 10.00404129
  11.33888186  7.45498670  9.99779231
   9.20835320  8.71664297  9.95912916
   9.91933342  7.46244338  9.93921474
  12.06570369  8.70480429 10.02251869
  11.36308467  9.95534884 10.01839740
   9.23667204 11.20428003  9.99741424
   9.93726039  9.95808054 10.00552677
  12.07329482 11.19995061 10.01361383
   5.04025054  3.73663264  9.99156451
   4.97671667  6.14495538  9.94586023
   4.96739111  8.73493918  9.93954557
   7.80358917  8.76010410  9.90534380
   7.76505371  3.66106310 10.00956285
   7.83361109  6.25314923  9.72009146
   6.41745184  5.14603142 10.00548182
   6.43632454  7.48556433  9.23100669
 


--------------------------------------------------------------------------------------------------------


 k-point  1 :   0.2500 0.2500 0.0000  plane waves:   80649
 k-point  2 :  -0.2500 0.2500-0.0000  plane waves:   80655

 maximum and minimum number of plane-waves per node :      2552     2482

 maximum number of plane-waves:     80655
 maximum index in each direction: 
   IXMAX=   23   IYMAX=   22   IZMAX=   36
   IXMIN=  -23   IYMIN=  -22   IZMIN=  -36


 parallel 3D FFT for wavefunctions:
    minimum data exchange during FFTs selected (reduces bandwidth)
 parallel 3D FFT for charge:
    minimum data exchange during FFTs selected (reduces bandwidth)


 FFT grid for exact exchange (Hartree Fock) 
  NGX = 70; NGY = 70; NGZ =112

 
 Radii for the augmentation spheres in the non-local exchange
 for species   1 augmentation radius   0.874 (default was   0.699)
       energy cutoff for augmentation   2000.0
 for species   2 augmentation radius   0.886 (default was   0.709)
       energy cutoff for augmentation   2000.0
 for species   3 augmentation radius   1.263 (default was   1.010)
       energy cutoff for augmentation   2000.0
 for species   4 augmentation radius   1.508 (default was   1.206)
       energy cutoff for augmentation   2000.0

 real space projection operators:
  total allocation   :       2649.68 KBytes
  max/ min on nodes  :        143.12         38.67

 Maximum index for augmentation-charges in exchange          189
  SETUP_FOCK is finished

 total amount of memory used by VASP MPI-rank0   165160. kBytes
=======================================================================

   base      :      30000. kBytes
   nonl-proj :       5324. kBytes
   fftplans  :      14250. kBytes
   grid      :      36827. kBytes
   one-center:         62. kBytes
   HF        :         23. kBytes
   nonlr-proj:       2708. kBytes
   wavefun   :      75966. kBytes
 
     INWAV:  cpu time    0.0000: real time    0.0000
 Broyden mixing: mesh for mixing (old mesh)
   NGX = 47   NGY = 45   NGZ = 73
  (NGX  =192   NGY  =192   NGZ  =300)
  gives a total of 154395 points

 initial charge density was supplied:
 charge density of overlapping atoms calculated
 number of electron     239.0000000 magnetization       7.0000000
 charge density for first step will be calculated from the start-wavefunctions


--------------------------------------------------------------------------------------------------------


 Maximum index for augmentation-charges         1061 (set IRDMAX)


--------------------------------------------------------------------------------------------------------


 First call to EWALD:  gamma=   0.121
 Maximum number of real-space cells 3x 3x 2
 Maximum number of reciprocal cells 2x 2x 4

    FEWALD:  cpu time    0.0020: real time    0.0020


--------------------------------------- Iteration      1(   1)  ---------------------------------------


    POTLOK:  cpu time    1.4181: real time    1.4185
    SETDIJ:  cpu time    2.0660: real time    2.0667
    TRIAL :  cpu time   10.4783: real time   10.4839
    CORREC:  cpu time    0.0020: real time    0.0022
    --------------------------------------------
      LOOP:  cpu time   13.9771: real time   13.9910

 eigenvalue-minimisations  :  1820
 total energy-change (2. order) : 0.4003584E+04  (-0.6821738E+04)
 number of electron     239.0000000 magnetization       7.0000000
 augmentation part      239.0000000 magnetization       7.0000000

 DIPCOR: dipole corrections for dipol
 direction  3 min pos     1,
 dipolmoment          -0.000000      0.000000     -0.000005 electrons x Angstroem
 Tr[quadrupol]     -6387.576039

 energy correction for charged system         0.000000 eV
 dipol+quadrupol energy correction            0.000000 eV
 added-field ion interaction          0.000000 eV  (added to PSCEN)


 Free energy of the ion-electron system (eV)
  ---------------------------------------------------
  alpha Z        PSCENC =        97.83575549
  Ewald energy   TEWEN  =     37485.48359562
  -Hartree energ DENC   =    -44402.35936325
  -exchange      EXHF   =         0.00000000
  -V(xc)+E(xc)   XCENC  =       541.76344881
  PAW double counting   =      7159.37397720    -7149.97079097
  entropy T*S    EENTRO =        -0.08837871
  eigenvalues    EBANDS =      1141.64407828
  atomic energy  EATOM  =      9129.90159310
  ---------------------------------------------------
  free energy    TOTEN  =      4003.58391558 eV

  energy without entropy =     4003.67229429  energy(sigma->0) =     4003.62810493
  exchange ACFDT corr.  =         0.00000000  see jH, gK, PRB 81, 115126


--------------------------------------------------------------------------------------------------------




--------------------------------------- Iteration      1(   2)  ---------------------------------------


    TRIAL :  cpu time   13.3837: real time   13.3924
    CORREC:  cpu time    0.0021: real time    0.0023
    --------------------------------------------
      LOOP:  cpu time   13.3876: real time   13.3969

 eigenvalue-minimisations  :  2448
 total energy-change (2. order) :-0.2047126E+04  (-0.1880416E+04)
 number of electron     239.0000000 magnetization       7.0000000
 augmentation part      239.0000000 magnetization       7.0000000

 DIPCOR: dipole corrections for dipol
 direction  3 min pos     1,
 dipolmoment          -0.000000      0.000000     -0.000005 electrons x Angstroem
 Tr[quadrupol]     -6387.576039

 energy correction for charged system         0.000000 eV
 dipol+quadrupol energy correction            0.000000 eV
 added-field ion interaction          0.000000 eV  (added to PSCEN)


 Free energy of the ion-electron system (eV)
  ---------------------------------------------------
  alpha Z        PSCENC =        97.83575549
  Ewald energy   TEWEN  =     37485.48359562
  -Hartree energ DENC   =    -44402.35936325
  -exchange      EXHF   =         0.00000000
  -V(xc)+E(xc)   XCENC  =       541.76344881
  PAW double counting   =      7159.37397720    -7149.97079097
  entropy T*S    EENTRO =        -0.11809631
  eigenvalues    EBANDS =      -905.45244549
  atomic energy  EATOM  =      9129.90159310
  ---------------------------------------------------
  free energy    TOTEN  =      1956.45767420 eV

  energy without entropy =     1956.57577051  energy(sigma->0) =     1956.51672236
  exchange ACFDT corr.  =         0.00000000  see jH, gK, PRB 81, 115126


--------------------------------------------------------------------------------------------------------




--------------------------------------- Iteration      1(   3)  ---------------------------------------


    TRIAL :  cpu time   13.4043: real time   13.4075
    CORREC:  cpu time    0.0020: real time    0.0022
    --------------------------------------------
      LOOP:  cpu time   13.4072: real time   13.4106

 eigenvalue-minimisations  :  2448
 total energy-change (2. order) :-0.1139796E+04  (-0.1051121E+04)
 number of electron     239.0000000 magnetization       7.0000000
 augmentation part      239.0000000 magnetization       7.0000000

 DIPCOR: dipole corrections for dipol
 direction  3 min pos     1,
 dipolmoment          -0.000000      0.000000     -0.000005 electrons x Angstroem
 Tr[quadrupol]     -6387.576039

 energy correction for charged system         0.000000 eV
 dipol+quadrupol energy correction            0.000000 eV
 added-field ion interaction          0.000000 eV  (added to PSCEN)


 Free energy of the ion-electron system (eV)
  ---------------------------------------------------
  alpha Z        PSCENC =        97.83575549
  Ewald energy   TEWEN  =     37485.48359562
  -Hartree energ DENC   =    -44402.35936325
  -exchange      EXHF   =         0.00000000
  -V(xc)+E(xc)   XCENC  =       541.76344881
  PAW double counting   =      7159.37397720    -7149.97079097
  entropy T*S    EENTRO =        -0.09420592
  eigenvalues    EBANDS =     -2045.27189526
  atomic energy  EATOM  =      9129.90159310
  ---------------------------------------------------
  free energy    TOTEN  =       816.66211481 eV

  energy without entropy =      816.75632074  energy(sigma->0) =      816.70921777
  exchange ACFDT corr.  =         0.00000000  see jH, gK, PRB 81, 115126


--------------------------------------------------------------------------------------------------------




--------------------------------------- Iteration      1(   4)  ---------------------------------------


    TRIAL :  cpu time   13.4016: real time   13.4034
    CORREC:  cpu time    0.0021: real time    0.0024
    --------------------------------------------
      LOOP:  cpu time   13.4046: real time   13.4066

 eigenvalue-minimisations  :  2448
 total energy-change (2. order) :-0.5333318E+03  (-0.4968331E+03)
 number of electron     239.0000000 magnetization       7.0000000
 augmentation part      239.0000000 magnetization       7.0000000

 DIPCOR: dipole corrections for dipol
 direction  3 min pos     1,
 dipolmoment          -0.000000      0.000000     -0.000005 electrons x Angstroem
 Tr[quadrupol]     -6387.576039

 energy correction for charged system         0.000000 eV
 dipol+quadrupol energy correction            0.000000 eV
 added-field ion interaction          0.000000 eV  (added to PSCEN)


 Free energy of the ion-electron system (eV)
  ---------------------------------------------------
  alpha Z        PSCENC =        97.83575549
  Ewald energy   TEWEN  =     37485.48359562
  -Hartree energ DENC   =    -44402.35936325
  -exchange      EXHF   =         0.00000000
  -V(xc)+E(xc)   XCENC  =       541.76344881
  PAW double counting   =      7159.37397720    -7149.97079097
  entropy T*S    EENTRO =        -0.05807482
  eigenvalues    EBANDS =     -2578.63978224
  atomic energy  EATOM  =      9129.90159310
  ---------------------------------------------------
  free energy    TOTEN  =       283.33035895 eV

  energy without entropy =      283.38843376  energy(sigma->0) =      283.35939636
  exchange ACFDT corr.  =         0.00000000  see jH, gK, PRB 81, 115126


--------------------------------------------------------------------------------------------------------




--------------------------------------- Iteration      1(   5)  ---------------------------------------


    TRIAL :  cpu time   13.3943: real time   13.3963
    CORREC:  cpu time    0.0020: real time    0.0023
    CHARGE:  cpu time    1.6613: real time    1.6621
    --------------------------------------------
      LOOP:  cpu time   15.0585: real time   15.0615

 eigenvalue-minimisations  :  2448
 total energy-change (2. order) :-0.2436857E+03  (-0.2327399E+03)
 number of electron     238.9999998 magnetization       3.3921989
 augmentation part       11.0247640 magnetization       2.1756279

 DIPCOR: dipole corrections for dipol
 direction  3 min pos     1,
 dipolmoment          -0.000000      0.000000     -0.000005 electrons x Angstroem
 Tr[quadrupol]     -6387.576039

 energy correction for charged system         0.000000 eV
 dipol+quadrupol energy correction            0.000000 eV
 added-field ion interaction          0.000000 eV  (added to PSCEN)


 Free energy of the ion-electron system (eV)
  ---------------------------------------------------
  alpha Z        PSCENC =        97.83575549
  Ewald energy   TEWEN  =     37485.48359562
  -Hartree energ DENC   =    -44402.35936325
  -exchange      EXHF   =         0.00000000
  -V(xc)+E(xc)   XCENC  =       541.76344881
  PAW double counting   =      7159.37397720    -7149.97079097
  entropy T*S    EENTRO =        -0.04162401
  eigenvalues    EBANDS =     -2822.34191908
  atomic energy  EATOM  =      9129.90159310
  ---------------------------------------------------
  free energy    TOTEN  =        39.64467291 eV

  energy without entropy =       39.68629692  energy(sigma->0) =       39.66548491
  exchange ACFDT corr.  =         0.00000000  see jH, gK, PRB 81, 115126


--------------------------------------------------------------------------------------------------------




--------------------------------------- Iteration      1(   6)  ---------------------------------------


    POTLOK:  cpu time    1.4105: real time    1.4107
    SETDIJ:  cpu time    2.0871: real time    2.0884
    TRIAL :  cpu time  508.4158: real time  508.4926
    CORREC:  cpu time    0.0023: real time    0.0025
    CHARGE:  cpu time    1.6576: real time    1.6578
    --------------------------------------------
      LOOP:  cpu time  513.5757: real time  514.0295

 eigenvalue-minimisations  :     0
 total energy-change (2. order) :-0.4482167E+03  (-0.2322031E+03)
 number of electron     238.9999994 magnetization       1.8617454
 augmentation part       12.2225148 magnetization       1.4339300

 DIPCOR: dipole corrections for dipol
 direction  3 min pos     1,
 dipolmoment          -0.000201      0.000064     -0.445244 electrons x Angstroem
 Tr[quadrupol]     -6190.359400

 energy correction for charged system         0.000000 eV
 dipol+quadrupol energy correction            0.005668 eV
 added-field ion interaction          0.000000 eV  (added to PSCEN)


 Free energy of the ion-electron system (eV)
  ---------------------------------------------------
  alpha Z        PSCENC =        97.84142391
  Ewald energy   TEWEN  =     37485.48359562
  -Hartree energ DENC   =    -42630.20905079
  -exchange      EXHF   =       499.99187732
  -V(xc)+E(xc)   XCENC  =       545.06958391
  PAW double counting   =     25819.43552692   -25809.31273094
  entropy T*S    EENTRO =        -0.04120796
  eigenvalues    EBANDS =     -5546.73221434
  atomic energy  EATOM  =      9129.90159310
  ---------------------------------------------------
  free energy    TOTEN  =      -408.57201929 eV

  energy without entropy =     -408.53081133  energy(sigma->0) =     -408.55141531
  exchange ACFDT corr.  =        -0.04123625  see jH, gK, PRB 81, 115126


--------------------------------------------------------------------------------------------------------




--------------------------------------- Iteration      1(   7)  ---------------------------------------


    POTLOK:  cpu time    1.4135: real time    1.4138
    SETDIJ:  cpu time    2.0848: real time    2.0850
    TRIAL :  cpu time  508.3607: real time  508.4285
    CORREC:  cpu time    0.0022: real time    0.0025
    CHARGE:  cpu time    1.6532: real time    1.6534
    --------------------------------------------
      LOOP:  cpu time  513.5161: real time  513.5848

 eigenvalue-minimisations  :     0
 total energy-change (2. order) :-0.9632737E+02  (-0.1160147E+03)
 number of electron     238.9999998 magnetization       3.4358366
 augmentation part       11.5489513 magnetization       2.4383216

 DIPCOR: dipole corrections for dipol
 direction  3 min pos     1,
 dipolmoment           0.000540     -0.000171      1.196178 electrons x Angstroem
 Tr[quadrupol]     -6356.342873

 energy correction for charged system         0.000000 eV
 dipol+quadrupol energy correction            0.040913 eV
 added-field ion interaction          0.000000 eV  (added to PSCEN)


 Free energy of the ion-electron system (eV)
  ---------------------------------------------------
  alpha Z        PSCENC =        97.87666813
  Ewald energy   TEWEN  =     37485.48359562
  -Hartree energ DENC   =    -44854.38929142
  -exchange      EXHF   =       521.61412975
  -V(xc)+E(xc)   XCENC  =       563.69666851
  PAW double counting   =     26826.69326464   -26841.81720181
  entropy T*S    EENTRO =        -0.03787058
  eigenvalues    EBANDS =     -3433.91760607
  atomic energy  EATOM  =      9129.90159310
  ---------------------------------------------------
  free energy    TOTEN  =      -504.89938752 eV

  energy without entropy =     -504.86151694  energy(sigma->0) =     -504.88045223
  exchange ACFDT corr.  =        -0.53292824  see jH, gK, PRB 81, 115126


--------------------------------------------------------------------------------------------------------




--------------------------------------- Iteration      1(   8)  ---------------------------------------


    POTLOK:  cpu time    1.4249: real time    1.4251
    SETDIJ:  cpu time    2.0915: real time    2.0917
    TRIAL :  cpu time  510.5750: real time  510.6541
    CORREC:  cpu time    0.0021: real time    0.0023
    CHARGE:  cpu time    1.6672: real time    1.6723
    --------------------------------------------
      LOOP:  cpu time  515.7632: real time  515.8502

 eigenvalue-minimisations  :     0
 total energy-change (2. order) :-0.5108503E+02  (-0.2893693E+02)
 number of electron     238.9999998 magnetization       3.5071659
 augmentation part       11.4325997 magnetization       2.4892116

 DIPCOR: dipole corrections for dipol
 direction  3 min pos     1,
 dipolmoment          -0.000075      0.000024     -0.166117 electrons x Angstroem
 Tr[quadrupol]     -6378.656983

 energy correction for charged system         0.000000 eV
 dipol+quadrupol energy correction            0.000789 eV
 added-field ion interaction          0.000000 eV  (added to PSCEN)


 Free energy of the ion-electron system (eV)
  ---------------------------------------------------
  alpha Z        PSCENC =        97.83654452
  Ewald energy   TEWEN  =     37485.48359562
  -Hartree energ DENC   =    -45041.18012219
  -exchange      EXHF   =       524.91851455
  -V(xc)+E(xc)   XCENC  =       563.14884304
  PAW double counting   =     26474.00761728   -26468.99372615
  entropy T*S    EENTRO =        -0.03907082
  eigenvalues    EBANDS =     -3321.06940380
  atomic energy  EATOM  =      9129.90159310
  ---------------------------------------------------
  free energy    TOTEN  =      -555.98441462 eV

  energy without entropy =     -555.94534380  energy(sigma->0) =     -555.96487921
  exchange ACFDT corr.  =        -3.63350331  see jH, gK, PRB 81, 115126


--------------------------------------------------------------------------------------------------------




--------------------------------------- Iteration      1(   9)  ---------------------------------------


    POTLOK:  cpu time    1.4197: real time    1.4198
    SETDIJ:  cpu time    2.0880: real time    2.0882
    TRIAL :  cpu time  509.3222: real time  509.3969
    CORREC:  cpu time    0.0019: real time    0.0022
    CHARGE:  cpu time    1.6506: real time    1.6509
    --------------------------------------------
      LOOP:  cpu time  514.4848: real time  514.5603

 eigenvalue-minimisations  :     0
 total energy-change (2. order) :-0.1973697E+02  (-0.1916443E+02)
 number of electron     238.9999997 magnetization       3.1790082
 augmentation part       11.5255316 magnetization       2.2814864

 DIPCOR: dipole corrections for dipol
 direction  3 min pos     1,
 dipolmoment           0.000052     -0.000017      0.115846 electrons x Angstroem
 Tr[quadrupol]     -6380.674296

 energy correction for charged system         0.000000 eV
 dipol+quadrupol energy correction            0.000384 eV
 added-field ion interaction          0.000000 eV  (added to PSCEN)


 Free energy of the ion-electron system (eV)
  ---------------------------------------------------
  alpha Z        PSCENC =        97.83613922
  Ewald energy   TEWEN  =     37485.48359562
  -Hartree energ DENC   =    -45079.17206782
  -exchange      EXHF   =       526.06836292
  -V(xc)+E(xc)   XCENC  =       563.18690384
  PAW double counting   =     26420.23988819   -26416.86024304
  entropy T*S    EENTRO =        -0.03994237
  eigenvalues    EBANDS =     -3302.36648149
  atomic energy  EATOM  =      9129.90159310
  ---------------------------------------------------
  free energy    TOTEN  =      -575.72138029 eV

  energy without entropy =     -575.68143792  energy(sigma->0) =     -575.70140910
  exchange ACFDT corr.  =        -0.84141847  see jH, gK, PRB 81, 115126


--------------------------------------------------------------------------------------------------------




--------------------------------------- Iteration      1(  10)  ---------------------------------------


    POTLOK:  cpu time    1.4261: real time    1.4262
    SETDIJ:  cpu time    2.0851: real time    2.0853
    TRIAL :  cpu time  510.0601: real time  510.1333
    CORREC:  cpu time    0.0022: real time    0.0024
    CHARGE:  cpu time    1.6499: real time    1.6501
    --------------------------------------------
      LOOP:  cpu time  515.2258: real time  515.2997

 eigenvalue-minimisations  :     0
 total energy-change (2. order) :-0.8748492E+01  (-0.1929575E+02)
 number of electron     238.9999998 magnetization       3.8503077
 augmentation part       11.2560515 magnetization       2.6321712

 DIPCOR: dipole corrections for dipol
 direction  3 min pos     1,
 dipolmoment           0.000254     -0.000080      0.562680 electrons x Angstroem
 Tr[quadrupol]     -6389.660026

 energy correction for charged system         0.000000 eV
 dipol+quadrupol energy correction            0.009053 eV
 added-field ion interaction          0.000000 eV  (added to PSCEN)


 Free energy of the ion-electron system (eV)
  ---------------------------------------------------
  alpha Z        PSCENC =        97.84480841
  Ewald energy   TEWEN  =     37485.48359562
  -Hartree energ DENC   =    -45201.31242797
  -exchange      EXHF   =       527.24985681
  -V(xc)+E(xc)   XCENC  =       563.96414360
  PAW double counting   =     26465.71336064   -26468.13351156
  entropy T*S    EENTRO =        -0.02747127
  eigenvalues    EBANDS =     -3185.14134833
  atomic energy  EATOM  =      9129.90159310
  ---------------------------------------------------
  free energy    TOTEN  =      -584.46987205 eV

  energy without entropy =     -584.44240079  energy(sigma->0) =     -584.45613642
  exchange ACFDT corr.  =        -0.63181876  see jH, gK, PRB 81, 115126


--------------------------------------------------------------------------------------------------------




--------------------------------------- Iteration      1(  11)  ---------------------------------------


    POTLOK:  cpu time    1.4350: real time    1.4353
    SETDIJ:  cpu time    2.0895: real time    2.0900
    TRIAL :  cpu time  511.4087: real time  511.5359
    CORREC:  cpu time    0.0020: real time    0.0023
    CHARGE:  cpu time    1.6500: real time    1.6504
    --------------------------------------------
      LOOP:  cpu time  516.5876: real time  516.7163

 eigenvalue-minimisations  :     0
 total energy-change (2. order) :-0.9768940E+01  (-0.4887368E+01)
 number of electron     238.9999998 magnetization       3.9489904
 augmentation part       11.2295937 magnetization       2.6804166

 DIPCOR: dipole corrections for dipol
 direction  3 min pos     1,
 dipolmoment           0.000100     -0.000032      0.222224 electrons x Angstroem
 Tr[quadrupol]     -6396.135531

 energy correction for charged system         0.000000 eV
 dipol+quadrupol energy correction            0.001412 eV
 added-field ion interaction          0.000000 eV  (added to PSCEN)


 Free energy of the ion-electron system (eV)
  ---------------------------------------------------
  alpha Z        PSCENC =        97.83716753
  Ewald energy   TEWEN  =     37485.48359562
  -Hartree energ DENC   =    -45213.88718060
  -exchange      EXHF   =       528.26157605
  -V(xc)+E(xc)   XCENC  =       563.29988933
  PAW double counting   =     26328.17196584   -26324.60485845
  entropy T*S    EENTRO =        -0.01811528
  eigenvalues    EBANDS =     -3188.67508908
  atomic energy  EATOM  =      9129.90159310
  ---------------------------------------------------
  free energy    TOTEN  =      -594.23881193 eV

  energy without entropy =     -594.22069665  energy(sigma->0) =     -594.22975429
  exchange ACFDT corr.  =        -0.20069530  see jH, gK, PRB 81, 115126


--------------------------------------------------------------------------------------------------------




--------------------------------------- Iteration      1(  12)  ---------------------------------------


    POTLOK:  cpu time    1.4378: real time    1.4381
    SETDIJ:  cpu time    2.0827: real time    2.0831
    TRIAL :  cpu time  508.4004: real time  508.5353
    CORREC:  cpu time    0.0020: real time    0.0023
    CHARGE:  cpu time    1.6449: real time    1.6451
    --------------------------------------------
      LOOP:  cpu time  513.5700: real time  513.7061

 eigenvalue-minimisations  :     0
 total energy-change (2. order) :-0.3688879E+01  (-0.3973115E+01)
 number of electron     238.9999998 magnetization       3.9045313
 augmentation part       11.2917511 magnetization       2.6541458

 DIPCOR: dipole corrections for dipol
 direction  3 min pos     1,
 dipolmoment           0.000087     -0.000028      0.193335 electrons x Angstroem
 Tr[quadrupol]     -6398.805284

 energy correction for charged system         0.000000 eV
 dipol+quadrupol energy correction            0.001069 eV
 added-field ion interaction          0.000000 eV  (added to PSCEN)


 Free energy of the ion-electron system (eV)
  ---------------------------------------------------
  alpha Z        PSCENC =        97.83682427
  Ewald energy   TEWEN  =     37485.48359562
  -Hartree energ DENC   =    -45243.97067773
  -exchange      EXHF   =       529.16575196
  -V(xc)+E(xc)   XCENC  =       563.53007327
  PAW double counting   =     26258.62496518   -26254.61246682
  entropy T*S    EENTRO =        -0.01697597
  eigenvalues    EBANDS =     -3163.86923417
  atomic energy  EATOM  =      9129.90159310
  ---------------------------------------------------
  free energy    TOTEN  =      -597.92769060 eV

  energy without entropy =     -597.91071463  energy(sigma->0) =     -597.91920262
  exchange ACFDT corr.  =        -0.01810856  see jH, gK, PRB 81, 115126


--------------------------------------------------------------------------------------------------------




--------------------------------------- Iteration      1(  13)  ---------------------------------------


    POTLOK:  cpu time    1.4385: real time    1.4388
    SETDIJ:  cpu time    2.0888: real time    2.0893
    TRIAL :  cpu time  509.1388: real time  509.2369
    CORREC:  cpu time    0.0022: real time    0.0025
    CHARGE:  cpu time    1.6405: real time    1.6406
    --------------------------------------------
      LOOP:  cpu time  514.3106: real time  514.4099

 eigenvalue-minimisations  :     0
 total energy-change (2. order) :-0.2906406E+01  (-0.2210501E+01)
 number of electron     238.9999998 magnetization       3.8110912
 augmentation part       11.3088300 magnetization       2.6441137

 DIPCOR: dipole corrections for dipol
 direction  3 min pos     1,
 dipolmoment           0.000139     -0.000044      0.308608 electrons x Angstroem
 Tr[quadrupol]     -6400.159519

 energy correction for charged system         0.000000 eV
 dipol+quadrupol energy correction            0.002723 eV
 added-field ion interaction          0.000000 eV  (added to PSCEN)


 Free energy of the ion-electron system (eV)
  ---------------------------------------------------
  alpha Z        PSCENC =        97.83847869
  Ewald energy   TEWEN  =     37485.48359562
  -Hartree energ DENC   =    -45284.76434306
  -exchange      EXHF   =       530.23704689
  -V(xc)+E(xc)   XCENC  =       564.29454639
  PAW double counting   =     26222.45028541   -26220.24170528
  entropy T*S    EENTRO =        -0.02185877
  eigenvalues    EBANDS =     -3126.01661810
  atomic energy  EATOM  =      9129.90159310
  ---------------------------------------------------
  free energy    TOTEN  =      -600.83409630 eV

  energy without entropy =     -600.81223754  energy(sigma->0) =     -600.82316692
  exchange ACFDT corr.  =        -0.01243849  see jH, gK, PRB 81, 115126


--------------------------------------------------------------------------------------------------------




--------------------------------------- Iteration      1(  14)  ---------------------------------------


    POTLOK:  cpu time    1.4422: real time    1.4424
    SETDIJ:  cpu time    2.0890: real time    2.0892
    TRIAL :  cpu time  507.1692: real time  507.2393
    CORREC:  cpu time    0.0022: real time    0.0025
    CHARGE:  cpu time    1.6536: real time    1.6538
    --------------------------------------------
      LOOP:  cpu time  512.3597: real time  512.4306

 eigenvalue-minimisations  :     0
 total energy-change (2. order) :-0.1892753E+01  (-0.1848920E+01)
 number of electron     238.9999998 magnetization       3.6535637
 augmentation part       11.2864510 magnetization       2.6520442

 DIPCOR: dipole corrections for dipol
 direction  3 min pos     1,
 dipolmoment           0.000157     -0.000050      0.348023 electrons x Angstroem
 Tr[quadrupol]     -6401.220455

 energy correction for charged system         0.000000 eV
 dipol+quadrupol energy correction            0.003463 eV
 added-field ion interaction          0.000000 eV  (added to PSCEN)


 Free energy of the ion-electron system (eV)
  ---------------------------------------------------
  alpha Z        PSCENC =        97.83921872
  Ewald energy   TEWEN  =     37485.48359562
  -Hartree energ DENC   =    -45312.09510379
  -exchange      EXHF   =       531.03424997
  -V(xc)+E(xc)   XCENC  =       564.81205835
  PAW double counting   =     26186.76171589   -26184.92637229
  entropy T*S    EENTRO =        -0.02792821
  eigenvalues    EBANDS =     -3101.51594565
  atomic energy  EATOM  =      9129.90159310
  ---------------------------------------------------
  free energy    TOTEN  =      -602.72684885 eV

  energy without entropy =     -602.69892064  energy(sigma->0) =     -602.71288474
  exchange ACFDT corr.  =        -0.01680572  see jH, gK, PRB 81, 115126


--------------------------------------------------------------------------------------------------------




--------------------------------------- Iteration      1(  15)  ---------------------------------------


    POTLOK:  cpu time    1.4427: real time    1.4429
    SETDIJ:  cpu time    2.0845: real time    2.0847
    TRIAL :  cpu time  507.4620: real time  507.5403
    CORREC:  cpu time    0.0023: real time    0.0025
    CHARGE:  cpu time    1.6366: real time    1.6367
    --------------------------------------------
      LOOP:  cpu time  512.6307: real time  512.7096

 eigenvalue-minimisations  :     0
 total energy-change (2. order) :-0.1562871E+01  (-0.1174244E+01)
 number of electron     238.9999998 magnetization       3.4368046
 augmentation part       11.2864935 magnetization       2.6490706

 DIPCOR: dipole corrections for dipol
 direction  3 min pos     1,
 dipolmoment           0.000144     -0.000045      0.318311 electrons x Angstroem
 Tr[quadrupol]     -6401.970587

 energy correction for charged system         0.000000 eV
 dipol+quadrupol energy correction            0.002897 eV
 added-field ion interaction          0.000000 eV  (added to PSCEN)


 Free energy of the ion-electron system (eV)
  ---------------------------------------------------
  alpha Z        PSCENC =        97.83865263
  Ewald energy   TEWEN  =     37485.48359562
  -Hartree energ DENC   =    -45322.98608654
  -exchange      EXHF   =       531.48007814
  -V(xc)+E(xc)   XCENC  =       564.97735039
  PAW double counting   =     26145.55802107   -26142.80274036
  entropy T*S    EENTRO =        -0.02900912
  eigenvalues    EBANDS =     -3093.71225583
  atomic energy  EATOM  =      9129.90159310
  ---------------------------------------------------
  free energy    TOTEN  =      -604.28971999 eV

  energy without entropy =     -604.26071087  energy(sigma->0) =     -604.27521543
  exchange ACFDT corr.  =        -0.04910377  see jH, gK, PRB 81, 115126


--------------------------------------------------------------------------------------------------------




--------------------------------------- Iteration      1(  16)  ---------------------------------------


    POTLOK:  cpu time    1.4465: real time    1.4467
    SETDIJ:  cpu time    2.0873: real time    2.0876
    TRIAL :  cpu time  507.5669: real time  507.6357
    CORREC:  cpu time    0.0022: real time    0.0024
    CHARGE:  cpu time    1.6373: real time    1.6376
    --------------------------------------------
      LOOP:  cpu time  512.7428: real time  512.8125

 eigenvalue-minimisations  :     0
 total energy-change (2. order) :-0.1028750E+01  (-0.8639676E+00)
 number of electron     238.9999998 magnetization       3.2306007
 augmentation part       11.3115867 magnetization       2.6361988

 DIPCOR: dipole corrections for dipol
 direction  3 min pos     1,
 dipolmoment           0.000136     -0.000043      0.301937 electrons x Angstroem
 Tr[quadrupol]     -6402.393416

 energy correction for charged system         0.000000 eV
 dipol+quadrupol energy correction            0.002607 eV
 added-field ion interaction          0.000000 eV  (added to PSCEN)


 Free energy of the ion-electron system (eV)
  ---------------------------------------------------
  alpha Z        PSCENC =        97.83836224
  Ewald energy   TEWEN  =     37485.48359562
  -Hartree energ DENC   =    -45329.32642600
  -exchange      EXHF   =       531.76905677
  -V(xc)+E(xc)   XCENC  =       565.06912292
  PAW double counting   =     26121.43104888   -26118.32936135
  entropy T*S    EENTRO =        -0.02190776
  eigenvalues    EBANDS =     -3089.12645280
  atomic energy  EATOM  =      9129.90159310
  ---------------------------------------------------
  free energy    TOTEN  =      -605.31846976 eV

  energy without entropy =     -605.29656200  energy(sigma->0) =     -605.30751588
  exchange ACFDT corr.  =        -0.02297995  see jH, gK, PRB 81, 115126


--------------------------------------------------------------------------------------------------------




--------------------------------------- Iteration      1(  17)  ---------------------------------------


    POTLOK:  cpu time    1.4479: real time    1.4481
    SETDIJ:  cpu time    2.0872: real time    2.0874
    TRIAL :  cpu time  508.2346: real time  508.3028
    CORREC:  cpu time    0.0022: real time    0.0024
    CHARGE:  cpu time    1.6386: real time    1.6388
    --------------------------------------------
      LOOP:  cpu time  513.4132: real time  513.4823

 eigenvalue-minimisations  :     0
 total energy-change (2. order) :-0.7674937E+00  (-0.5954264E+00)
 number of electron     238.9999998 magnetization       3.0977707
 augmentation part       11.3279716 magnetization       2.6296858

 DIPCOR: dipole corrections for dipol
 direction  3 min pos     1,
 dipolmoment           0.000142     -0.000045      0.313556 electrons x Angstroem
 Tr[quadrupol]     -6402.600585

 energy correction for charged system         0.000000 eV
 dipol+quadrupol energy correction            0.002811 eV
 added-field ion interaction          0.000000 eV  (added to PSCEN)


 Free energy of the ion-electron system (eV)
  ---------------------------------------------------
  alpha Z        PSCENC =        97.83856671
  Ewald energy   TEWEN  =     37485.48359562
  -Hartree energ DENC   =    -45335.03580612
  -exchange      EXHF   =       531.99076625
  -V(xc)+E(xc)   XCENC  =       565.17404280
  PAW double counting   =     26113.80920566   -26111.12803793
  entropy T*S    EENTRO =        -0.01232681
  eigenvalues    EBANDS =     -3084.09798177
  atomic energy  EATOM  =      9129.90159310
  ---------------------------------------------------
  free energy    TOTEN  =      -606.08596346 eV

  energy without entropy =     -606.07363664  energy(sigma->0) =     -606.07980005
  exchange ACFDT corr.  =        -0.01571649  see jH, gK, PRB 81, 115126


--------------------------------------------------------------------------------------------------------




--------------------------------------- Iteration      1(  18)  ---------------------------------------


    POTLOK:  cpu time    1.4472: real time    1.4474
    SETDIJ:  cpu time    2.0844: real time    2.0845
    TRIAL :  cpu time  509.4535: real time  509.5264
    CORREC:  cpu time    0.0020: real time    0.0023
    CHARGE:  cpu time    1.6366: real time    1.6367
    --------------------------------------------
      LOOP:  cpu time  514.6263: real time  514.6999

 eigenvalue-minimisations  :     0
 total energy-change (2. order) :-0.5255837E+00  (-0.4196128E+00)
 number of electron     238.9999998 magnetization       3.0348278
 augmentation part       11.3239098 magnetization       2.6338696

 DIPCOR: dipole corrections for dipol
 direction  3 min pos     1,
 dipolmoment           0.000146     -0.000046      0.322254 electrons x Angstroem
 Tr[quadrupol]     -6402.680479

 energy correction for charged system         0.000000 eV
 dipol+quadrupol energy correction            0.002969 eV
 added-field ion interaction          0.000000 eV  (added to PSCEN)


 Free energy of the ion-electron system (eV)
  ---------------------------------------------------
  alpha Z        PSCENC =        97.83872485
  Ewald energy   TEWEN  =     37485.48359562
  -Hartree energ DENC   =    -45337.17044143
  -exchange      EXHF   =       532.12587880
  -V(xc)+E(xc)   XCENC  =       565.22136667
  PAW double counting   =     26111.39697383   -26109.07470951
  entropy T*S    EENTRO =        -0.00548505
  eigenvalues    EBANDS =     -3082.32220222
  atomic energy  EATOM  =      9129.90159310
  ---------------------------------------------------
  free energy    TOTEN  =      -606.61154711 eV

  energy without entropy =     -606.60606206  energy(sigma->0) =     -606.60880459
  exchange ACFDT corr.  =        -0.00757635  see jH, gK, PRB 81, 115126


--------------------------------------------------------------------------------------------------------




--------------------------------------- Iteration      1(  19)  ---------------------------------------


    POTLOK:  cpu time    1.4387: real time    1.4389
    SETDIJ:  cpu time    2.0837: real time    2.0839
    TRIAL :  cpu time  507.9320: real time  508.0103
    CORREC:  cpu time    0.0021: real time    0.0023
    CHARGE:  cpu time    1.6456: real time    1.6458
    --------------------------------------------
      LOOP:  cpu time  513.1047: real time  513.1839

 eigenvalue-minimisations  :     0
[...]
  augment    31.55284    35.88257    36.48794     0.50023     0.59810    -0.31527
  Kinetic  3479.12068  3523.42169  3966.47183    -1.77125     0.11273    -3.00880
  Fock     -285.16840  -288.67056  -266.01891    -0.43966    -0.82980     0.18794
  -------------------------------------------------------------------------------------
  Total     -44.42052   -37.67524    -0.46632     0.26410    -0.29910    -0.35981
  in kB     -22.40243   -19.00061    -0.23518     0.13319    -0.15084    -0.18146
  external pressure =      -13.88 kB  Pullay stress =        0.00 kB


 VOLUME and BASIS-vectors are now :
 -----------------------------------------------------------------------------
  energy-cutoff  :      500.00
  volume of cell :     3176.87
      direct lattice vectors                 reciprocal lattice vectors
    12.790164483 -0.004318969  0.003125787     0.078185097  0.000033078 -0.000035323
    -0.005269529 12.456100837  0.000558502     0.000027107  0.080281956  0.000011452
     0.009010264 -0.002847599 19.940723124    -0.000012257 -0.000002254  0.050148638

  length of vectors
    12.790165594 12.456101964 19.940725363     0.078185112  0.080281961  0.050148639


 FORCES acting on ions:
    Electron-Ion                     Ewald-Force                    Non-Local-Force
 -----------------------------------------------------------------------------------------------
   -.235E+01 0.141E+01 -.955E+00   0.230E+01 -.136E+01 0.973E+00   0.422E-02 -.452E-01 -.442E-02
   -.290E+01 -.108E+01 0.180E+00   0.304E+01 0.119E+01 -.170E+00   -.134E+00 -.601E-01 0.423E-02
   0.355E+01 0.723E+00 -.162E+01   -.345E+01 -.714E+00 0.164E+01   -.168E-01 -.108E-01 -.122E-01
   0.503E+01 0.104E+00 0.656E+00   -.506E+01 0.119E+00 -.663E+00   0.652E-01 -.151E+00 0.256E-01
   0.148E+01 -.771E+01 0.159E+00   -.111E+01 0.822E+01 -.130E+00   -.382E+00 -.509E+00 -.217E-01
   -.295E+01 -.333E+01 -.120E+01   0.302E+01 0.336E+01 0.121E+01   -.933E-01 -.726E-02 0.130E-01
   -.181E+01 -.348E+01 0.706E+00   0.206E+01 0.351E+01 -.695E+00   -.230E+00 -.301E-01 0.240E-03
   0.945E+00 -.916E+01 -.246E+01   0.539E+00 0.917E+01 0.250E+01   -.137E+01 -.527E-01 -.614E-01
   -.528E+01 -.425E+01 -.593E+01   0.563E+01 0.354E+01 0.618E+01   -.545E+00 0.588E+00 -.240E+00
   -.354E+01 -.189E+01 -.659E+01   0.344E+01 0.186E+01 0.660E+01   0.219E-02 0.407E-01 -.273E-02
   -.311E+01 -.275E+01 -.384E+01   0.342E+01 0.273E+01 0.385E+01   -.149E+00 -.827E-02 -.147E-01
   -.111E+02 -.144E+02 -.104E+02   0.111E+02 0.146E+02 0.107E+02   0.412E+00 -.337E+00 -.353E+00
   -.178E+02 0.952E+00 -.992E+01   0.181E+02 -.232E+00 0.972E+01   -.378E+00 -.472E+00 0.179E+00
   -.585E+01 0.440E+01 -.108E+02   0.579E+01 -.439E+01 0.109E+02   -.624E-01 0.115E-01 -.264E-01
   -.156E+01 0.113E+01 -.102E+02   0.186E+01 -.116E+01 0.102E+02   -.147E+00 -.861E-02 -.331E-01
   -.101E+02 0.163E+02 -.143E+02   0.111E+02 -.163E+02 0.144E+02   -.101E+01 0.702E-01 -.677E-01
   -.542E+01 0.857E+01 -.127E+02   0.563E+01 -.901E+01 0.128E+02   -.224E+00 0.429E+00 -.126E+00
   -.463E+01 0.153E+01 -.484E+01   0.469E+01 -.161E+01 0.484E+01   -.129E+00 0.698E-01 0.644E-02
   -.681E+00 0.478E+01 -.102E+02   0.843E+00 -.484E+01 0.102E+02   -.139E+00 0.554E-01 -.548E-01
   0.289E+01 0.508E+01 -.392E+01   -.290E+01 -.529E+01 0.392E+01   0.850E-02 0.164E+00 -.700E-03
   0.237E+01 0.775E+01 -.298E+00   -.269E+01 -.811E+01 0.254E+00   0.299E+00 0.327E+00 0.435E-01
   0.580E+01 0.194E+01 -.261E+01   -.574E+01 -.176E+01 0.264E+01   -.487E-01 -.279E+00 -.458E-01
   0.430E+01 0.649E+01 0.125E+01   -.456E+01 -.647E+01 -.128E+01   0.231E+00 0.423E-01 0.401E-01
   -.539E+00 0.141E+02 -.403E+01   0.413E+00 -.146E+02 0.404E+01   0.535E-01 0.489E+00 -.957E-02
   0.180E+02 0.275E+02 -.843E+01   -.204E+02 -.303E+02 0.852E+01   0.253E+01 0.292E+01 -.112E+00
   0.157E+02 0.237E+01 -.530E+01   -.171E+02 -.970E+00 0.528E+01   0.116E+01 -.120E+01 -.134E-01
   0.118E+02 0.168E+02 -.179E+01   -.110E+02 -.175E+02 0.266E+01   -.452E+00 0.726E+00 -.788E+00
   -.989E+00 0.806E+01 0.273E+01   0.113E+01 -.834E+01 -.270E+01   -.673E-01 0.272E+00 0.161E-01
   -.412E+01 0.199E+02 -.171E+01   0.323E+01 -.207E+02 0.258E+01   0.593E+00 0.742E+00 -.843E+00
   0.200E+01 0.731E+01 -.959E+00   -.220E+01 -.766E+01 0.972E+00   0.148E+00 0.373E+00 -.142E-01
   -.716E+01 0.189E+01 -.326E+01   0.726E+01 -.192E+01 0.326E+01   -.145E+00 0.350E-01 0.524E-02
   -.852E+01 0.751E+01 -.393E+01   0.880E+01 -.774E+01 0.395E+01   -.259E+00 0.267E+00 0.982E-03
   -.115E+00 0.429E+01 -.497E+01   0.325E+00 -.460E+01 0.498E+01   -.206E+00 0.334E+00 -.136E-01
   -.152E+01 -.117E+01 -.106E+01   0.166E+01 0.124E+01 0.108E+01   -.108E+00 -.524E-01 0.156E-02
   -.492E+01 -.139E+01 -.203E+01   0.529E+01 0.153E+01 0.200E+01   -.309E+00 -.132E+00 0.262E-01
   -.359E+02 -.108E+02 -.723E+01   0.393E+02 0.113E+02 0.711E+01   -.351E+01 -.407E+00 0.956E-01
   -.119E+02 -.394E+01 -.423E+01   0.123E+02 0.382E+01 0.426E+01   -.422E+00 0.801E-01 -.290E-01
   -.324E+01 -.506E+01 -.381E+01   0.344E+01 0.518E+01 0.384E+01   -.151E+00 -.107E+00 -.231E-01
   -.266E+01 -.285E+01 -.713E+01   0.270E+01 0.299E+01 0.718E+01   -.264E-01 -.107E+00 -.542E-01
   -.314E+02 -.999E+01 0.707E+01   0.344E+02 0.102E+02 -.638E+01   -.319E+01 -.229E+00 -.687E+00
   -.825E+01 -.297E+01 -.933E+01   0.835E+01 0.333E+01 0.957E+01   -.291E-01 -.385E+00 -.250E+00
   -.232E+01 -.174E+00 -.570E+01   0.245E+01 0.146E+00 0.566E+01   -.557E-01 -.413E-01 0.374E-01
   -.490E+01 -.165E+01 -.764E+01   0.468E+01 0.151E+01 0.770E+01   0.947E-01 0.113E+00 -.923E-01
   0.591E+01 0.802E+01 -.765E+01   -.690E+01 -.808E+01 0.762E+01   0.863E+00 0.205E+00 -.267E-01
   0.538E+01 -.385E+01 0.310E+01   -.552E+01 0.435E+01 -.344E+01   0.264E+00 -.453E+00 0.344E+00
   0.202E+01 0.458E+01 -.102E+02   -.187E+01 -.461E+01 0.102E+02   -.425E-01 0.428E-01 -.413E-01
   -.231E+01 0.356E+01 -.920E+01   0.223E+01 -.364E+01 0.922E+01   0.465E-01 0.564E-01 -.191E-01
   -.175E+01 0.559E+01 -.729E+01   0.166E+01 -.594E+01 0.726E+01   0.420E-01 0.251E+00 0.547E-03
   0.296E+01 0.674E+01 -.121E+02   -.319E+01 -.718E+01 0.123E+02   0.202E+00 0.448E+00 -.127E+00
   0.152E+01 0.193E+01 -.520E+01   -.139E+01 -.206E+01 0.521E+01   -.979E-01 0.105E+00 -.368E-02
   0.878E+01 -.356E+02 -.440E+01   -.579E+01 0.411E+02 0.486E+01   -.336E+01 -.580E+01 -.241E+00
   0.298E+01 -.530E+02 -.814E+01   0.209E+01 0.528E+02 0.809E+01   -.578E+01 0.865E+00 -.361E-01
   -.332E+02 0.677E+02 -.104E+02   0.366E+02 -.746E+02 0.103E+02   -.324E+01 0.688E+01 -.189E-01
   0.352E+02 0.535E+02 -.656E+01   -.386E+02 -.601E+02 0.660E+01   0.321E+01 0.671E+01 -.146E-01
   0.755E+01 -.428E+02 -.182E+02   -.184E+02 0.603E+02 0.187E+02   0.104E+02 -.167E+02 -.350E+00
   0.203E+02 -.517E+02 0.826E+02   -.339E+02 0.537E+02 -.861E+02   0.131E+02 -.121E+01 0.304E+01
   0.343E+02 -.105E+02 -.703E+02   -.345E+02 0.500E+01 0.704E+02   0.145E+01 0.294E+01 0.219E+00
   0.359E+02 -.354E+02 0.275E+03   -.347E+02 0.352E+02 -.267E+03   -.105E+01 0.424E+00 -.778E+01
 -----------------------------------------------------------------------------------------------
   -.816E+01 0.188E+01 0.895E+01   0.227E-12 0.711E-13 0.000E+00   0.764E+01 -.172E+01 -.855E+01
 
 
 POSITION                                       TOTAL-FORCE (eV/Angst)
 -----------------------------------------------------------------------------------
      2.83004      0.00141      9.98884        -0.042894      0.002200      0.013441
      0.70697      1.25112      9.98979        -0.000284      0.044720      0.014852
      1.41178      0.00086      9.99595         0.090292     -0.002375      0.010480
      3.54752      1.24287      9.98272         0.047306      0.066971      0.020187
      2.85923      2.49550      9.98480        -0.025049     -0.023586      0.006725
      0.69880      3.73319      9.99291        -0.031927      0.014362      0.021105
      1.42259      2.49363      9.98634         0.006914     -0.003034      0.011781
      3.60662      3.73374      9.98978         0.049051     -0.049991     -0.028432
      2.85724      4.97070      9.99916        -0.222653     -0.084419     -0.006132
      0.69613      6.21251     10.01097        -0.095877      0.018143      0.002323
      1.42497      4.97450     10.00103         0.148985     -0.023902      0.000480
      3.57434      6.22234      9.99465         0.477792     -0.208154     -0.009778
      2.84161      7.46357     10.00891        -0.133717      0.224652     -0.008912
      0.69982      8.71000     10.02852        -0.126851      0.028848     -0.008112
      1.41993      7.46011     10.02255         0.149816     -0.036869     -0.022166
      3.56240      8.71879     10.00371        -0.052148      0.075361     -0.040815
      2.83415      9.96042     10.01866        -0.024482      0.013182     -0.003183
      0.70386     11.20455     10.01117        -0.076964     -0.007645      0.005402
      1.40864      9.95800     10.02548         0.021402     -0.003329     -0.002066
      3.53279     11.20955      9.99134         0.005392     -0.039003     -0.007809
      7.09313     12.44690      9.97655         0.000174     -0.021168      0.001786
      4.97311      1.23543      9.98650         0.008992     -0.110343     -0.017886
      5.67179     12.44956      9.97161        -0.012577      0.064273      0.010954
      7.82065      1.21870      9.99493        -0.071105     -0.012849     -0.000280
      7.12222      2.44287     10.00529         0.285932      0.228119     -0.032803
      5.69013      2.46637      9.99631        -0.174167      0.149576     -0.032210
      7.10721      9.98691      9.93788         0.320641      0.002590      0.039595
      4.95230     11.21715      9.96201         0.071724     -0.000964      0.038816
      5.65664      9.97517      9.94357        -0.269700      0.030888     -0.014982
      7.81337     11.21948      9.96868        -0.051873      0.036764     -0.002775
     11.36754     12.44978     10.00474        -0.064965      0.012955      0.010649
      9.24098      1.22505      9.99936         0.001335      0.051685      0.013068
      9.95144     12.44475     10.00323        -0.000628      0.042350      0.004431
     12.06896      1.24718      9.99695         0.030681      0.005982      0.013799
     11.34754      2.48825      9.99715         0.044762      0.003794      0.001837
      9.14841      3.70468      9.99583        -0.241667     -0.016016     -0.012312
      9.91545      2.47929      9.99930        -0.016378     -0.041744     -0.001948
     12.05684      3.73072      9.99999         0.038697     -0.000122      0.009198
     11.31634      4.96669      9.99988         0.021350      0.029577     -0.012007
      9.17212      6.22245      9.88626        -0.398583     -0.073076     -0.032432
      9.87409      4.96225      9.97914         0.071240     -0.034538     -0.022071
     12.05159      6.20688     10.00404         0.074305     -0.068976     -0.001243
     11.33888      7.45499      9.99779        -0.129259     -0.020907     -0.034474
      9.20835      8.71664      9.95913        -0.098766      0.160688     -0.060115
      9.91933      7.46244      9.93921         0.141272      0.026311      0.030030
     12.06570      8.70480     10.02252         0.109860      0.023010     -0.009668
     11.36308      9.95535     10.01840        -0.038053     -0.024216     -0.002102
      9.23667     11.20428      9.99741        -0.056022     -0.091023     -0.025579
      9.93726      9.95808     10.00553        -0.018204      0.027961     -0.020155
     12.07329     11.19995     10.01361         0.040091     -0.013799      0.005216
      5.04025      3.73663      9.99156        -0.545961     -0.647919      0.211855
      4.97672      6.14496      9.94586        -1.006826      0.725560     -0.088518
      4.96739      8.73494      9.93955         0.041842      0.344387     -0.086630
      7.80359      8.76010      9.90534        -0.020293      0.504089      0.023246
      7.76505      3.66106     10.00956         0.502485     -0.613514      0.098587
      7.83361      6.25315      9.72009         0.605476      0.689019     -0.169068
      6.41745      5.14603     10.00548         0.286130     -1.374994     -0.066247
      6.43632      7.48556      9.23101         0.353930      0.000455      0.263072
 -----------------------------------------------------------------------------------
    total drift:                                0.003162     -0.005244      0.004837


--------------------------------------------------------------------------------------------------------



  FREE ENERGIE OF THE ION-ELECTRON SYSTEM (eV)
  ---------------------------------------------------
  free  energy   TOTEN  =      -608.02908422 eV

  energy  without entropy=     -608.02908420  energy(sigma->0) =     -608.02908421
 


--------------------------------------------------------------------------------------------------------


    POTLOK:  cpu time    3.4449: real time    3.4455


--------------------------------------------------------------------------------------------------------


 stress matrix after NEB project (eV)
    -44.42052      0.26405     -0.35981
      0.26410    -37.67524     -0.30253
     -0.35996     -0.29910     -0.46632
  FORCES: max atom, RMS     1.406011    0.363399
  FORCE total and by dimension    2.767564    1.374994
  Stress total and by dimension   58.252920   44.420517
 writing wavefunctions
     LOOP+:  cpu time33463.7468: real time33475.1639
    4ORBIT:  cpu time    0.0000: real time    0.0000
 


 total charge     
 
# of ion       s       p       d       tot
------------------------------------------
    1        0.867   1.765   0.000   2.631
    2        0.865   1.758   0.000   2.623
    3        0.865   1.769   0.000   2.633
    4        0.865   1.768   0.000   2.634
    5        0.864   1.745   0.000   2.609
    6        0.864   1.750   0.000   2.614
    7        0.862   1.756   0.000   2.619
    8        0.859   1.741   0.000   2.600
    9        0.866   1.732   0.000   2.598
   10        0.863   1.743   0.000   2.606
   11        0.862   1.757   0.000   2.618
   12        0.863   1.764   0.000   2.627
   13        0.866   1.741   0.000   2.607
   14        0.864   1.754   0.000   2.618
   15        0.862   1.757   0.000   2.619
   16        0.865   1.755   0.000   2.621
   17        0.866   1.757   0.000   2.624
   18        0.866   1.763   0.000   2.630
   19        0.864   1.766   0.000   2.630
   20        0.867   1.769   0.000   2.635
   21        0.870   1.777   0.000   2.646
   22        0.869   1.769   0.000   2.639
   23        0.867   1.777   0.000   2.645
   24        0.872   1.799   0.000   2.670
   25        0.872   1.745   0.000   2.617
   26        0.872   1.772   0.000   2.643
   27        0.874   1.760   0.000   2.634
   28        0.870   1.774   0.000   2.644
   29        0.871   1.750   0.000   2.621
   30        0.871   1.782   0.000   2.653
   31        0.867   1.765   0.000   2.632
   32        0.870   1.769   0.000   2.639
   33        0.867   1.779   0.000   2.646
   34        0.864   1.762   0.000   2.626
   35        0.864   1.757   0.000   2.621
   36        0.853   1.702   0.000   2.556
   37        0.863   1.766   0.000   2.629
   38        0.862   1.759   0.000   2.621
   39        0.860   1.734   0.000   2.594
   40        0.861   1.717   0.000   2.578
   41        0.855   1.752   0.000   2.606
   42        0.859   1.756   0.000   2.616
   43        0.864   1.748   0.000   2.613
   44        0.866   1.753   0.000   2.619
   45        0.863   1.761   0.000   2.624
   46        0.862   1.758   0.000   2.621
   47        0.866   1.759   0.000   2.625
   48        0.867   1.766   0.000   2.633
   49        0.866   1.761   0.000   2.627
   50        0.865   1.768   0.000   2.634
   51        0.866   1.636   0.000   2.503
   52        0.914   1.517   0.000   2.431
   53        0.875   1.682   0.000   2.558
   54        0.879   1.701   0.000   2.581
   55        1.233   2.649   0.000   3.882
   56        1.253   2.589   0.000   3.841
   57        0.523   0.780   6.355   7.657
   58        0.531   0.746   3.623   4.900
--------------------------------------------------
tot         50.332 101.210   9.977 161.520
 


 magnetization (x)
 
# of ion       s       p       d       tot
------------------------------------------
    1       -0.001  -0.011   0.000  -0.012
    2       -0.001  -0.013   0.000  -0.014
    3        0.001   0.010   0.000   0.010
    4        0.001   0.008   0.000   0.009
    5       -0.001  -0.012   0.000  -0.013
    6       -0.001  -0.015   0.000  -0.016
    7        0.001   0.012   0.000   0.013
    8        0.002   0.021   0.000   0.023
    9       -0.004  -0.065   0.000  -0.069
   10       -0.003  -0.042   0.000  -0.045
   11        0.002   0.022   0.000   0.025
   12        0.005   0.041   0.000   0.046
   13       -0.004  -0.042   0.000  -0.046
   14       -0.001  -0.009   0.000  -0.010
   15        0.002   0.017   0.000   0.019
   16        0.002   0.020   0.000   0.022
   17       -0.001  -0.013   0.000  -0.015
   18       -0.001  -0.009   0.000  -0.010
   19        0.001   0.009   0.000   0.009
   20        0.001   0.009   0.000   0.010
   21       -0.002  -0.022   0.000  -0.024
   22       -0.002  -0.016   0.000  -0.017
   23        0.001   0.010   0.000   0.011
   24        0.001   0.009   0.000   0.009
   25       -0.002  -0.030   0.000  -0.032
   26        0.001   0.014   0.000   0.015
   27        0.001  -0.004   0.000  -0.003
   28       -0.001  -0.011   0.000  -0.011
   29        0.003   0.008   0.000   0.011
   30        0.000   0.005   0.000   0.005
   31       -0.000  -0.006   0.000  -0.006
   32       -0.001  -0.009   0.000  -0.010
   33        0.001   0.007   0.000   0.007
   34        0.001   0.008   0.000   0.008
   35       -0.001  -0.009   0.000  -0.010
   36       -0.000  -0.008   0.000  -0.009
   37        0.001   0.007   0.000   0.008
   38        0.001   0.012   0.000   0.013
   39       -0.002  -0.023   0.000  -0.024
   40       -0.000  -0.015   0.000  -0.015
   41       -0.000   0.004   0.000   0.004
   42        0.001   0.012   0.000   0.014
   43       -0.001  -0.013   0.000  -0.014
   44        0.000  -0.000   0.000   0.000
   45       -0.001   0.000   0.000  -0.001
   46        0.001   0.008   0.000   0.009
   47       -0.001  -0.010   0.000  -0.010
   48       -0.000  -0.005   0.000  -0.005
   49       -0.000   0.001   0.000   0.001
   50        0.001   0.007   0.000   0.008
   51       -0.012  -0.076   0.000  -0.087
   52       -0.024  -0.193   0.000  -0.217
   53       -0.010  -0.049   0.000  -0.059
   54       -0.013  -0.056   0.000  -0.069
   55       -0.003  -0.004   0.000  -0.007
   56       -0.011  -0.135   0.000  -0.146
   57        0.048   0.009   2.108   2.165
   58        0.040  -0.010   1.655   1.684
--------------------------------------------------
tot          0.013  -0.643   3.762   3.132
 

 total amount of memory used by VASP MPI-rank0   187984. kBytes
=======================================================================

   base      :      30000. kBytes
   nonl-proj :       5324. kBytes
   fftplans  :      14250. kBytes
   grid      :      36827. kBytes
   one-center:         62. kBytes
   HF        :         23. kBytes
   nonlr-proj:      25532. kBytes
   wavefun   :      75966. kBytes
 
  
  
 General timing and accounting informations for this job:
 ========================================================
  
                  Total CPU time used (sec):    33556.238
                            User time (sec):    33502.350
                          System time (sec):       53.889
                         Elapsed time (sec):    33570.005
  
                   Maximum memory used (kb):      433580.
                   Average memory used (kb):           0.
  
                          Minor page faults:       280196
                          Major page faults:            0
                 Voluntary context switches:         1443
