 vasp.5.4.4.18Apr17-6-g9f103f2a35 (build Feb 25 2019 10:51:38) complex          
  
 executed on             LinuxIFC date 2021.08.09  11:57:31
 running on   32 total cores
 distrk:  each k-point on   32 cores,    1 groups
 distr:  one band on NCORES_PER_BAND=  32 cores,    1 groups


--------------------------------------------------------------------------------------------------------


 INCAR:
 POTCAR:    PAW_PBE C 08Apr2002                   
 POTCAR:    PAW_PBE N 08Apr2002                   
 POTCAR:    PAW_PBE Fe 06Sep2000                  
 POTCAR:    PAW_PBE Cr 06Sep2000                  

 ----------------------------------------------------------------------------- 
|                                                                             |
|           W    W    AA    RRRRR   N    N  II  N    N   GGGG   !!!           |
|           W    W   A  A   R    R  NN   N  II  NN   N  G    G  !!!           |
|           W    W  A    A  R    R  N N  N  II  N N  N  G       !!!           |
|           W WW W  AAAAAA  RRRRR   N  N N  II  N  N N  G  GGG   !            |
|           WW  WW  A    A  R   R   N   NN  II  N   NN  G    G                |
|           W    W  A    A  R    R  N    N  II  N    N   GGGG   !!!           |
|                                                                             |
|      For optimal performance we recommend to set                            |
|        NCORE= 4 - approx SQRT( number of cores)                             |
|      NCORE specifies how many cores store one orbital (NPAR=cpu/NCORE).     |
|      This setting can  greatly improve the performance of VASP for DFT.     |
|      The default,   NCORE=1            might be grossly inefficient         |
|      on modern multi-core architectures or massively parallel machines.     |
|      Do your own testing !!!!                                               |
|      Unfortunately you need to use the default for GW and RPA calculations. |
|      (for HF NCORE is supported but not extensively tested yet)             |
|                                                                             |
 ----------------------------------------------------------------------------- 

 POTCAR:    PAW_PBE C 08Apr2002                   
   VRHFIN =C: s2p2                                                              
   LEXCH  = PE                                                                  
   EATOM  =   147.1560 eV,   10.8157 Ry                                         
                                                                                
   TITEL  = PAW_PBE C 08Apr2002                                                 
   LULTRA =        F    use ultrasoft PP ?                                      
   IUNSCR =        1    unscreen: 0-lin 1-nonlin 2-no                           
   RPACOR =    1.200    partial core radius                                     
   POMASS =   12.011; ZVAL   =    4.000    mass and valenz                      
   RCORE  =    1.500    outmost cutoff radius                                   
   RWIGS  =    1.630; RWIGS  =    0.863    wigner-seitz radius (au A)           
   ENMAX  =  400.000; ENMIN  =  300.000 eV                                      
   ICORE  =        2    local potential                                         
   LCOR   =        T    correct aug charges                                     
   LPAW   =        T    paw PP                                                  
   EAUG   =  644.873                                                            
   DEXC   =    0.000                                                            
   RMAX   =    1.529    core radius for proj-oper                               
   RAUG   =    1.300    factor for augmentation sphere                          
   RDEP   =    1.501    radius for radial grids                                 
   RDEPT  =    1.300    core radius for aug-charge                              
                                                                                
   Atomic configuration                                                         
    4 entries                                                                   
     n  l   j            E        occ.                                          
     1  0  0.50      -273.3789   2.0000                                         
     2  0  0.50       -13.7508   2.0000                                         
     2  1  0.50        -5.2854   2.0000                                         
     3  2  1.50        -5.4423   0.0000                                         
   Description                                                                  
     l       E           TYP  RCUT    TYP  RCUT                                 
     0    -13.7508458     23  1.200                                             
     0     -8.2022199     23  1.200                                             
     1     -5.2854383     23  1.500                                             
     1     34.0145650     23  1.500                                             
     2     -5.4423304      7  1.500                                             
  local pseudopotential read in
  partial core-charges read in
  partial kinetic energy density read in
  atomic valenz-charges read in
  non local Contribution for L=           0  read in
    real space projection operators read in
  non local Contribution for L=           0  read in
    real space projection operators read in
  non local Contribution for L=           1  read in
    real space projection operators read in
  non local Contribution for L=           1  read in
    real space projection operators read in
    PAW grid and wavefunctions read in
 
   number of l-projection  operators is LMAX  =           4
   number of lm-projection operators is LMMAX =           8
 
 POTCAR:    PAW_PBE N 08Apr2002                   
   VRHFIN =N: s2p3                                                              
   LEXCH  = PE                                                                  
   EATOM  =   264.5486 eV,   19.4438 Ry                                         
                                                                                
   TITEL  = PAW_PBE N 08Apr2002                                                 
   LULTRA =        F    use ultrasoft PP ?                                      
   IUNSCR =        1    unscreen: 0-lin 1-nonlin 2-no                           
   RPACOR =    1.200    partial core radius                                     
   POMASS =   14.001; ZVAL   =    5.000    mass and valenz                      
   RCORE  =    1.500    outmost cutoff radius                                   
   RWIGS  =    1.400; RWIGS  =    0.741    wigner-seitz radius (au A)           
   ENMAX  =  400.000; ENMIN  =  300.000 eV                                      
   ICORE  =        2    local potential                                         
   LCOR   =        T    correct aug charges                                     
   LPAW   =        T    paw PP                                                  
   EAUG   =  627.112                                                            
   DEXC   =    0.000                                                            
   RMAX   =    1.529    core radius for proj-oper                               
   RAUG   =    1.300    factor for augmentation sphere                          
   RDEP   =    1.514    radius for radial grids                                 
   RDEPT  =    1.338    core radius for aug-charge                              
                                                                                
   Atomic configuration                                                         
    4 entries                                                                   
     n  l   j            E        occ.                                          
     1  0  0.50      -384.7179   2.0000                                         
     2  0  0.50       -18.5828   2.0000                                         
     2  1  0.50        -7.0898   3.0000                                         
     3  2  1.50        -6.8029   0.0000                                         
   Description                                                                  
     l       E           TYP  RCUT    TYP  RCUT                                 
     0    -18.5828119     23  1.200                                             
     0    -13.5018863     23  1.200                                             
     1     -7.0897853     23  1.500                                             
     1      9.5240782     23  1.500                                             
     2     -6.8029130      7  1.500                                             
  local pseudopotential read in
  partial core-charges read in
  partial kinetic energy density read in
  atomic valenz-charges read in
  non local Contribution for L=           0  read in
    real space projection operators read in
  non local Contribution for L=           0  read in
    real space projection operators read in
  non local Contribution for L=           1  read in
    real space projection operators read in
  non local Contribution for L=           1  read in
    real space projection operators read in
    PAW grid and wavefunctions read in
 
   number of l-projection  operators is LMAX  =           4
   number of lm-projection operators is LMMAX =           8
 
 POTCAR:    PAW_PBE Fe 06Sep2000                  
   VRHFIN =Fe:  d7 s1                                                           
   LEXCH  = PE                                                                  
   EATOM  =   594.3153 eV,   43.6809 Ry                                         
                                                                                
   TITEL  = PAW_PBE Fe 06Sep2000                                                
   LULTRA =        F    use ultrasoft PP ?                                      
   IUNSCR =        1    unscreen: 0-lin 1-nonlin 2-no                           
   RPACOR =    2.000    partial core radius                                     
   POMASS =   55.847; ZVAL   =    8.000    mass and valenz                      
   RCORE  =    2.300    outmost cutoff radius                                   
   RWIGS  =    2.460; RWIGS  =    1.302    wigner-seitz radius (au A)           
   ENMAX  =  267.882; ENMIN  =  200.911 eV                                      
   RCLOC  =    1.701    cutoff for local pot                                    
   LCOR   =        T    correct aug charges                                     
   LPAW   =        T    paw PP                                                  
   EAUG   =  511.368                                                            
   DEXC   =    0.000                                                            
   RMAX   =    2.356    core radius for proj-oper                               
   RAUG   =    1.300    factor for augmentation sphere                          
   RDEP   =    2.442    radius for radial grids                                 
   RDEPT  =    1.890    core radius for aug-charge                              
                                                                                
   Atomic configuration                                                         
    9 entries                                                                   
     n  l   j            E        occ.                                          
     1  0  0.50     -6993.8440   2.0000                                         
     2  0  0.50      -814.6047   2.0000                                         
     2  1  1.50      -693.3689   6.0000                                         
     3  0  0.50       -89.4732   2.0000                                         
     3  1  1.50       -55.6373   6.0000                                         
     3  2  2.50        -3.8151   7.0000                                         
     4  0  0.50        -4.2551   1.0000                                         
     4  1  1.50        -3.4015   0.0000                                         
     4  3  2.50        -1.3606   0.0000                                         
   Description                                                                  
     l       E           TYP  RCUT    TYP  RCUT                                 
     2     -3.8151135     23  2.300                                             
     2     -5.1756961     23  2.300                                             
     0     -4.2550963     23  2.300                                             
     0      7.2035603     23  2.300                                             
     1     -2.7211652     23  2.300                                             
     1     18.4316424     23  2.300                                             
  local pseudopotential read in
  partial core-charges read in
  partial kinetic energy density read in
  atomic valenz-charges read in
  non local Contribution for L=           2  read in
    real space projection operators read in
  non local Contribution for L=           2  read in
    real space projection operators read in
  non local Contribution for L=           0  read in
    real space projection operators read in
  non local Contribution for L=           0  read in
    real space projection operators read in
  non local Contribution for L=           1  read in
    real space projection operators read in
  non local Contribution for L=           1  read in
    real space projection operators read in
    PAW grid and wavefunctions read in
 
   number of l-projection  operators is LMAX  =           6
   number of lm-projection operators is LMMAX =          18
 
 POTCAR:    PAW_PBE Cr 06Sep2000                  
   VRHFIN =Cr : d5 s1                                                           
   LEXCH  = PE                                                                  
   EATOM  =   276.8859 eV,   20.3505 Ry                                         
                                                                                
   TITEL  = PAW_PBE Cr 06Sep2000                                                
   LULTRA =        F    use ultrasoft PP ?                                      
   IUNSCR =        1    unscreen: 0-lin 1-nonlin 2-no                           
   RPACOR =    2.080    partial core radius                                     
   POMASS =   51.996; ZVAL   =    6.000    mass and valenz                      
   RCORE  =    2.500    outmost cutoff radius                                   
   RWIGS  =    2.500; RWIGS  =    1.323    wigner-seitz radius (au A)           
   ENMAX  =  227.080; ENMIN  =  170.310 eV                                      
   RCLOC  =    1.721    cutoff for local pot                                    
   LCOR   =        T    correct aug charges                                     
   LPAW   =        T    paw PP                                                  
   EAUG   =  402.108                                                            
   DEXC   =    0.000                                                            
   RMAX   =    2.552    core radius for proj-oper                               
   RAUG   =    1.300    factor for augmentation sphere                          
   RDEP   =    2.609    radius for radial grids                                 
   RDEPT  =    2.065    core radius for aug-charge                              
                                                                                
   Atomic configuration                                                         
    9 entries                                                                   
     n  l   j            E        occ.                                          
     1  0  0.50     -5880.4963   2.0000                                         
     2  0  0.50      -667.0865   2.0000                                         
     2  1  1.50      -560.6250   6.0000                                         
     3  0  0.50       -73.9860   2.0000                                         
     3  1  1.50       -45.4378   6.0000                                         
     3  2  2.50        -2.9137   5.0000                                         
     4  0  0.50        -4.0071   1.0000                                         
     4  1  0.50        -1.2789   0.0000                                         
     4  3  2.50        -1.3606   0.0000                                         
   Description                                                                  
     l       E           TYP  RCUT    TYP  RCUT                                 
     2     -2.9136677     23  2.500                                             
     2     -4.2742503     23  2.500                                             
     0     -4.0071322     23  2.500                                             
     0      9.4498801     23  2.500                                             
     1     -5.4423304     23  2.500                                             
     1     27.2116520     23  2.500                                             
  local pseudopotential read in
  partial core-charges read in
  partial kinetic energy density read in
  atomic valenz-charges read in
  non local Contribution for L=           2  read in
    real space projection operators read in
  non local Contribution for L=           2  read in
    real space projection operators read in
  non local Contribution for L=           0  read in
    real space projection operators read in
  non local Contribution for L=           0  read in
    real space projection operators read in
  non local Contribution for L=           1  read in
    real space projection operators read in
  non local Contribution for L=           1  read in
    real space projection operators read in
    PAW grid and wavefunctions read in
 
   number of l-projection  operators is LMAX  =           6
   number of lm-projection operators is LMMAX =          18
 

 ----------------------------------------------------------------------------- 
|                                                                             |
|  ADVICE TO THIS USER RUNNING 'VASP/VAMP'   (HEAR YOUR MASTER'S VOICE ...):  |
|                                                                             |
|      You have a (more or less) 'large supercell' and for larger cells       |
|      it might be more efficient to use real space projection opertators     |
|      So try LREAL= Auto  in the INCAR   file.                               |
|      Mind:          For very  accurate calculation you might also keep the  |
|      reciprocal projection scheme          (i.e. LREAL=.FALSE.)             |
|                                                                             |
 ----------------------------------------------------------------------------- 

  PAW_PBE C 08Apr2002                   :
 energy of atom  1       EATOM= -147.1560
 kinetic energy error for atom=    0.0076 (will be added to EATOM!!)
  PAW_PBE N 08Apr2002                   :
 energy of atom  2       EATOM= -264.5486
 kinetic energy error for atom=    0.0138 (will be added to EATOM!!)
  PAW_PBE Fe 06Sep2000                  :
 energy of atom  3       EATOM= -594.3153
 kinetic energy error for atom=    0.0026 (will be added to EATOM!!)
  PAW_PBE Cr 06Sep2000                  :
 energy of atom  4       EATOM= -276.8859
 kinetic energy error for atom=    0.0012 (will be added to EATOM!!)
 
 
 POSCAR:  C  N Fe Cr                             
  positions in cartesian coordinates
  No initial velocities read in
 exchange correlation table for  LEXCH =        8
   RHO(1)=    0.500       N(1)  =     2000
   RHO(2)=  100.500       N(2)  =     4000

 VTST: version 3.2, (02/03/18)

 CHAIN: initializing optimizer
 
 OPT: Using VASP Conjugate-Gradient optimizer
 CHAIN: Read ICHAIN            0
 
 POSCAR:  C  N Fe Cr                             
  positions in cartesian coordinates
  No initial velocities read in
 


--------------------------------------------------------------------------------------------------------


 ion  position               nearest neighbor table
   1  0.222  0.997  0.500-   4 1.42   3 1.43  19 1.43
   2  0.052  0.100  0.500-   7 1.42  34 1.43   3 1.43
   3  0.110  0.999  0.500-  17 1.42   1 1.43   2 1.43
   4  0.275  0.098  0.500-   1 1.42   5 1.42  21 1.42
   5  0.217  0.197  0.500-   8 1.41   4 1.42   7 1.42
   6  0.051  0.301  0.500-   7 1.42  11 1.43  38 1.43
   7  0.106  0.200  0.500-   2 1.42   6 1.42   5 1.42
   8  0.271  0.295  0.499-  51 1.37   5 1.41   9 1.43
   9  0.217  0.398  0.499-  50 1.40  11 1.41   8 1.43
  10  0.055  0.501  0.500-  11 1.42  41 1.42  14 1.44
  11  0.108  0.399  0.500-   9 1.41  10 1.42   6 1.43
  12  0.227  0.593  0.500-  50 1.39  14 1.44  15 1.48
  13  0.059  0.700  0.500-  18 1.42  14 1.43  45 1.43
  14  0.115  0.599  0.500-  13 1.43  10 1.44  12 1.44
  15  0.288  0.694  0.500-  53 1.40  16 1.46  12 1.48
  16  0.227  0.795  0.500-  19 1.43  18 1.44  15 1.46
  17  0.057  0.900  0.500-   3 1.42  49 1.43  18 1.44
  18  0.115  0.798  0.500-  13 1.42  17 1.44  16 1.44
  19  0.279  0.897  0.500-  28 1.43   1 1.43  16 1.43
  20  0.554  0.003  0.500-  22 1.42  30 1.42  23 1.44
  21  0.385  0.100  0.500-   4 1.42  22 1.43  25 1.44
  22  0.443  0.999  0.500-  20 1.42  21 1.43  28 1.44
  23  0.607  0.105  0.500-  24 1.43  32 1.43  20 1.44
  24  0.549  0.206  0.499-  23 1.43  25 1.44  26 1.46
  25  0.437  0.203  0.499-  51 1.37  24 1.44  21 1.44
  26  0.604  0.309  0.500-  52 1.34  36 1.45  24 1.46
  27  0.559  0.800  0.500-  54 1.38  30 1.44  29 1.46
  28  0.391  0.897  0.500-  19 1.43  29 1.44  22 1.44
  29  0.446  0.794  0.500-  53 1.39  28 1.44  27 1.46
  30  0.611  0.902  0.500-  20 1.42  47 1.43  27 1.44
  31  0.887  0.003  0.500-  34 1.42  49 1.43  33 1.43
  32  0.718  0.106  0.500-  33 1.43  23 1.43  37 1.44
  33  0.776  0.005  0.500-  47 1.43  31 1.43  32 1.43
  34  0.941  0.103  0.500-  31 1.42   2 1.43  35 1.43
  35  0.884  0.204  0.500-  38 1.43  37 1.43  34 1.43
  36  0.717  0.310  0.500-  37 1.44  26 1.45  40 1.45
  37  0.773  0.207  0.500-  35 1.43  36 1.44  32 1.44
  38  0.939  0.304  0.500-  35 1.43  39 1.43   6 1.43
  39  0.884  0.406  0.500-  38 1.43  41 1.44  40 1.44
  40  0.772  0.411  0.501-  55 1.40  39 1.44  36 1.45
  41  0.944  0.503  0.500-  42 1.42  10 1.42  39 1.44
  42  0.890  0.605  0.500-  44 1.41  41 1.42  45 1.43
  43  0.725  0.707  0.500-  54 1.38  48 1.41  44 1.42
  44  0.780  0.606  0.501-  55 1.39  42 1.41  43 1.42
  45  0.947  0.703  0.500-  46 1.42  42 1.43  13 1.43
  46  0.891  0.803  0.500-  49 1.42  45 1.42  48 1.43
  47  0.722  0.905  0.500-  48 1.42  33 1.43  30 1.43
  48  0.780  0.805  0.500-  43 1.41  47 1.42  46 1.43
  49  0.945  0.903  0.500-  46 1.42  31 1.43  17 1.43
  50  0.276  0.492  0.499-  12 1.39   9 1.40  56 1.91
  51  0.378  0.297  0.499-  25 1.37   8 1.37  56 1.96
  52  0.552  0.404  0.499-  26 1.34  56 1.78  57 1.89
  53  0.397  0.695  0.500-  29 1.39  15 1.40
  54  0.618  0.705  0.501-  27 1.38  43 1.38  57 1.96
  55  0.721  0.512  0.501-  44 1.39  40 1.40  57 2.05
  56  0.419  0.449  0.498-  52 1.78  50 1.91  51 1.96  57 2.33
  57  0.566  0.556  0.501-  52 1.89  54 1.96  55 2.05  56 2.33
 
  LATTYP: Found a triclinic cell.
 ALAT       =    12.8463445293
 B/A-ratio  =     0.9584572867
 C/A-ratio  =     1.5638631316
 COS(alpha) =     0.0011060955
 COS(beta)  =     0.0014346378
 COS(gamma) =     0.0223701083
  
  Lattice vectors:
  
 A1 = (  12.8455459779,   0.1429337669,   0.0092861066)
 A2 = (   0.1384520250,  12.3118919921,   0.0071570119)
 A3 = (   0.0141849061,   0.0103848234,  20.0899168938)


Analysis of symmetry for initial positions (statically):
=====================================================================
 Subroutine PRICEL returns:
 Original cell was already a primitive cell.
 

 Routine SETGRP: Setting up the symmetry group for a 
 triclinic supercell.


 Subroutine GETGRP returns: Found  1 space group operations
 (whereof  1 operations were pure point group operations)
 out of a pool of  2 trial point group operations.


The static configuration has the point symmetry C_1 .


Analysis of symmetry for dynamics (positions and initial velocities):
=====================================================================
 Subroutine PRICEL returns:
 Original cell was already a primitive cell.
 

 Routine SETGRP: Setting up the symmetry group for a 
 triclinic supercell.


 Subroutine GETGRP returns: Found  1 space group operations
 (whereof  1 operations were pure point group operations)
 out of a pool of  2 trial point group operations.


The dynamic configuration has the point symmetry C_1 .


Analysis of structural, dynamic, and magnetic symmetry:
=====================================================================
 Subroutine PRICEL returns:
 Original cell was already a primitive cell.
 

 Routine SETGRP: Setting up the symmetry group for a 
 triclinic supercell.


 Subroutine GETGRP returns: Found  1 space group operations
 (whereof  1 operations were pure point group operations)
 out of a pool of  2 trial point group operations.


The magnetic configuration has the point symmetry C_1 .


 Subroutine INISYM returns: Found  1 space group operations
 (whereof  1 operations are pure point group operations),
 and found     1 'primitive' translations

 
 
 KPOINTS: KPOINTS created by Atomic Simulation Env

Automatic generation of k-mesh.
Space group operators:
 irot       det(A)        alpha          n_x          n_y          n_z        tau_x        tau_y        tau_z
    1     1.000000     0.000002     1.000000     0.000000     0.000000     0.000000     0.000000     0.000000
 
 Subroutine IBZKPT returns following result:
 ===========================================
 
 Found      2 irreducible k-points:
 
 Following reciprocal coordinates:
            Coordinates               Weight
  0.250000  0.250000  0.000000      2.000000
 -0.250000  0.250000  0.000000      2.000000
 
 Following cartesian coordinates:
            Coordinates               Weight
  0.019238  0.020089 -0.000024      2.000000
 -0.019690  0.020527  0.000003      2.000000
 
 
 Subroutine IBZKPT_HF returns following result:
 ==============================================
 
 Found      4 k-points in 1st BZ
 the following      4 k-points will be used (e.g. in the exchange kernel)
 Following reciprocal coordinates:   # in IRBZ
  0.250000  0.250000  0.000000    0.25000000   1 t-inv F
 -0.250000  0.250000  0.000000    0.25000000   2 t-inv F
 -0.250000 -0.250000 -0.000000    0.25000000   1 t-inv T
  0.250000 -0.250000 -0.000000    0.25000000   2 t-inv T


--------------------------------------------------------------------------------------------------------




 Dimension of arrays:
   k-points           NKPTS =      2   k-points in BZ     NKDIM =      4   number of bands    NBANDS=    153
   number of dos      NEDOS =    301   number of ions     NIONS =     57
   non local maximal  LDIM  =      6   non local SUM 2l+1 LMDIM =     18
   total plane-waves  NPLWV = ******
   max r-space proj   IRMAX =      1   max aug-charges    IRDMAX=  21038
   dimension x,y,z NGX =    96 NGY =   90 NGZ =  150
   dimension x,y,z NGXF=   192 NGYF=  180 NGZF=  300
   support grid    NGXF=   192 NGYF=  180 NGZF=  300
   ions per type =              49   6   1   1
   NGX,Y,Z   is equivalent  to a cutoff of  12.42, 12.15, 12.41 a.u.
   NGXF,Y,Z  is equivalent  to a cutoff of  24.85, 24.30, 24.83 a.u.

 SYSTEM =  unknown system                          
 POSCAR =   C  N Fe Cr                             

 Startparameter for this run:
   NWRITE =      2    write-flag & timer
   PREC   = accura    normal or accurate (medium, high low for compatibility)
   ISTART =      1    job   : 0-new  1-cont  2-samecut
   ICHARG =      0    charge: 1-file 2-atom 10-const
   ISPIN  =      2    spin polarized calculation?
   LNONCOLLINEAR =      F non collinear calculations
   LSORBIT =      F    spin-orbit coupling
   INIWAV =      1    electr: 0-lowe 1-rand  2-diag
   LASPH  =      T    aspherical Exc in radial PAW
   METAGGA=      F    non-selfconsistent MetaGGA calc.

 Electronic Relaxation 1
   ENCUT  =  500.0 eV  36.75 Ry    6.06 a.u.  23.42 22.45 36.63*2*pi/ulx,y,z
   ENINI  =  500.0     initial cutoff
   ENAUG  =  644.9 eV  augmentation charge cutoff
   NELM   =    250;   NELMIN=  2; NELMDL=  0     # of ELM steps 
   EDIFF  = 0.1E-03   stopping-criterion for ELM
   LREAL  =      F    real-space projection
   NLSPLINE    = F    spline interpolate recip. space projectors
   LCOMPAT=      F    compatible to vasp.4.4
   GGA_COMPAT  = T    GGA compatible to vasp.4.4-vasp.4.6
   LMAXPAW     = -100 max onsite density
   LMAXMIX     =    2 max onsite mixed and CHGCAR
   VOSKOWN=      0    Vosko Wilk Nusair interpolation
   ROPT   =    0.00000   0.00000   0.00000   0.00000
 Ionic relaxation
   EDIFFG = -.3E-01   stopping-criterion for IOM
   NSW    =      0    number of steps for IOM
   NBLOCK =      1;   KBLOCK =      1    inner block; outer block 
   IBRION =     -1    ionic relax: 0-MD 1-quasi-New 2-CG
   NFREE  =      1    steps in history (QN), initial steepest desc. (CG)
   ISIF   =      2    stress and relaxation
   IWAVPR =     10    prediction:  0-non 1-charg 2-wave 3-comb
   ISYM   =      3    0-nonsym 1-usesym 2-fastsym
   LCORR  =      T    Harris-Foulkes like correction to forces

   POTIM  = 0.5000    time-step for ionic-motion
   TEIN   =    0.0    initial temperature
   TEBEG  =    0.0;   TEEND  =   0.0 temperature during run
   SMASS  =  -3.00    Nose mass-parameter (am)
   estimated Nose-frequenzy (Omega)   =  0.10E-29 period in steps =****** mass=  -0.377E-26a.u.
   SCALEE = 1.0000    scale energy and forces
   NPACO  =    256;   APACO  = 16.0  distance and # of slots for P.C.
   PSTRESS=    0.0 pullay stress

  Mass of Ions in am
   POMASS =  12.01 14.00 55.85 52.00
  Ionic Valenz
   ZVAL   =   4.00  5.00  8.00  6.00
  Atomic Wigner-Seitz radii
   RWIGS  =  -1.00 -1.00 -1.00 -1.00
  virtual crystal weights 
   VCA    =   1.00  1.00  1.00  1.00
   NELECT =     240.0000    total number of electrons
   NUPDOWN=      -1.0000    fix difference up-down

 DOS related values:
   EMIN   =  10.00;   EMAX   =-10.00  energy-range for DOS
   EFERMI =   0.00
   ISMEAR =     0;   SIGMA  =   0.10  broadening in eV -4-tet -1-fermi 0-gaus

 Electronic relaxation 2 (details)
   IALGO  =     53    algorithm
   LDIAG  =      T    sub-space diagonalisation (order eigenvalues)
   LSUBROT=      F    optimize rotation matrix (better conditioning)
   TURBO    =      0    0=normal 1=particle mesh
   IRESTART =      0    0=no restart 2=restart with 2 vectors
   NREBOOT  =      0    no. of reboots
   NMIN     =      0    reboot dimension
   EREF     =   0.00    reference energy to select bands
   IMIX   =      4    mixing-type and parameters
     AMIX     =   0.40;   BMIX     =  1.00
     AMIX_MAG =   1.60;   BMIX_MAG =  1.00
     AMIN     =   0.10
     WC   =   100.;   INIMIX=   1;  MIXPRE=   1;  MAXMIX= -45

 Intra band minimization:
   WEIMIN = 0.0000     energy-eigenvalue tresh-hold
   EBREAK =  0.16E-06  absolut break condition
   DEPER  =   0.30     relativ break condition  

   TIME   =   0.20     timestep for ELM

  volume/ion in A,a.u.               =      55.73       376.12
  Fermi-wavevector in a.u.,A,eV,Ry     =   0.692062  1.307807  6.516507  0.478950
  Thomas-Fermi vector in A             =   1.773889
 
 Write flags
   LWAVE        =      T    write WAVECAR
   LDOWNSAMPLE  =      F    k-point downsampling of WAVECAR
   LCHARG       =      T    write CHGCAR
   LVTOT        =      F    write LOCPOT, total local potential
   LVHAR        =      F    write LOCPOT, Hartree potential only
   LELF         =      F    write electronic localiz. function (ELF)
   LORBIT       =     11    0 simple, 1 ext, 2 COOP (PROOUT), +10 PAW based schemes


 Dipole corrections
   LMONO  =      F    monopole corrections only (constant potential shift)
   LDIPOL =      T    correct potential (dipole corrections)
   IDIPOL =      3    1-x, 2-y, 3-z, 4-all directions 
   EPSILON=  1.0000000 bulk dielectric constant

 Exchange correlation treatment:
   GGA     =    PE    GGA type
   LEXCH   =     8    internal setting for exchange type
   VOSKOWN=      0    Vosko Wilk Nusair interpolation
   EXXOEP  =     0    0=HF, 1=EXX-LHF (local Hartree Fock) 2=EXX OEP
   LHFCALC =     T    Hartree Fock is set to
   LSYMGRAD=     F    symmetrize gradient (conserves proper symmetry)
   PRECFOCK=normal    Normal, Fast or Accurate (Low or Medium for compatibility)
   LRHFCALC=     F    long range Hartree Fock
   LRSCOR  =     F    long range correlation only (use DFT for short range part)
   LTHOMAS =     F    Thomas Fermi screening in HF
   LMODELHF=     F    short range full HF, long range fraction AEXX
   ENCUT4O =  -1.0   cutoff for four orbital integrals eV
   LMAXFOCK=     4    L truncation for augmentation on plane wave grid
   LMAXFOCKAE=  -1    L truncation for all-electron charge restoration on plane wave grid
   NMAXFOCKAE=   1    number of basis functions for all-electron charge restoration
   LFOCKAEDFT=     F  apply the AE augmentation even for DFT
   NKREDX  =     1    reduce k-point grid by
   NKREDY  =     1    reduce k-point grid by
   NKREDZ  =     1    reduce k-point grid by
   SHIFTRED=     F    shift reduced grid of Gamma
   HFKIDENT=     F    idential grid for each k-point
   ODDONLY =     F    use only odd q-grid points
   EVENONLY=     F    use only even q-grid points
   HFALPHA =   -1.0000 decay constant for conv. correction
   MCALPHA =    0.0000 extent of test-charge in conv. correction in multipole expansion
   AEXX    =    0.2500 exact exchange contribution
   HFSCREEN=    0.2000 screening length (either q_TF or 0.3 A-1)
   HFSCREENC=   0.2000 screening length for correlation (either q_TF or 0.3 A-1)
   HFRCUT  =    0.0000 spherical cutoff for potential kernel
   ALDAX   =    0.7500 LDA exchange part
   AGGAX   =    0.7500 GGA exchange part
   ALDAC   =    1.0000 LDA correlation
   AGGAC   =    1.0000 GGA correlation
   ENCUTFOCK=  -1.0 apply spherical cutoff to Coloumb kernel
   NBANDSGWLOW=     1    first orbital included in HF term
   NBLOCK_FOCK=    64    blocking factor in FOCK_ACC
 Linear response parameters
   LEPSILON=     F    determine dielectric tensor
   LRPA    =     F    only Hartree local field effects (RPA)
   LNABLA  =     F    use nabla operator in PAW spheres
   LVEL    =     F    velocity operator in full k-point grid
   LINTERFAST=   F  fast interpolation
   KINTER  =     0    interpolate to denser k-point grid
   CSHIFT  =0.1000    complex shift for real part using Kramers Kronig
   OMEGAMAX=  -1.0    maximum frequency
   DEG_THRESHOLD= 0.2000000E-02 threshold for treating states as degnerate
   RTIME   =   -0.100 relaxation time in fs
  (WPLASMAI=    0.000 imaginary part of plasma frequency in eV, 0.658/RTIME)
   DFIELD  = 0.0000000 0.0000000 0.0000000 field for delta impulse in time
 
 Orbital magnetization related:
   ORBITALMAG=     F  switch on orbital magnetization
   LCHIMAG   =     F  perturbation theory with respect to B field
   DQ        =  0.001000  dq finite difference perturbation B field
   LLRAUG    =     F  two centre corrections for induced B field



--------------------------------------------------------------------------------------------------------


 Static calculation
 charge density and potential will be updated during run
 spin polarized calculation
 Conjugate gradient for all bands (Freysoldt, et al. PRB 79, 241103 (2009))
 perform sub-space diagonalisation
    before iterative eigenvector-optimisation
 modified Broyden-mixing scheme, WC =      100.0
 initial mixing is a Kerker type mixing with AMIX =  0.4000 and BMIX =      1.0000
 Hartree-type preconditioning will be used
 using additional bands           33
 reciprocal scheme for non local part
 use partial core corrections
 no Harris-corrections to forces 
 use gradient corrections 
 use of overlap-Matrix (Vanderbilt PP)
 Gauss-broadening in eV      SIGMA  =   0.10


--------------------------------------------------------------------------------------------------------


  energy-cutoff  :      500.00
  volume of cell :     3176.88
      direct lattice vectors                 reciprocal lattice vectors
    12.845545978  0.142933767  0.009286107     0.077857776 -0.000875509 -0.000054521
     0.138452025 12.311891992  0.007157012    -0.000903853  0.081232473 -0.000041352
     0.014184906  0.010384823 20.089916894    -0.000035666 -0.000028534  0.049776254

  length of vectors
    12.846344529 12.312672521 20.089924586     0.077862718  0.081237512  0.049776275


 
 old parameters found on file WAVECAR:
  energy-cutoff  :      500.00
  volume of cell :     3176.88
      direct lattice vectors                 reciprocal lattice vectors
    12.810000000  0.000000000  0.000000000     0.078064012  0.000000000  0.000000000
     0.000000000 12.400000000  0.000000000     0.000000000  0.080645161  0.000000000
     0.000000000  0.000000000 20.000000000     0.000000000  0.000000000  0.050000000

  length of vectors

 
 k-points in units of 2pi/SCALE and weight: KPOINTS created by Atomic Simulation Env
   0.01923848  0.02008924 -0.00002397       0.500
  -0.01969041  0.02052700  0.00000329       0.500
 
 k-points in reciprocal lattice and weights: KPOINTS created by Atomic Simulation Env
   0.25000000  0.25000000  0.00000000       0.500
  -0.25000000  0.25000000  0.00000000       0.500
 
 position of ions in fractional coordinates (direct lattice) 
   0.22150259  0.99736988  0.50024313
   0.05222127  0.10005726  0.50025160
   0.11013571  0.99933483  0.50019394
   0.27469255  0.09755317  0.50005688
   0.21677494  0.19749837  0.49997548
   0.05052023  0.30065206  0.50023599
   0.10587164  0.19954697  0.50025144
   0.27145533  0.29532734  0.49936457
   0.21714940  0.39769468  0.49944731
   0.05480320  0.50119080  0.50001788
   0.10756160  0.39901552  0.49995154
   0.22743154  0.59344667  0.49959650
   0.05882845  0.69990633  0.49994599
   0.11499111  0.59877152  0.49985788
   0.28802492  0.69383672  0.49989136
   0.22714807  0.79495074  0.50006026
   0.05703466  0.89967652  0.49998856
   0.11480423  0.79821678  0.49996488
   0.27936034  0.89663476  0.50020534
   0.55404981  0.00313011  0.49993699
   0.38548141  0.09957435  0.49984535
   0.44341663  0.99949789  0.50004191
   0.60672247  0.10531436  0.49977803
   0.54900212  0.20639503  0.49946178
   0.43682189  0.20275273  0.49930134
   0.60401330  0.30868577  0.49963871
   0.55926476  0.80003426  0.50031657
   0.39056927  0.89722846  0.50019469
   0.44606786  0.79435737  0.50019285
   0.61090184  0.90244136  0.50009239
   0.88734279  0.00310625  0.49989515
   0.71837218  0.10647614  0.49992475
   0.77573465  0.00524609  0.49987723
   0.94103108  0.10276784  0.50012755
   0.88418537  0.20428399  0.50026754
   0.71661644  0.30986996  0.50024235
   0.77261058  0.20747512  0.50015936
   0.93911901  0.30359845  0.50037321
   0.88440340  0.40591927  0.50045447
   0.77201546  0.41134810  0.50051887
   0.94408478  0.50317667  0.50030652
   0.88992799  0.60461472  0.50032616
   0.72488524  0.70731380  0.50048873
   0.77978263  0.60561109  0.50057678
   0.94715881  0.70260574  0.50006416
   0.89123564  0.80333614  0.49995067
   0.72230480  0.90502444  0.49998368
   0.78012641  0.80528421  0.50011149
   0.94538118  0.90251584  0.49985818
   0.27579565  0.49169866  0.49911102
   0.37828789  0.29675282  0.49871982
   0.55237437  0.40410428  0.49923394
   0.39727952  0.69479577  0.49999695
   0.61777667  0.70508431  0.50061519
   0.72068155  0.51241321  0.50071279
   0.41935269  0.44895399  0.49799882
   0.56600008  0.55640048  0.50051349
 
 position of ions in cartesian coordinates  (Angst):
   2.99050544 12.31636540 10.05903808
   0.69175993  1.24455345 10.05121403
   1.56020848 12.32463902 10.05702960
   3.54917547  1.24551999 10.04935010
   2.81902861  2.46775518 10.04789239
   0.69768158  3.71401156 10.05232031
   1.39470273  2.47712835 10.05242113
   3.53496397  3.68002421 10.03682715
   2.85154884  4.93259861 10.03871773
   0.78046065  6.18363285 10.04941363
   1.44402378  4.93320203 10.04783943
   3.01073296  7.34414713 10.04321152
   0.85967874  8.63077160 10.04942894
   1.56711520  7.39363739 10.04745643
   3.80299142  8.58880252 10.05041630
   3.03499688  9.82500786 10.05396794
   0.86429561 11.09006465 10.05169716
   1.59232968  9.84916018 10.05103176
   3.71977240 11.08439487 10.05809511
   7.12459718  0.12292179 10.04885991
   4.97259570  1.28623778 10.04614382
   5.84140427 12.37428209 10.05707142
   7.81535162  1.38853031 10.04688697
   7.08789261  2.62477114 10.04072093
   5.64636977  2.56389151 10.03642983
   7.80870605  3.89202838 10.04551840
   7.30192453  9.93506897 10.06223760
   5.14839383 11.10759983 10.05891800
   5.84706080  9.84899472 10.05866025
   7.97940628 11.20327243 10.05894618
  11.40592366  0.17026640 10.05111424
   9.24971613  1.41879398 10.05087959
   9.97255221  0.18065907 10.04973317
  12.10938063  1.40496535 10.05699502
  11.39322357  2.64669757 10.06000600
   9.25532748  3.92270913 10.05869960
   9.96042482  2.67003747 10.05681942
  12.11262796  3.87729943 10.06334992
  11.42394375  5.12924248 10.06520655
   9.98101193  5.18001827 10.06549544
  12.20404709  6.33519404 10.06348461
  11.52241812  7.57634766 10.06410217
   9.41657508  8.81717919 10.06657055
  10.10768230  7.57287399 10.06812142
  12.27114254  8.79098000 10.06007139
  11.56672365 10.02316731 10.05799291
   9.41079421 11.25099712 10.05781528
  10.13973689 10.03127220 10.06020599
  12.27598295 11.25199533 10.05734758
   3.61790225  6.09834447 10.03317917
   4.90747487  3.71283790 10.02487651
   7.15858102  5.05942564 10.03758991
   5.20656057  8.61622757 10.05355900
   8.04040010  8.77442185 10.06810052
   9.33559522  6.41698569 10.06963803
   5.45603687  5.59258435 10.01186220
   7.35471461  6.93644088 10.06451244
 


--------------------------------------------------------------------------------------------------------


 k-point  1 :   0.2500 0.2500 0.0000  plane waves:   80672
 k-point  2 :  -0.2500 0.2500 0.0000  plane waves:   80654

 maximum and minimum number of plane-waves per node :      2546     2493

 maximum number of plane-waves:     80672
 maximum index in each direction: 
   IXMAX=   23   IYMAX=   22   IZMAX=   36
   IXMIN=  -23   IYMIN=  -22   IZMIN=  -36


 parallel 3D FFT for wavefunctions:
    minimum data exchange during FFTs selected (reduces bandwidth)
 parallel 3D FFT for charge:
    minimum data exchange during FFTs selected (reduces bandwidth)


 FFT grid for exact exchange (Hartree Fock) 
  NGX = 72; NGY = 70; NGZ =112

 
 Radii for the augmentation spheres in the non-local exchange
 for species   1 augmentation radius   0.874 (default was   0.699)
       energy cutoff for augmentation   2000.0
 for species   2 augmentation radius   0.886 (default was   0.709)
       energy cutoff for augmentation   2000.0
 for species   3 augmentation radius   1.263 (default was   1.010)
       energy cutoff for augmentation   2000.0
 for species   4 augmentation radius   1.424 (default was   1.139)
       energy cutoff for augmentation   2000.0

 real space projection operators:
  total allocation   :       2632.52 KBytes
  max/ min on nodes  :        121.55         54.85

 Maximum index for augmentation-charges in exchange          151
  SETUP_FOCK is finished

 total amount of memory used by VASP MPI-rank0   161437. kBytes
=======================================================================

   base      :      30000. kBytes
   nonl-proj :       5271. kBytes
   fftplans  :      13455. kBytes
   grid      :      34560. kBytes
   one-center:         62. kBytes
   HF        :         23. kBytes
   nonlr-proj:       2277. kBytes
   wavefun   :      75789. kBytes
 
     INWAV:  cpu time    3.4890: real time    3.4915
 Broyden mixing: mesh for mixing (old mesh)
   NGX = 47   NGY = 45   NGZ = 73
  (NGX  =192   NGY  =180   NGZ  =300)
  gives a total of 154395 points

 charge density for first step will be calculated from the start-wavefunctions


--------------------------------------------------------------------------------------------------------


 Maximum index for augmentation-charges          400 (set IRDMAX)


--------------------------------------------------------------------------------------------------------


 initial charge from wavefunction
 First call to EWALD:  gamma=   0.121
 Maximum number of real-space cells 3x 3x 2
 Maximum number of reciprocal cells 2x 2x 4

    FEWALD:  cpu time    0.0031: real time    0.0031


--------------------------------------- Iteration      1(   1)  ---------------------------------------


    POTLOK:  cpu time    1.3123: real time    1.3154
    SETDIJ:  cpu time    2.0902: real time    2.0911
    TRIAL :  cpu time  507.8612: real time  507.9384
    CORREC:  cpu time    0.0022: real time    0.0024
    CHARGE:  cpu time    1.6307: real time    1.6308
    --------------------------------------------
      LOOP:  cpu time  512.9126: real time  512.9959

 eigenvalue-minimisations  :     0
 total energy-change (2. order) :-0.6006021E+03  (-0.4315591E+00)
 number of electron     240.0000003 magnetization      -0.1226925
 augmentation part       12.6567760 magnetization      -0.1395861

 DIPCOR: dipole corrections for dipol
 direction  3 min pos     1,
 dipolmoment           0.000003      0.000002      0.004057 electrons x Angstroem
 Tr[quadrupol]     -6248.397233

 energy correction for charged system         0.000000 eV
 dipol+quadrupol energy correction            0.000000 eV
 added-field ion interaction          0.000000 eV  (added to PSCEN)


 Free energy of the ion-electron system (eV)
  ---------------------------------------------------
  alpha Z        PSCENC =        97.51970463
  Ewald energy   TEWEN  =     38559.17382933
  -Hartree energ DENC   =    -46792.93048319
  -exchange      EXHF   =       544.89308468
  -V(xc)+E(xc)   XCENC  =       598.77921559
  PAW double counting   =     25773.58827842   -25797.07108261
  entropy T*S    EENTRO =        -0.02188296
  eigenvalues    EBANDS =     -3140.38446921
  atomic energy  EATOM  =      9555.85528334
  ---------------------------------------------------
  free energy    TOTEN  =      -600.60205803 eV

  energy without entropy =     -600.58017508  energy(sigma->0) =     -600.59111656
  exchange ACFDT corr.  =        -0.03836376  see jH, gK, PRB 81, 115126


--------------------------------------------------------------------------------------------------------




--------------------------------------- Iteration      1(   2)  ---------------------------------------


    POTLOK:  cpu time    1.3217: real time    1.3219
    SETDIJ:  cpu time    2.0937: real time    2.0937
    TRIAL :  cpu time  510.3682: real time  510.4195
    CORREC:  cpu time    0.0022: real time    0.0024
    CHARGE:  cpu time    1.6215: real time    1.6216
    --------------------------------------------
      LOOP:  cpu time  515.4096: real time  515.4615

 eigenvalue-minimisations  :     0
 total energy-change (2. order) :-0.3652571E+00  (-0.3993415E+00)
 number of electron     240.0000003 magnetization      -0.0859093
 augmentation part       12.6323247 magnetization      -0.1411980

 DIPCOR: dipole corrections for dipol
 direction  3 min pos     1,
 dipolmoment           0.000003      0.000002      0.004090 electrons x Angstroem
 Tr[quadrupol]     -6248.217942

 energy correction for charged system         0.000000 eV
 dipol+quadrupol energy correction            0.000000 eV
 added-field ion interaction          0.000000 eV  (added to PSCEN)


 Free energy of the ion-electron system (eV)
  ---------------------------------------------------
  alpha Z        PSCENC =        97.51970464
  Ewald energy   TEWEN  =     38559.17382933
  -Hartree energ DENC   =    -46776.88969906
  -exchange      EXHF   =       544.75584275
  -V(xc)+E(xc)   XCENC  =       598.43674333
  PAW double counting   =     25899.58956693   -25922.62114532
  entropy T*S    EENTRO =        -0.01738056
  eigenvalues    EBANDS =     -3156.76555808
  atomic energy  EATOM  =      9555.85528334
  ---------------------------------------------------
  free energy    TOTEN  =      -600.96731510 eV

  energy without entropy =     -600.94993454  energy(sigma->0) =     -600.95862482
  exchange ACFDT corr.  =        -0.03406727  see jH, gK, PRB 81, 115126


--------------------------------------------------------------------------------------------------------




--------------------------------------- Iteration      1(   3)  ---------------------------------------


    POTLOK:  cpu time    1.3231: real time    1.3248
    SETDIJ:  cpu time    2.0899: real time    2.0899
    TRIAL :  cpu time  511.6487: real time  511.6970
    CORREC:  cpu time    0.0021: real time    0.0023
    CHARGE:  cpu time    1.6326: real time    1.6326
    --------------------------------------------
      LOOP:  cpu time  516.6985: real time  516.7489

 eigenvalue-minimisations  :     0
 total energy-change (2. order) :-0.3165896E+00  (-0.2527934E+00)
 number of electron     240.0000003 magnetization      -0.0596869
 augmentation part       12.6281110 magnetization      -0.1435991

 DIPCOR: dipole corrections for dipol
 direction  3 min pos     1,
 dipolmoment           0.000003      0.000002      0.004069 electrons x Angstroem
 Tr[quadrupol]     -6248.049403

 energy correction for charged system         0.000000 eV
 dipol+quadrupol energy correction            0.000000 eV
 added-field ion interaction          0.000000 eV  (added to PSCEN)


 Free energy of the ion-electron system (eV)
  ---------------------------------------------------
  alpha Z        PSCENC =        97.51970464
  Ewald energy   TEWEN  =     38559.17382933
  -Hartree energ DENC   =    -46761.68565820
  -exchange      EXHF   =       544.71146749
  -V(xc)+E(xc)   XCENC  =       598.12491313
  PAW double counting   =     26061.09469159   -26083.93255840
  entropy T*S    EENTRO =        -0.01375790
  eigenvalues    EBANDS =     -3172.12819704
  atomic energy  EATOM  =      9555.85528334
  ---------------------------------------------------
  free energy    TOTEN  =      -601.28390468 eV

  energy without entropy =     -601.27014679  energy(sigma->0) =     -601.27702573
  exchange ACFDT corr.  =        -0.02275788  see jH, gK, PRB 81, 115126


--------------------------------------------------------------------------------------------------------




--------------------------------------- Iteration      1(   4)  ---------------------------------------


    POTLOK:  cpu time    1.3228: real time    1.3228
    SETDIJ:  cpu time    2.0867: real time    2.0869
    TRIAL :  cpu time  510.0807: real time  510.1358
    CORREC:  cpu time    0.0022: real time    0.0024
    CHARGE:  cpu time    1.6161: real time    1.6161
    --------------------------------------------
      LOOP:  cpu time  515.1110: real time  515.1665

 eigenvalue-minimisations  :     0
 total energy-change (2. order) :-0.2041044E+00  (-0.1714554E+00)
 number of electron     240.0000002 magnetization      -0.0421794
 augmentation part       12.6345967 magnetization      -0.1464022

 DIPCOR: dipole corrections for dipol
 direction  3 min pos     1,
 dipolmoment           0.000003      0.000002      0.004325 electrons x Angstroem
 Tr[quadrupol]     -6247.989863

 energy correction for charged system         0.000000 eV
 dipol+quadrupol energy correction            0.000001 eV
 added-field ion interaction          0.000000 eV  (added to PSCEN)


 Free energy of the ion-electron system (eV)
  ---------------------------------------------------
  alpha Z        PSCENC =        97.51970470
  Ewald energy   TEWEN  =     38559.17382933
  -Hartree energ DENC   =    -46755.17461615
  -exchange      EXHF   =       544.88347519
  -V(xc)+E(xc)   XCENC  =       598.04290882
  PAW double counting   =     26199.02984350   -26221.89508181
  entropy T*S    EENTRO =        -0.01114070
  eigenvalues    EBANDS =     -3178.90959806
  atomic energy  EATOM  =      9555.85528334
  ---------------------------------------------------
  free energy    TOTEN  =      -601.48800905 eV

  energy without entropy =     -601.47686835  energy(sigma->0) =     -601.48243870
  exchange ACFDT corr.  =        -0.01497877  see jH, gK, PRB 81, 115126


--------------------------------------------------------------------------------------------------------




--------------------------------------- Iteration      1(   5)  ---------------------------------------


    POTLOK:  cpu time    1.3213: real time    1.3214
    SETDIJ:  cpu time    2.0873: real time    2.0875
    TRIAL :  cpu time  510.2689: real time  510.3208
    CORREC:  cpu time    0.0021: real time    0.0021
    CHARGE:  cpu time    1.6158: real time    1.6161
    --------------------------------------------
      LOOP:  cpu time  515.2977: real time  515.3500

 eigenvalue-minimisations  :     0
 total energy-change (2. order) :-0.1458925E+00  (-0.1309956E+00)
 number of electron     240.0000002 magnetization      -0.0290877
 augmentation part       12.6441591 magnetization      -0.1477124

 DIPCOR: dipole corrections for dipol
 direction  3 min pos     1,
 dipolmoment           0.000003      0.000002      0.004556 electrons x Angstroem
 Tr[quadrupol]     -6248.021517

 energy correction for charged system         0.000000 eV
 dipol+quadrupol energy correction            0.000001 eV
 added-field ion interaction          0.000000 eV  (added to PSCEN)


 Free energy of the ion-electron system (eV)
  ---------------------------------------------------
  alpha Z        PSCENC =        97.51970476
  Ewald energy   TEWEN  =     38559.17382933
  -Hartree energ DENC   =    -46756.36524960
  -exchange      EXHF   =       545.21263188
  -V(xc)+E(xc)   XCENC  =       598.16088129
  PAW double counting   =     26297.76333149   -26320.73609821
  entropy T*S    EENTRO =        -0.00915332
  eigenvalues    EBANDS =     -3178.20707508
  atomic energy  EATOM  =      9555.85528334
  ---------------------------------------------------
  free energy    TOTEN  =      -601.63390150 eV

  energy without entropy =     -601.62474819  energy(sigma->0) =     -601.62932485
  exchange ACFDT corr.  =        -0.01025709  see jH, gK, PRB 81, 115126


--------------------------------------------------------------------------------------------------------




--------------------------------------- Iteration      1(   6)  ---------------------------------------


    POTLOK:  cpu time    1.3199: real time    1.3199
    SETDIJ:  cpu time    2.0940: real time    2.0943
    TRIAL :  cpu time  510.1725: real time  510.2169
    CORREC:  cpu time    0.0021: real time    0.0023
    CHARGE:  cpu time    1.6172: real time    1.6173
    --------------------------------------------
      LOOP:  cpu time  515.2083: real time  515.2533

 eigenvalue-minimisations  :     0
 total energy-change (2. order) :-0.1149831E+00  (-0.1039420E+00)
 number of electron     240.0000002 magnetization      -0.0191174
 augmentation part       12.6527471 magnetization      -0.1467723

 DIPCOR: dipole corrections for dipol
 direction  3 min pos     1,
 dipolmoment           0.000003      0.000002      0.004579 electrons x Angstroem
 Tr[quadrupol]     -6248.083860

 energy correction for charged system         0.000000 eV
 dipol+quadrupol energy correction            0.000001 eV
 added-field ion interaction          0.000000 eV  (added to PSCEN)


 Free energy of the ion-electron system (eV)
  ---------------------------------------------------
  alpha Z        PSCENC =        97.51970476
  Ewald energy   TEWEN  =     38559.17382933
  -Hartree energ DENC   =    -46760.69051317
  -exchange      EXHF   =       545.57457181
  -V(xc)+E(xc)   XCENC  =       598.35574497
  PAW double counting   =     26361.76906531   -26384.85281266
  entropy T*S    EENTRO =        -0.00762026
  eigenvalues    EBANDS =     -3174.44460498
  atomic energy  EATOM  =      9555.85528334
  ---------------------------------------------------
  free energy    TOTEN  =      -601.74888461 eV

  energy without entropy =     -601.74126436  energy(sigma->0) =     -601.74507448
  exchange ACFDT corr.  =        -0.00723818  see jH, gK, PRB 81, 115126


--------------------------------------------------------------------------------------------------------




--------------------------------------- Iteration      1(   7)  ---------------------------------------


    POTLOK:  cpu time    1.3253: real time    1.3254
    SETDIJ:  cpu time    2.0963: real time    2.0964
    TRIAL :  cpu time  509.8048: real time  509.8567
    CORREC:  cpu time    0.0021: real time    0.0023
    CHARGE:  cpu time    1.6165: real time    1.6167
    --------------------------------------------
      LOOP:  cpu time  514.8475: real time  514.9000

 eigenvalue-minimisations  :     0
 total energy-change (2. order) :-0.9271286E-01  (-0.8386796E-01)
 number of electron     240.0000002 magnetization      -0.0118969
 augmentation part       12.6600002 magnetization      -0.1437946

 DIPCOR: dipole corrections for dipol
 direction  3 min pos     1,
 dipolmoment           0.000003      0.000002      0.004508 electrons x Angstroem
 Tr[quadrupol]     -6248.136561

 energy correction for charged system         0.000000 eV
 dipol+quadrupol energy correction            0.000001 eV
 added-field ion interaction          0.000000 eV  (added to PSCEN)


 Free energy of the ion-electron system (eV)
  ---------------------------------------------------
  alpha Z        PSCENC =        97.51970474
  Ewald energy   TEWEN  =     38559.17382933
  -Hartree energ DENC   =    -46764.73080798
  -exchange      EXHF   =       545.88782602
  -V(xc)+E(xc)   XCENC  =       598.53756658
  PAW double counting   =     26400.48521975   -26423.65010647
  entropy T*S    EENTRO =        -0.00646917
  eigenvalues    EBANDS =     -3170.91249254
  atomic energy  EATOM  =      9555.85528334
  ---------------------------------------------------
  free energy    TOTEN  =      -601.84159748 eV

  energy without entropy =     -601.83512830  energy(sigma->0) =     -601.83836289
  exchange ACFDT corr.  =        -0.00524399  see jH, gK, PRB 81, 115126


--------------------------------------------------------------------------------------------------------




--------------------------------------- Iteration      1(   8)  ---------------------------------------


    POTLOK:  cpu time    1.3172: real time    1.3172
    SETDIJ:  cpu time    2.0848: real time    2.0849
    TRIAL :  cpu time  510.2419: real time  510.3006
    CORREC:  cpu time    0.0021: real time    0.0023
    CHARGE:  cpu time    1.6193: real time    1.6194
    --------------------------------------------
      LOOP:  cpu time  515.2676: real time  515.3267

 eigenvalue-minimisations  :     0
 total energy-change (2. order) :-0.7556316E-01  (-0.6840978E-01)
 number of electron     240.0000002 magnetization      -0.0070178
 augmentation part       12.6666286 magnetization      -0.1399930

 DIPCOR: dipole corrections for dipol
 direction  3 min pos     1,
 dipolmoment           0.000003      0.000002      0.004444 electrons x Angstroem
 Tr[quadrupol]     -6248.168121

 energy correction for charged system         0.000000 eV
 dipol+quadrupol energy correction            0.000001 eV
 added-field ion interaction          0.000000 eV  (added to PSCEN)


 Free energy of the ion-electron system (eV)
  ---------------------------------------------------
  alpha Z        PSCENC =        97.51970473
  Ewald energy   TEWEN  =     38559.17382933
  -Hartree energ DENC   =    -46767.29088286
  -exchange      EXHF   =       546.12910299
  -V(xc)+E(xc)   XCENC  =       598.67429315
  PAW double counting   =     26422.79188998   -26446.01679759
  entropy T*S    EENTRO =        -0.00562860
  eigenvalues    EBANDS =     -3168.74711454
  atomic energy  EATOM  =      9555.85528334
  ---------------------------------------------------
  free energy    TOTEN  =      -601.91716064 eV

  energy without entropy =     -601.91153204  energy(sigma->0) =     -601.91434634
  exchange ACFDT corr.  =        -0.00395133  see jH, gK, PRB 81, 115126


--------------------------------------------------------------------------------------------------------




--------------------------------------- Iteration      1(   9)  ---------------------------------------


    POTLOK:  cpu time    1.3160: real time    1.3160
    SETDIJ:  cpu time    2.0899: real time    2.0901
    TRIAL :  cpu time  510.5367: real time  510.5957
    CORREC:  cpu time    0.0022: real time    0.0024
    CHARGE:  cpu time    1.6173: real time    1.6173
    --------------------------------------------
      LOOP:  cpu time  515.5642: real time  515.6237

 eigenvalue-minimisations  :     0
 total energy-change (2. order) :-0.6193591E-01  (-0.5567736E-01)
 number of electron     240.0000002 magnetization      -0.0039812
 augmentation part       12.6726457 magnetization      -0.1367073

 DIPCOR: dipole corrections for dipol
 direction  3 min pos     1,
 dipolmoment           0.000003      0.000002      0.004413 electrons x Angstroem
 Tr[quadrupol]     -6248.182925

 energy correction for charged system         0.000000 eV
 dipol+quadrupol energy correction            0.000001 eV
 added-field ion interaction          0.000000 eV  (added to PSCEN)


 Free energy of the ion-electron system (eV)
  ---------------------------------------------------
  alpha Z        PSCENC =        97.51970472
  Ewald energy   TEWEN  =     38559.17382933
  -Hartree energ DENC   =    -46768.57065247
  -exchange      EXHF   =       546.30912400
  -V(xc)+E(xc)   XCENC  =       598.77013369
  PAW double counting   =     26435.56808391   -26458.85260781
  entropy T*S    EENTRO =        -0.00502303
  eigenvalues    EBANDS =     -3167.74636666
  atomic energy  EATOM  =      9555.85528334
  ---------------------------------------------------
  free energy    TOTEN  =      -601.97909655 eV

  energy without entropy =     -601.97407353  energy(sigma->0) =     -601.97658504
  exchange ACFDT corr.  =        -0.00313824  see jH, gK, PRB 81, 115126


--------------------------------------------------------------------------------------------------------




--------------------------------------- Iteration      1(  10)  ---------------------------------------


    POTLOK:  cpu time    1.3151: real time    1.3152
    SETDIJ:  cpu time    2.0863: real time    2.0864
    TRIAL :  cpu time  510.1652: real time  510.2098
    CORREC:  cpu time    0.0020: real time    0.0022
    CHARGE:  cpu time    1.6149: real time    1.6150
    --------------------------------------------
      LOOP:  cpu time  515.1854: real time  515.2305

 eigenvalue-minimisations  :     0
 total energy-change (2. order) :-0.5054766E-01  (-0.4500076E-01)
 number of electron     240.0000002 magnetization      -0.0022360
 augmentation part       12.6776193 magnetization      -0.1344729

 DIPCOR: dipole corrections for dipol
 direction  3 min pos     1,
 dipolmoment           0.000003      0.000002      0.004394 electrons x Angstroem
 Tr[quadrupol]     -6248.189219

 energy correction for charged system         0.000000 eV
 dipol+quadrupol energy correction            0.000001 eV
 added-field ion interaction          0.000000 eV  (added to PSCEN)


 Free energy of the ion-electron system (eV)
  ---------------------------------------------------
  alpha Z        PSCENC =        97.51970471
  Ewald energy   TEWEN  =     38559.17382933
  -Hartree energ DENC   =    -46769.15788023
  -exchange      EXHF   =       546.44806561
  -V(xc)+E(xc)   XCENC  =       598.84028568
  PAW double counting   =     26443.19362187   -26466.54334928
  entropy T*S    EENTRO =        -0.00458291
  eigenvalues    EBANDS =     -3167.35418222
  atomic energy  EATOM  =      9555.85528334
  ---------------------------------------------------
  free energy    TOTEN  =      -602.02964422 eV

  energy without entropy =     -602.02506131  energy(sigma->0) =     -602.02735276
  exchange ACFDT corr.  =        -0.00263398  see jH, gK, PRB 81, 115126


--------------------------------------------------------------------------------------------------------




--------------------------------------- Iteration      1(  11)  ---------------------------------------


    POTLOK:  cpu time    1.3162: real time    1.3164
    SETDIJ:  cpu time    2.0844: real time    2.0844
    TRIAL :  cpu time  509.6931: real time  509.7505
    CORREC:  cpu time    0.0020: real time    0.0022
    CHARGE:  cpu time    1.6164: real time    1.6165
    --------------------------------------------
      LOOP:  cpu time  514.7141: real time  514.7721

 eigenvalue-minimisations  :     0
 total energy-change (2. order) :-0.4096711E-01  (-0.3612641E-01)
 number of electron     240.0000002 magnetization      -0.0012881
 augmentation part       12.6814863 magnetization      -0.1330931

 DIPCOR: dipole corrections for dipol
 direction  3 min pos     1,
 dipolmoment           0.000003      0.000002      0.004368 electrons x Angstroem
 Tr[quadrupol]     -6248.192840

 energy correction for charged system         0.000000 eV
 dipol+quadrupol energy correction            0.000001 eV
 added-field ion interaction          0.000000 eV  (added to PSCEN)


 Free energy of the ion-electron system (eV)
  ---------------------------------------------------
  alpha Z        PSCENC =        97.51970471
  Ewald energy   TEWEN  =     38559.17382933
  -Hartree energ DENC   =    -46769.49503660
  -exchange      EXHF   =       546.56208982
  -V(xc)+E(xc)   XCENC  =       598.89703429
  PAW double counting   =     26448.18638360   -26471.59832981
  entropy T*S    EENTRO =        -0.00425387
  eigenvalues    EBANDS =     -3167.16698709
  atomic energy  EATOM  =      9555.85528334
  ---------------------------------------------------
  free energy    TOTEN  =      -602.07061133 eV

  energy without entropy =     -602.06635746  energy(sigma->0) =     -602.06848439
  exchange ACFDT corr.  =        -0.00243798  see jH, gK, PRB 81, 115126


--------------------------------------------------------------------------------------------------------




--------------------------------------- Iteration      1(  12)  ---------------------------------------


    POTLOK:  cpu time    1.3129: real time    1.3130
    SETDIJ:  cpu time    2.0849: real time    2.0850
    TRIAL :  cpu time  510.2654: real time  510.5026
    CORREC:  cpu time    0.0021: real time    0.0023
    CHARGE:  cpu time    1.6249: real time    1.6251
    --------------------------------------------
      LOOP:  cpu time  515.2921: real time  515.5299

 eigenvalue-minimisations  :     0
 total energy-change (2. order) :-0.3298911E-01  (-0.2884859E-01)
 number of electron     240.0000002 magnetization      -0.0007899
 augmentation part       12.6846221 magnetization      -0.1321283

 DIPCOR: dipole corrections for dipol
 direction  3 min pos     1,
 dipolmoment           0.000003      0.000002      0.004336 electrons x Angstroem
 Tr[quadrupol]     -6248.196137

 energy correction for charged system         0.000000 eV
 dipol+quadrupol energy correction            0.000001 eV
 added-field ion interaction          0.000000 eV  (added to PSCEN)


 Free energy of the ion-electron system (eV)
  ---------------------------------------------------
  alpha Z        PSCENC =        97.51970470
  Ewald energy   TEWEN  =     38559.17382933
  -Hartree energ DENC   =    -46769.77951118
  -exchange      EXHF   =       546.65984542
  -V(xc)+E(xc)   XCENC  =       598.94638067
  PAW double counting   =     26451.97854112   -26475.44295373
  entropy T*S    EENTRO =        -0.00400000
  eigenvalues    EBANDS =     -3167.01046623
  atomic energy  EATOM  =      9555.85528334
  ---------------------------------------------------
  free energy    TOTEN  =      -602.10360044 eV

  energy without entropy =     -602.09960044  energy(sigma->0) =     -602.10160044
  exchange ACFDT corr.  =        -0.00216354  see jH, gK, PRB 81, 115126


--------------------------------------------------------------------------------------------------------




--------------------------------------- Iteration      1(  13)  ---------------------------------------


    POTLOK:  cpu time    1.3117: real time    1.3119
    SETDIJ:  cpu time    2.0798: real time    2.0798
    TRIAL :  cpu time  510.3821: real time  510.4338
    CORREC:  cpu time    0.0021: real time    0.0023
    CHARGE:  cpu time    1.6181: real time    1.6181
    --------------------------------------------
      LOOP:  cpu time  515.3961: real time  515.4483

 eigenvalue-minimisations  :     0
 total energy-change (2. order) :-0.2643138E-01  (-0.2294695E-01)
 number of electron     240.0000002 magnetization      -0.0005350
 augmentation part       12.6874186 magnetization      -0.1312622

 DIPCOR: dipole corrections for dipol
 direction  3 min pos     1,
 dipolmoment           0.000003      0.000002      0.004305 electrons x Angstroem
 Tr[quadrupol]     -6248.199479

 energy correction for charged system         0.000000 eV
 dipol+quadrupol energy correction            0.000001 eV
 added-field ion interaction          0.000000 eV  (added to PSCEN)


 Free energy of the ion-electron system (eV)
  ---------------------------------------------------
  alpha Z        PSCENC =        97.51970469
  Ewald energy   TEWEN  =     38559.17382933
  -Hartree energ DENC   =    -46770.05829952
  -exchange      EXHF   =       546.74492676
  -V(xc)+E(xc)   XCENC  =       598.99019318
  PAW double counting   =     26455.42006157   -26478.92786276
  entropy T*S    EENTRO =        -0.00379947
  eigenvalues    EBANDS =     -3166.84386841
  atomic energy  EATOM  =      9555.85528334
  ---------------------------------------------------
  free energy    TOTEN  =      -602.13003181 eV

  energy without entropy =     -602.12623235  energy(sigma->0) =     -602.12813208
  exchange ACFDT corr.  =        -0.00197813  see jH, gK, PRB 81, 115126


--------------------------------------------------------------------------------------------------------




--------------------------------------- Iteration      1(  14)  ---------------------------------------


    POTLOK:  cpu time    1.3098: real time    1.3145
    SETDIJ:  cpu time    2.0846: real time    2.0846
    TRIAL :  cpu time  510.2761: real time  510.3294
    CORREC:  cpu time    0.0021: real time    0.0023
    CHARGE:  cpu time    1.6172: real time    1.6172
    --------------------------------------------
      LOOP:  cpu time  515.2919: real time  515.3501

 eigenvalue-minimisations  :     0
 total energy-change (2. order) :-0.2109794E-01  (-0.1820677E-01)
 number of electron     240.0000002 magnetization      -0.0004111
 augmentation part       12.6900125 magnetization      -0.1304330

 DIPCOR: dipole corrections for dipol
 direction  3 min pos     1,
 dipolmoment           0.000003      0.000002      0.004286 electrons x Angstroem
 Tr[quadrupol]     -6248.202643

 energy correction for charged system         0.000000 eV
 dipol+quadrupol energy correction            0.000001 eV
 added-field ion interaction          0.000000 eV  (added to PSCEN)


 Free energy of the ion-electron system (eV)
  ---------------------------------------------------
  alpha Z        PSCENC =        97.51970469
  Ewald energy   TEWEN  =     38559.17382933
  -Hartree energ DENC   =    -46770.32364206
  -exchange      EXHF   =       546.81893713
  -V(xc)+E(xc)   XCENC  =       599.02887606
  PAW double counting   =     26458.91675087   -26482.46265464
  entropy T*S    EENTRO =        -0.00363848
  eigenvalues    EBANDS =     -3166.67441500
  atomic energy  EATOM  =      9555.85528334
  ---------------------------------------------------
  free energy    TOTEN  =      -602.15112975 eV

  energy without entropy =     -602.14749128  energy(sigma->0) =     -602.14931052
  exchange ACFDT corr.  =        -0.00184507  see jH, gK, PRB 81, 115126


--------------------------------------------------------------------------------------------------------




--------------------------------------- Iteration      1(  15)  ---------------------------------------


    POTLOK:  cpu time    1.3076: real time    1.3079
    SETDIJ:  cpu time    2.0826: real time    2.0826
    TRIAL :  cpu time  511.2140: real time  511.2704
    CORREC:  cpu time    0.0021: real time    0.0023
    CHARGE:  cpu time    1.6160: real time    1.6162
    --------------------------------------------
      LOOP:  cpu time  516.2248: real time  516.2817

 eigenvalue-minimisations  :     0
 total energy-change (2. order) :-0.1679768E-01  (-0.1443839E-01)
 number of electron     240.0000002 magnetization      -0.0003584
 augmentation part       12.6923399 magnetization      -0.1297196

 DIPCOR: dipole corrections for dipol
 direction  3 min pos     1,
 dipolmoment           0.000003      0.000002      0.004274 electrons x Angstroem
 Tr[quadrupol]     -6248.205466

 energy correction for charged system         0.000000 eV
 dipol+quadrupol energy correction            0.000001 eV
 added-field ion interaction          0.000000 eV  (added to PSCEN)


 Free energy of the ion-electron system (eV)
  ---------------------------------------------------
  alpha Z        PSCENC =        97.51970468
  Ewald energy   TEWEN  =     38559.17382933
  -Hartree energ DENC   =    -46770.56382967
  -exchange      EXHF   =       546.88322862
  -V(xc)+E(xc)   XCENC  =       599.06281229
  PAW double counting   =     26462.54960715   -26486.13042546
  entropy T*S    EENTRO =        -0.00350752
  eigenvalues    EBANDS =     -3166.51449924
  atomic energy  EATOM  =      9555.85528334
  ---------------------------------------------------
  free energy    TOTEN  =      -602.16792743 eV

  energy without entropy =     -602.16441991  energy(sigma->0) =     -602.16617367
  exchange ACFDT corr.  =        -0.00174507  see jH, gK, PRB 81, 115126


--------------------------------------------------------------------------------------------------------




--------------------------------------- Iteration      1(  16)  ---------------------------------------


    POTLOK:  cpu time    1.3059: real time    1.3059
    SETDIJ:  cpu time    2.0814: real time    2.0814
    TRIAL :  cpu time  510.4948: real time  510.5564
    CORREC:  cpu time    0.0021: real time    0.0021
    CHARGE:  cpu time    1.6166: real time    1.6169
    --------------------------------------------
      LOOP:  cpu time  515.5027: real time  515.5647

 eigenvalue-minimisations  :     0
 total energy-change (2. order) :-0.1336534E-01  (-0.1146198E-01)
 number of electron     240.0000002 magnetization      -0.0003448
 augmentation part       12.6943227 magnetization      -0.1291621

 DIPCOR: dipole corrections for dipol
 direction  3 min pos     1,
 dipolmoment           0.000003      0.000002      0.004263 electrons x Angstroem
 Tr[quadrupol]     -6248.207895

 energy correction for charged system         0.000000 eV
 dipol+quadrupol energy correction            0.000001 eV
 added-field ion interaction          0.000000 eV  (added to PSCEN)


 Free energy of the ion-electron system (eV)
  ---------------------------------------------------
  alpha Z        PSCENC =        97.51970468
  Ewald energy   TEWEN  =     38559.17382933
  -Hartree energ DENC   =    -46770.77475202
  -exchange      EXHF   =       546.93926853
  -V(xc)+E(xc)   XCENC  =       599.09264912
  PAW double counting   =     26466.17575431   -26489.78798738
  entropy T*S    EENTRO =        -0.00339964
  eigenvalues    EBANDS =     -3166.37153515
  atomic energy  EATOM  =      9555.85528334
  ---------------------------------------------------
  free energy    TOTEN  =      -602.18129277 eV

  energy without entropy =     -602.17789314  energy(sigma->0) =     -602.17959295
  exchange ACFDT corr.  =        -0.00166725  see jH, gK, PRB 81, 115126


--------------------------------------------------------------------------------------------------------




--------------------------------------- Iteration      1(  17)  ---------------------------------------


    POTLOK:  cpu time    1.3057: real time    1.3057
    SETDIJ:  cpu time    2.0855: real time    2.0857
    TRIAL :  cpu time  511.0682: real time  511.1162
    CORREC:  cpu time    0.0019: real time    0.0021
    CHARGE:  cpu time    1.6211: real time    1.6211
    --------------------------------------------
      LOOP:  cpu time  516.0847: real time  516.1331

 eigenvalue-minimisations  :     0
 total energy-change (2. order) :-0.1064402E-01  (-0.9119429E-02)
 number of electron     240.0000002 magnetization      -0.0003524
 augmentation part       12.6959977 magnetization      -0.1287138

 DIPCOR: dipole corrections for dipol
 direction  3 min pos     1,
 dipolmoment           0.000003      0.000002      0.004250 electrons x Angstroem
 Tr[quadrupol]     -6248.209840

 energy correction for charged system         0.000000 eV
 dipol+quadrupol energy correction            0.000001 eV
 added-field ion interaction          0.000000 eV  (added to PSCEN)


 Free energy of the ion-electron system (eV)
  ---------------------------------------------------
  alpha Z        PSCENC =        97.51970468
  Ewald energy   TEWEN  =     38559.17382933
  -Hartree energ DENC   =    -46770.95353841
  -exchange      EXHF   =       546.98827609
  -V(xc)+E(xc)   XCENC  =       599.11897988
  PAW double counting   =     26469.58020870   -26493.21951232
  entropy T*S    EENTRO =        -0.00330968
  eigenvalues    EBANDS =     -3166.25176846
  atomic energy  EATOM  =      9555.85528334
  ---------------------------------------------------
  free energy    TOTEN  =      -602.19193679 eV

  energy without entropy =     -602.18862712  energy(sigma->0) =     -602.19028196
  exchange ACFDT corr.  =        -0.00160500  see jH, gK, PRB 81, 115126


--------------------------------------------------------------------------------------------------------




--------------------------------------- Iteration      1(  18)  ---------------------------------------


    POTLOK:  cpu time    1.3117: real time    1.3119
    SETDIJ:  cpu time    2.0853: real time    2.0855
    TRIAL :  cpu time  510.6379: real time  510.6897
    CORREC:  cpu time    0.0021: real time    0.0021
    CHARGE:  cpu time    1.6141: real time    1.6141
    --------------------------------------------
      LOOP:  cpu time  515.6530: real time  515.7052

 eigenvalue-minimisations  :     0
 total energy-change (2. order) :-0.8494338E-02  (-0.7276080E-02)
 number of electron     240.0000002 magnetization      -0.0003718
 augmentation part       12.6974723 magnetization      -0.1282996

 DIPCOR: dipole corrections for dipol
 direction  3 min pos     1,
 dipolmoment           0.000003      0.000002      0.004241 electrons x Angstroem
 Tr[quadrupol]     -6248.211261

 energy correction for charged system         0.000000 eV
 dipol+quadrupol energy correction            0.000001 eV
 added-field ion interaction          0.000000 eV  (added to PSCEN)


 Free energy of the ion-electron system (eV)
  ---------------------------------------------------
  alpha Z        PSCENC =        97.51970468
  Ewald energy   TEWEN  =     38559.17382933
  -Hartree energ DENC   =    -46771.09952610
  -exchange      EXHF   =       547.03112496
  -V(xc)+E(xc)   XCENC  =       599.14221344
  PAW double counting   =     26472.62563709   -26496.28804257
  entropy T*S    EENTRO =        -0.00323382
  eigenvalues    EBANDS =     -3166.15734562
  atomic energy  EATOM  =      9555.85528334
  ---------------------------------------------------
[...]
  E(xc)    -701.41304  -701.86304  -715.14278    -0.57271    -0.03950    -0.00814
  Local  -95718.06253-95639.45442 97772.46087    74.79799  -100.49876  -130.80833
  n-local  -173.94852  -170.39472  -169.04000     2.35207     0.16261     0.05954
  augment    44.25858    48.54493    52.82819     1.55042     0.20108    -0.06220
  Kinetic  3588.56923  3583.18437  4104.32430    12.86938     0.33457    -0.08459
  Fock     -307.69092  -311.51542  -291.31122    -1.82391    -0.11070     0.07944
  -------------------------------------------------------------------------------------
  Total     -39.93679   -41.65049    -0.40219     2.83757     0.04015     0.04613
  in kB     -20.14109   -21.00535    -0.20283     1.43106     0.02025     0.02326
  external pressure =      -13.78 kB  Pullay stress =        0.00 kB


 VOLUME and BASIS-vectors are now :
 -----------------------------------------------------------------------------
  energy-cutoff  :      500.00
  volume of cell :     3176.88
      direct lattice vectors                 reciprocal lattice vectors
    12.845545978  0.142933767  0.009286107     0.077857776 -0.000875509 -0.000054521
     0.138452025 12.311891992  0.007157012    -0.000903853  0.081232473 -0.000041352
     0.014184906  0.010384823 20.089916894    -0.000035666 -0.000028534  0.049776254

  length of vectors
    12.846344529 12.312672521 20.089924586     0.077862718  0.081237512  0.049776275


 FORCES acting on ions:
    Electron-Ion                     Ewald-Force                    Non-Local-Force
 -----------------------------------------------------------------------------------------------
   0.291E+00 0.879E+01 -.174E+01   -.644E+00 -.880E+01 0.174E+01   0.385E+00 0.220E-01 -.135E-01
   0.363E+01 0.627E+01 -.143E+01   -.366E+01 -.644E+01 0.143E+01   0.911E-01 0.118E+00 -.678E-02
   -.696E+00 0.113E+01 -.110E+01   0.520E+00 -.113E+01 0.109E+01   0.529E-01 0.168E-01 -.408E-03
   0.179E+01 0.129E+02 -.115E+01   -.195E+01 -.133E+02 0.114E+01   0.929E-01 0.333E+00 0.719E-02
   0.123E+02 0.134E+02 -.121E+01   -.128E+02 -.136E+02 0.122E+01   0.477E+00 0.158E+00 -.144E-01
   0.869E+01 0.742E-01 -.149E+01   -.892E+01 -.487E+00 0.148E+01   0.267E+00 0.319E+00 0.360E-02
   0.587E+01 0.449E+01 -.195E+01   -.632E+01 -.451E+01 0.196E+01   0.392E+00 0.337E-01 -.106E-01
   0.341E+02 0.807E+01 0.141E+01   -.373E+02 -.847E+01 -.137E+01   0.329E+01 0.312E+00 -.362E-01
   0.221E+02 0.957E+01 0.121E+01   -.239E+02 -.124E+02 -.119E+01   0.196E+01 0.279E+01 -.192E-01
   0.416E+01 -.104E+02 -.237E+00   -.431E+01 0.105E+02 0.228E+00   0.103E+00 -.237E+00 0.110E-01
   0.139E+02 0.355E+01 -.603E+00   -.145E+02 -.391E+01 0.613E+00   0.529E+00 0.329E+00 -.116E-01
   -.870E+01 -.427E+02 0.743E+00   0.720E+01 0.458E+02 -.715E+00   0.139E+01 -.318E+01 -.251E-01
   -.207E+01 -.207E+01 0.279E+00   0.209E+01 0.243E+01 -.277E+00   0.147E-01 -.225E+00 0.234E-02
   -.335E+01 -.793E+01 0.174E+00   0.339E+01 0.841E+01 -.174E+00   0.144E+00 -.343E+00 0.184E-04
   0.545E+01 0.150E+02 -.973E-01   -.815E+01 -.148E+02 0.100E+00   0.251E+01 -.238E-01 -.208E-02
   -.250E+00 0.779E+01 -.639E+00   -.222E-01 -.817E+01 0.645E+00   0.312E+00 0.307E+00 -.839E-02
   -.984E+00 0.596E+01 0.292E+00   0.108E+01 -.589E+01 -.287E+00   -.641E-01 -.680E-02 -.643E-03
   -.769E+01 -.231E+01 0.242E+00   0.740E+01 0.230E+01 -.247E+00   0.168E+00 -.957E-02 0.708E-02
   0.109E+01 0.425E+01 -.131E+01   -.135E+01 -.407E+01 0.130E+01   0.198E+00 -.136E+00 0.355E-02
   -.301E+01 -.238E+01 0.156E+00   0.310E+01 0.273E+01 -.168E+00   0.667E-01 -.396E+00 0.117E-01
   -.727E+01 0.113E+02 -.354E+00   0.749E+01 -.118E+02 0.359E+00   -.151E+00 0.239E+00 -.654E-02
   0.750E+00 0.101E+02 -.794E+00   -.370E+00 -.995E+01 0.799E+00   -.452E+00 -.373E-01 -.796E-02
   -.203E+01 0.286E+01 0.570E+00   0.185E+01 -.267E+01 -.564E+00   0.131E-02 -.163E+00 -.675E-02
   -.989E+01 0.291E+01 0.191E+01   0.104E+02 -.258E+01 -.192E+01   -.274E+00 -.456E+00 0.189E-01
   -.299E+02 0.339E+02 0.191E+01   0.321E+02 -.364E+02 -.188E+01   -.243E+01 0.286E+01 -.305E-01
   -.234E+02 0.338E+02 0.542E+00   0.248E+02 -.363E+02 -.508E+00   -.163E+01 0.278E+01 -.383E-01
   0.315E+02 -.121E+02 -.117E+01   -.332E+02 0.149E+02 0.116E+01   0.226E+01 -.318E+01 0.194E-01
   -.527E+01 0.168E+01 -.125E+01   0.545E+01 -.131E+01 0.125E+01   -.141E+00 -.381E+00 -.325E-02
   -.136E+02 0.522E-01 -.106E+01   0.139E+02 0.202E+01 0.106E+01   -.830E+00 -.236E+01 -.685E-02
   0.581E+01 -.192E+01 -.273E+00   -.604E+01 0.286E+01 0.277E+00   0.124E+00 -.715E+00 -.614E-02
   0.238E+01 0.120E+01 0.104E+01   -.234E+01 -.121E+01 -.103E+01   -.159E-01 -.267E-01 0.558E-02
   -.266E+00 -.234E+01 0.263E+00   0.369E+00 0.243E+01 -.263E+00   0.221E-01 -.128E+00 0.739E-04
   0.537E+00 -.432E+01 0.979E+00   -.347E+00 0.487E+01 -.977E+00   -.151E+00 -.424E+00 0.465E-02
   0.287E+01 -.169E+01 -.360E+00   -.301E+01 0.167E+01 0.358E+00   0.826E-01 0.506E-01 0.458E-02
   0.422E+01 0.279E+01 -.120E+01   -.432E+01 -.300E+01 0.121E+01   0.127E+00 0.921E-01 -.341E-02
   -.356E+01 0.297E-01 -.195E+01   0.310E+01 -.267E+00 0.197E+01   0.510E+00 0.125E+00 -.310E-01
   0.265E+01 0.611E+00 -.862E+00   -.287E+01 -.400E+00 0.855E+00   0.172E+00 -.189E+00 0.483E-02
   0.435E+01 0.129E+01 -.171E+01   -.446E+01 -.150E+01 0.171E+01   0.688E-01 0.279E+00 -.591E-03
   0.228E+01 0.493E+01 -.191E+01   -.204E+01 -.527E+01 0.191E+01   -.438E-01 0.225E+00 -.161E-02
   -.679E+00 0.265E+02 -.235E+01   0.162E+01 -.296E+02 0.233E+01   -.119E+01 0.332E+01 0.207E-01
   -.310E+01 0.515E+01 -.123E+01   0.324E+01 -.532E+01 0.123E+01   -.118E+00 0.104E+00 -.714E-02
   -.692E+01 -.563E+01 -.106E+01   0.735E+01 0.602E+01 0.105E+01   -.499E+00 -.253E+00 0.529E-02
   -.179E+02 -.184E+01 -.200E+01   0.214E+02 0.207E+01 0.199E+01   -.383E+01 -.201E+00 0.806E-03
   -.992E+01 -.139E+02 -.240E+01   0.118E+02 0.159E+02 0.240E+01   -.183E+01 -.233E+01 -.373E-02
   -.739E+01 -.957E+00 0.736E-01   0.758E+01 0.122E+01 -.703E-01   -.223E+00 -.238E+00 -.220E-02
   -.177E+01 -.276E+01 0.909E+00   0.233E+01 0.283E+01 -.910E+00   -.515E+00 -.684E-01 0.647E-02
   0.190E+01 -.816E+01 0.562E+00   -.170E+01 0.858E+01 -.562E+00   -.146E+00 -.559E+00 0.481E-02
   -.710E+01 -.707E+01 0.121E+00   0.781E+01 0.764E+01 -.124E+00   -.654E+00 -.401E+00 0.620E-02
   -.358E+01 -.380E+01 0.133E+01   0.361E+01 0.398E+01 -.133E+01   -.526E-01 -.162E+00 0.104E-01
   -.433E+02 -.447E+02 0.371E+01   0.615E+02 0.444E+02 -.384E+01   -.177E+02 0.669E+00 0.151E+00
   -.337E+02 -.177E+02 0.734E+01   0.444E+02 0.360E+02 -.776E+01   -.101E+02 -.182E+02 0.425E+00
   -.289E+02 -.396E+02 0.348E+01   0.252E+02 0.520E+02 -.356E+01   0.378E+01 -.124E+02 0.103E+00
   -.550E+02 0.999E+02 -.485E+00   0.682E+02 -.122E+03 0.418E+00   -.123E+02 0.210E+02 0.642E-01
   0.593E+02 0.578E+02 -.400E+01   -.690E+02 -.750E+02 0.413E+01   0.923E+01 0.172E+02 -.129E+00
   0.701E+02 0.863E+01 -.465E+01   -.906E+02 -.839E+01 0.477E+01   0.199E+02 -.376E+00 -.117E+00
   -.300E+01 -.128E+03 0.212E+02   0.208E+01 0.123E+03 -.210E+02   -.490E+00 0.410E+01 -.302E+00
   0.536E+02 -.553E+02 -.659E+01   -.483E+02 0.538E+02 0.655E+01   -.426E+01 0.269E+01 0.721E-01
 -----------------------------------------------------------------------------------------------
   0.119E+02 -.133E+02 -.144E+00   -.412E-12 -.171E-12 -.178E-14   -.114E+02 0.126E+02 0.121E+00
 
 
 POSITION                                       TOTAL-FORCE (eV/Angst)
 -----------------------------------------------------------------------------------
      2.99051     12.31637     10.05904         0.053099      0.019342     -0.007616
      0.69176      1.24455     10.05121         0.065736     -0.040905     -0.004256
      1.56021     12.32464     10.05703        -0.122447      0.012397     -0.004714
      3.54918      1.24552     10.04935        -0.053693     -0.001032     -0.005387
      2.81903      2.46776     10.04789        -0.016202      0.037218     -0.008563
      0.69768      3.71401     10.05232         0.054577     -0.081136     -0.001860
      1.39470      2.47713     10.05242        -0.041917      0.007440     -0.006753
      3.53496      3.68002     10.03683         0.214578     -0.073016      0.001152
      2.85155      4.93260     10.03872         0.288783      0.053438     -0.003158
      0.78046      6.18363     10.04941        -0.039743     -0.151356      0.002173
      1.44402      4.93320     10.04784        -0.032720     -0.003923     -0.002865
      3.01073      7.34415     10.04321        -0.035066     -0.201180      0.000435
      0.85968      8.63077     10.04943         0.037182      0.124708      0.003998
      1.56712      7.39364     10.04746         0.192049      0.117991     -0.000141
      3.80299      8.58880     10.05042        -0.048926      0.190259      0.000620
      3.03500      9.82501     10.05397         0.059305     -0.056715     -0.002764
      0.86430     11.09006     10.05170         0.027024      0.076231      0.003664
      1.59233      9.84916     10.05103        -0.127064     -0.021389      0.002684
      3.71977     11.08439     10.05810        -0.051557      0.034282     -0.004786
      7.12460      0.12292     10.04886         0.155183     -0.072743      0.000543
      4.97260      1.28624     10.04614         0.056152     -0.238719     -0.001079
      5.84140     12.37428     10.05707        -0.089739      0.148459     -0.003548
      7.81535      1.38853     10.04689        -0.169568      0.025201     -0.001032
      7.08789      2.62477     10.04072         0.193105     -0.149385      0.005185
      5.64637      2.56389     10.03643        -0.440619      0.576184     -0.003279
      7.80871      3.89203     10.04552        -0.297255      0.487296     -0.006697
      7.30192      9.93507     10.06224         0.743497     -0.499925      0.002853
      5.14839     11.10760     10.05892         0.026114     -0.030926     -0.005539
      5.84706      9.84899     10.05866        -0.589318     -0.410031     -0.007131
      7.97941     11.20327     10.05895        -0.095028      0.190604     -0.001986
     11.40592      0.17027     10.05111         0.018684     -0.038832      0.009890
      9.24972      1.41879     10.05088         0.125165     -0.051859      0.000528
      9.97255      0.18066     10.04973         0.030877      0.097256      0.006350
     12.10938      1.40497     10.05700        -0.052752      0.025191      0.002578
     11.39322      2.64670     10.06001         0.034396     -0.107891     -0.001126
      9.25533      3.92271     10.05870         0.077777     -0.115366     -0.007397
      9.96042      2.67004     10.05682        -0.033057      0.011374     -0.001637
     12.11263      3.87730     10.06335        -0.038569      0.088199     -0.003213
     11.42394      5.12924     10.06521         0.204839     -0.108348     -0.005190
      9.98101      5.18002     10.06550        -0.307348      0.398781     -0.005205
     12.20405      6.33519     10.06348         0.017592     -0.060348      0.000593
     11.52242      7.57635     10.06410        -0.093586      0.121120     -0.000922
      9.41658      8.81718     10.06657        -0.540687      0.020052     -0.003909
     10.10768      7.57287     10.06812        -0.023007     -0.479423     -0.006000
     12.27114      8.79098     10.06007        -0.041555      0.013814      0.001047
     11.56672     10.02317     10.05799         0.019932      0.000239      0.006399
      9.41079     11.25100     10.05782         0.044859     -0.168112      0.004988
     10.13974     10.03127     10.06021         0.016222      0.146930      0.003104
     12.27598     11.25200     10.05735        -0.026431      0.009845      0.010638
      3.61790      6.09834     10.03318        -1.084260      0.347013      0.027559
      4.90747      3.71284     10.02488        -0.305298     -1.433343      0.037907
      7.15858      5.05943     10.03759         0.427083     -1.013037      0.023766
      5.20656      8.61623     10.05356        -0.172213      0.825669      0.002739
      8.04040      8.77442     10.06810         0.326991      1.459753     -0.008636
      9.33560      6.41699     10.06964         1.125513     -0.166800     -0.006316
      5.45604      5.59258     10.01186        -0.709247     -0.537935     -0.045385
      7.35471      6.93644     10.06451         1.042560      0.647389      0.016695
 -----------------------------------------------------------------------------------
    total drift:                               -0.012011      0.000707      0.001153


--------------------------------------------------------------------------------------------------------



  FREE ENERGIE OF THE ION-ELECTRON SYSTEM (eV)
  ---------------------------------------------------
  free  energy   TOTEN  =      -602.23945098 eV

  energy  without entropy=     -602.23685056  energy(sigma->0) =     -602.23815077
 


--------------------------------------------------------------------------------------------------------


    POTLOK:  cpu time    3.3665: real time    3.3668


--------------------------------------------------------------------------------------------------------


 stress matrix after NEB project (eV)
    -39.93679      2.83759      0.04613
      2.83757    -41.65049      0.04353
      0.04406      0.04015     -0.40219
  FORCES: max atom, RMS     1.495953    0.513013
  FORCE total and by dimension    3.873160    1.459753
  Stress total and by dimension   57.844480   41.650494
 writing wavefunctions
     LOOP+:  cpu time27920.1847: real time27924.0692
    4ORBIT:  cpu time    0.0000: real time    0.0000
 


 total charge     
 
# of ion       s       p       d       tot
------------------------------------------
    1        0.864   1.777   0.000   2.640
    2        0.867   1.772   0.000   2.639
    3        0.866   1.776   0.000   2.642
    4        0.870   1.772   0.000   2.642
    5        0.871   1.793   0.000   2.664
    6        0.864   1.778   0.000   2.643
    7        0.869   1.785   0.000   2.654
    8        0.866   1.775   0.000   2.641
    9        0.862   1.755   0.000   2.617
   10        0.866   1.772   0.000   2.639
   11        0.872   1.791   0.000   2.663
   12        0.847   1.697   0.000   2.544
   13        0.866   1.772   0.000   2.638
   14        0.860   1.756   0.000   2.616
   15        0.840   1.683   0.000   2.523
   16        0.859   1.740   0.000   2.599
   17        0.865   1.764   0.000   2.629
   18        0.861   1.761   0.000   2.622
   19        0.867   1.753   0.000   2.620
   20        0.861   1.776   0.000   2.638
   21        0.865   1.770   0.000   2.635
   22        0.863   1.764   0.000   2.628
   23        0.862   1.742   0.000   2.604
   24        0.855   1.760   0.000   2.615
   25        0.858   1.719   0.000   2.578
   26        0.860   1.713   0.000   2.573
   27        0.857   1.723   0.000   2.580
   28        0.862   1.758   0.000   2.619
   29        0.853   1.706   0.000   2.559
   30        0.864   1.766   0.000   2.630
   31        0.865   1.772   0.000   2.637
   32        0.861   1.758   0.000   2.619
   33        0.864   1.765   0.000   2.629
   34        0.867   1.770   0.000   2.636
   35        0.865   1.765   0.000   2.630
   36        0.854   1.759   0.000   2.613
   37        0.862   1.745   0.000   2.608
   38        0.866   1.767   0.000   2.633
   39        0.862   1.759   0.000   2.621
   40        0.851   1.694   0.000   2.545
   41        0.868   1.775   0.000   2.643
   42        0.870   1.794   0.000   2.664
   43        0.866   1.768   0.000   2.634
   44        0.864   1.755   0.000   2.620
   45        0.865   1.774   0.000   2.639
   46        0.868   1.786   0.000   2.654
   47        0.869   1.768   0.000   2.636
   48        0.870   1.788   0.000   2.659
   49        0.866   1.769   0.000   2.635
   50        1.225   2.690   0.000   3.915
   51        1.238   2.687   0.000   3.925
   52        1.249   2.647   0.000   3.896
   53        1.230   2.576   0.000   3.806
   54        1.238   2.686   0.000   3.923
   55        1.229   2.641   0.000   3.870
   56        0.481   0.635   6.202   7.318
   57        0.416   0.580   4.378   5.374
--------------------------------------------------
tot         50.591 103.344  10.580 164.515
 


 magnetization (x)
 
# of ion       s       p       d       tot
------------------------------------------
    1       -0.000  -0.001   0.000  -0.001
    2        0.000   0.001   0.000   0.002
    3        0.000   0.001   0.000   0.001
    4       -0.000  -0.001   0.000  -0.001
    5       -0.000  -0.001   0.000  -0.002
    6       -0.000  -0.003   0.000  -0.003
    7        0.000   0.004   0.000   0.004
    8        0.000   0.001   0.000   0.001
    9       -0.002  -0.003   0.000  -0.005
   10        0.000   0.007   0.000   0.007
   11        0.000   0.003   0.000   0.003
   12       -0.001  -0.002   0.000  -0.003
   13        0.000  -0.000   0.000  -0.000
   14       -0.001  -0.005   0.000  -0.005
   15        0.001   0.006   0.000   0.007
   16       -0.000   0.001   0.000   0.000
   17       -0.000   0.000   0.000   0.000
   18       -0.000   0.000   0.000   0.000
   19        0.000   0.002   0.000   0.002
   20        0.000   0.005   0.000   0.006
   21       -0.000   0.003   0.000   0.002
   22       -0.001  -0.009   0.000  -0.010
   23       -0.000  -0.001   0.000  -0.001
   24       -0.002  -0.009   0.000  -0.011
   25        0.000   0.004   0.000   0.004
   26       -0.000   0.005   0.000   0.005
   27        0.003   0.024   0.000   0.027
   28       -0.000   0.004   0.000   0.004
   29       -0.001  -0.014   0.000  -0.015
   30       -0.001  -0.006   0.000  -0.007
   31        0.000   0.001   0.000   0.001
   32        0.000   0.001   0.000   0.001
   33       -0.000  -0.006   0.000  -0.006
   34       -0.000  -0.000   0.000  -0.000
   35        0.000   0.002   0.000   0.002
   36       -0.000  -0.004   0.000  -0.005
   37        0.000   0.002   0.000   0.002
   38       -0.000  -0.002   0.000  -0.002
   39       -0.000   0.001   0.000   0.001
   40        0.001   0.007   0.000   0.008
   41        0.000   0.005   0.000   0.005
   42       -0.000  -0.001   0.000  -0.001
   43        0.002   0.018   0.000   0.020
   44        0.000  -0.002   0.000  -0.002
   45       -0.000  -0.006   0.000  -0.007
   46        0.000   0.002   0.000   0.003
   47        0.001   0.007   0.000   0.008
   48       -0.001  -0.005   0.000  -0.006
   49       -0.000  -0.000   0.000  -0.000
   50        0.006   0.050   0.000   0.056
   51       -0.013  -0.043   0.000  -0.056
   52       -0.007  -0.064   0.000  -0.071
   53       -0.010  -0.027   0.000  -0.037
   54       -0.008  -0.073   0.000  -0.081
   55       -0.008  -0.038   0.000  -0.046
   56       -0.092  -0.051  -3.035  -3.177
   57        0.064   0.025   3.228   3.318
--------------------------------------------------
tot         -0.071  -0.183   0.194  -0.060
 

 total amount of memory used by VASP MPI-rank0   180769. kBytes
=======================================================================

   base      :      30000. kBytes
   nonl-proj :       5271. kBytes
   fftplans  :      13455. kBytes
   grid      :      34560. kBytes
   one-center:         62. kBytes
   HF        :         23. kBytes
   nonlr-proj:      21609. kBytes
   wavefun   :      75789. kBytes
 
  
  
 General timing and accounting informations for this job:
 ========================================================
  
                  Total CPU time used (sec):    28008.656
                            User time (sec):    27965.296
                          System time (sec):       43.359
                         Elapsed time (sec):    28013.659
  
                   Maximum memory used (kb):      414936.
                   Average memory used (kb):           0.
  
                          Minor page faults:       282874
                          Major page faults:            1
                 Voluntary context switches:         1255
