 vasp.5.4.4.18Apr17-6-g9f103f2a35 (build Feb 25 2019 10:51:38) complex          
  
 executed on             LinuxIFC date 2021.08.09  10:37:36
 running on   32 total cores
 distrk:  each k-point on   32 cores,    1 groups
 distr:  one band on NCORES_PER_BAND=  32 cores,    1 groups


--------------------------------------------------------------------------------------------------------


 INCAR:
 POTCAR:    PAW_PBE C 08Apr2002                   
 POTCAR:    PAW_PBE N 08Apr2002                   
 POTCAR:    PAW_PBE Fe 06Sep2000                  

 ----------------------------------------------------------------------------- 
|                                                                             |
|           W    W    AA    RRRRR   N    N  II  N    N   GGGG   !!!           |
|           W    W   A  A   R    R  NN   N  II  NN   N  G    G  !!!           |
|           W    W  A    A  R    R  N N  N  II  N N  N  G       !!!           |
|           W WW W  AAAAAA  RRRRR   N  N N  II  N  N N  G  GGG   !            |
|           WW  WW  A    A  R   R   N   NN  II  N   NN  G    G                |
|           W    W  A    A  R    R  N    N  II  N    N   GGGG   !!!           |
|                                                                             |
|      For optimal performance we recommend to set                            |
|        NCORE= 4 - approx SQRT( number of cores)                             |
|      NCORE specifies how many cores store one orbital (NPAR=cpu/NCORE).     |
|      This setting can  greatly improve the performance of VASP for DFT.     |
|      The default,   NCORE=1            might be grossly inefficient         |
|      on modern multi-core architectures or massively parallel machines.     |
|      Do your own testing !!!!                                               |
|      Unfortunately you need to use the default for GW and RPA calculations. |
|      (for HF NCORE is supported but not extensively tested yet)             |
|                                                                             |
 ----------------------------------------------------------------------------- 

 POTCAR:    PAW_PBE C 08Apr2002                   
   VRHFIN =C: s2p2                                                              
   LEXCH  = PE                                                                  
   EATOM  =   147.1560 eV,   10.8157 Ry                                         
                                                                                
   TITEL  = PAW_PBE C 08Apr2002                                                 
   LULTRA =        F    use ultrasoft PP ?                                      
   IUNSCR =        1    unscreen: 0-lin 1-nonlin 2-no                           
   RPACOR =    1.200    partial core radius                                     
   POMASS =   12.011; ZVAL   =    4.000    mass and valenz                      
   RCORE  =    1.500    outmost cutoff radius                                   
   RWIGS  =    1.630; RWIGS  =    0.863    wigner-seitz radius (au A)           
   ENMAX  =  400.000; ENMIN  =  300.000 eV                                      
   ICORE  =        2    local potential                                         
   LCOR   =        T    correct aug charges                                     
   LPAW   =        T    paw PP                                                  
   EAUG   =  644.873                                                            
   DEXC   =    0.000                                                            
   RMAX   =    1.529    core radius for proj-oper                               
   RAUG   =    1.300    factor for augmentation sphere                          
   RDEP   =    1.501    radius for radial grids                                 
   RDEPT  =    1.300    core radius for aug-charge                              
                                                                                
   Atomic configuration                                                         
    4 entries                                                                   
     n  l   j            E        occ.                                          
     1  0  0.50      -273.3789   2.0000                                         
     2  0  0.50       -13.7508   2.0000                                         
     2  1  0.50        -5.2854   2.0000                                         
     3  2  1.50        -5.4423   0.0000                                         
   Description                                                                  
     l       E           TYP  RCUT    TYP  RCUT                                 
     0    -13.7508458     23  1.200                                             
     0     -8.2022199     23  1.200                                             
     1     -5.2854383     23  1.500                                             
     1     34.0145650     23  1.500                                             
     2     -5.4423304      7  1.500                                             
  local pseudopotential read in
  partial core-charges read in
  partial kinetic energy density read in
  atomic valenz-charges read in
  non local Contribution for L=           0  read in
    real space projection operators read in
  non local Contribution for L=           0  read in
    real space projection operators read in
  non local Contribution for L=           1  read in
    real space projection operators read in
  non local Contribution for L=           1  read in
    real space projection operators read in
    PAW grid and wavefunctions read in
 
   number of l-projection  operators is LMAX  =           4
   number of lm-projection operators is LMMAX =           8
 
 POTCAR:    PAW_PBE N 08Apr2002                   
   VRHFIN =N: s2p3                                                              
   LEXCH  = PE                                                                  
   EATOM  =   264.5486 eV,   19.4438 Ry                                         
                                                                                
   TITEL  = PAW_PBE N 08Apr2002                                                 
   LULTRA =        F    use ultrasoft PP ?                                      
   IUNSCR =        1    unscreen: 0-lin 1-nonlin 2-no                           
   RPACOR =    1.200    partial core radius                                     
   POMASS =   14.001; ZVAL   =    5.000    mass and valenz                      
   RCORE  =    1.500    outmost cutoff radius                                   
   RWIGS  =    1.400; RWIGS  =    0.741    wigner-seitz radius (au A)           
   ENMAX  =  400.000; ENMIN  =  300.000 eV                                      
   ICORE  =        2    local potential                                         
   LCOR   =        T    correct aug charges                                     
   LPAW   =        T    paw PP                                                  
   EAUG   =  627.112                                                            
   DEXC   =    0.000                                                            
   RMAX   =    1.529    core radius for proj-oper                               
   RAUG   =    1.300    factor for augmentation sphere                          
   RDEP   =    1.514    radius for radial grids                                 
   RDEPT  =    1.338    core radius for aug-charge                              
                                                                                
   Atomic configuration                                                         
    4 entries                                                                   
     n  l   j            E        occ.                                          
     1  0  0.50      -384.7179   2.0000                                         
     2  0  0.50       -18.5828   2.0000                                         
     2  1  0.50        -7.0898   3.0000                                         
     3  2  1.50        -6.8029   0.0000                                         
   Description                                                                  
     l       E           TYP  RCUT    TYP  RCUT                                 
     0    -18.5828119     23  1.200                                             
     0    -13.5018863     23  1.200                                             
     1     -7.0897853     23  1.500                                             
     1      9.5240782     23  1.500                                             
     2     -6.8029130      7  1.500                                             
  local pseudopotential read in
  partial core-charges read in
  partial kinetic energy density read in
  atomic valenz-charges read in
  non local Contribution for L=           0  read in
    real space projection operators read in
  non local Contribution for L=           0  read in
    real space projection operators read in
  non local Contribution for L=           1  read in
    real space projection operators read in
  non local Contribution for L=           1  read in
    real space projection operators read in
    PAW grid and wavefunctions read in
 
   number of l-projection  operators is LMAX  =           4
   number of lm-projection operators is LMMAX =           8
 
 POTCAR:    PAW_PBE Fe 06Sep2000                  
   VRHFIN =Fe:  d7 s1                                                           
   LEXCH  = PE                                                                  
   EATOM  =   594.3153 eV,   43.6809 Ry                                         
                                                                                
   TITEL  = PAW_PBE Fe 06Sep2000                                                
   LULTRA =        F    use ultrasoft PP ?                                      
   IUNSCR =        1    unscreen: 0-lin 1-nonlin 2-no                           
   RPACOR =    2.000    partial core radius                                     
   POMASS =   55.847; ZVAL   =    8.000    mass and valenz                      
   RCORE  =    2.300    outmost cutoff radius                                   
   RWIGS  =    2.460; RWIGS  =    1.302    wigner-seitz radius (au A)           
   ENMAX  =  267.882; ENMIN  =  200.911 eV                                      
   RCLOC  =    1.701    cutoff for local pot                                    
   LCOR   =        T    correct aug charges                                     
   LPAW   =        T    paw PP                                                  
   EAUG   =  511.368                                                            
   DEXC   =    0.000                                                            
   RMAX   =    2.356    core radius for proj-oper                               
   RAUG   =    1.300    factor for augmentation sphere                          
   RDEP   =    2.442    radius for radial grids                                 
   RDEPT  =    1.890    core radius for aug-charge                              
                                                                                
   Atomic configuration                                                         
    9 entries                                                                   
     n  l   j            E        occ.                                          
     1  0  0.50     -6993.8440   2.0000                                         
     2  0  0.50      -814.6047   2.0000                                         
     2  1  1.50      -693.3689   6.0000                                         
     3  0  0.50       -89.4732   2.0000                                         
     3  1  1.50       -55.6373   6.0000                                         
     3  2  2.50        -3.8151   7.0000                                         
     4  0  0.50        -4.2551   1.0000                                         
     4  1  1.50        -3.4015   0.0000                                         
     4  3  2.50        -1.3606   0.0000                                         
   Description                                                                  
     l       E           TYP  RCUT    TYP  RCUT                                 
     2     -3.8151135     23  2.300                                             
     2     -5.1756961     23  2.300                                             
     0     -4.2550963     23  2.300                                             
     0      7.2035603     23  2.300                                             
     1     -2.7211652     23  2.300                                             
     1     18.4316424     23  2.300                                             
  local pseudopotential read in
  partial core-charges read in
  partial kinetic energy density read in
  atomic valenz-charges read in
  non local Contribution for L=           2  read in
    real space projection operators read in
  non local Contribution for L=           2  read in
    real space projection operators read in
  non local Contribution for L=           0  read in
    real space projection operators read in
  non local Contribution for L=           0  read in
    real space projection operators read in
  non local Contribution for L=           1  read in
    real space projection operators read in
  non local Contribution for L=           1  read in
    real space projection operators read in
    PAW grid and wavefunctions read in
 
   number of l-projection  operators is LMAX  =           6
   number of lm-projection operators is LMMAX =          18
 

 ----------------------------------------------------------------------------- 
|                                                                             |
|  ADVICE TO THIS USER RUNNING 'VASP/VAMP'   (HEAR YOUR MASTER'S VOICE ...):  |
|                                                                             |
|      You have a (more or less) 'large supercell' and for larger cells       |
|      it might be more efficient to use real space projection opertators     |
|      So try LREAL= Auto  in the INCAR   file.                               |
|      Mind:          For very  accurate calculation you might also keep the  |
|      reciprocal projection scheme          (i.e. LREAL=.FALSE.)             |
|                                                                             |
 ----------------------------------------------------------------------------- 

  PAW_PBE C 08Apr2002                   :
 energy of atom  1       EATOM= -147.1560
 kinetic energy error for atom=    0.0076 (will be added to EATOM!!)
  PAW_PBE N 08Apr2002                   :
 energy of atom  2       EATOM= -264.5486
 kinetic energy error for atom=    0.0138 (will be added to EATOM!!)
  PAW_PBE Fe 06Sep2000                  :
 energy of atom  3       EATOM= -594.3153
 kinetic energy error for atom=    0.0026 (will be added to EATOM!!)
 
 
 POSCAR:  C  N Fe                                
  positions in cartesian coordinates
  No initial velocities read in
 exchange correlation table for  LEXCH =        8
   RHO(1)=    0.500       N(1)  =     2000
   RHO(2)=  100.500       N(2)  =     4000

 VTST: version 3.2, (02/03/18)

 CHAIN: initializing optimizer
 
 OPT: Using VASP Conjugate-Gradient optimizer
 CHAIN: Read ICHAIN            0
 
 POSCAR:  C  N Fe                                
  positions in cartesian coordinates
  No initial velocities read in
 


--------------------------------------------------------------------------------------------------------


 ion  position               nearest neighbor table
   1  0.227  0.002  0.500-  18 1.44   4 1.46   3 1.47
   2  0.057  0.100  0.500-   7 1.42   3 1.43  33 1.45
   3  0.114  0.001  0.500-   2 1.43  16 1.43   1 1.47
   4  0.282  0.106  0.500-   5 1.46   1 1.46  20 1.47
   5  0.222  0.205  0.500-  53 1.37   7 1.45   4 1.46
   6  0.051  0.298  0.500-  10 1.41  37 1.43   7 1.43
   7  0.110  0.201  0.500-   2 1.42   6 1.43   5 1.45
   8  0.209  0.398  0.500-  53 1.37  10 1.40  11 1.42
   9  0.048  0.500  0.500-  41 1.41  14 1.42  10 1.42
  10  0.102  0.399  0.500-   8 1.40   6 1.41   9 1.42
  11  0.263  0.498  0.499-  55 1.34   8 1.42  12 1.43
  12  0.211  0.599  0.500-  14 1.41  50 1.42  11 1.43
  13  0.052  0.701  0.500-  14 1.41  45 1.43  17 1.44
  14  0.103  0.600  0.500-  12 1.41  13 1.41   9 1.42
  15  0.223  0.798  0.500-  50 1.43  17 1.45  18 1.46
  16  0.058  0.901  0.500-  17 1.43   3 1.43  49 1.45
  17  0.111  0.800  0.500-  16 1.43  13 1.44  15 1.45
  18  0.280  0.900  0.500-   1 1.44  15 1.46  28 1.46
  19  0.558  0.999  0.500-  22 1.43  29 1.43  21 1.44
  20  0.395  0.105  0.500-  54 1.40  21 1.45   4 1.47
  21  0.447  0.001  0.500-  19 1.44  28 1.45  20 1.45
  22  0.614  0.098  0.500-  23 1.41  19 1.43  31 1.44
  23  0.559  0.197  0.500-  54 1.38  22 1.41  24 1.45
  24  0.614  0.300  0.500-  35 1.43  51 1.43  23 1.45
  25  0.610  0.501  0.499-  56 1.40  51 1.45  39 1.45
  26  0.616  0.698  0.500-  56 1.37  43 1.42  27 1.46
  27  0.559  0.799  0.500-  29 1.42  52 1.43  26 1.46
  28  0.392  0.898  0.500-  52 1.44  21 1.45  18 1.46
  29  0.614  0.899  0.500-  27 1.42  19 1.43  47 1.44
  30  0.891  1.000  0.500-  33 1.42  49 1.42  32 1.44
  31  0.724  0.099  0.500-  36 1.42  32 1.42  22 1.44
  32  0.780  1.000  0.500-  47 1.42  31 1.42  30 1.44
  33  0.946  0.099  0.500-  30 1.42  34 1.43   2 1.45
  34  0.888  0.198  0.500-  37 1.41  36 1.43  33 1.43
  35  0.723  0.299  0.500-  40 1.42  24 1.43  36 1.43
  36  0.779  0.199  0.500-  31 1.42  35 1.43  34 1.43
  37  0.941  0.299  0.500-  34 1.41   6 1.43  38 1.43
  38  0.886  0.399  0.500-  41 1.42  40 1.43  37 1.43
  39  0.721  0.500  0.500-  44 1.43  40 1.43  25 1.45
  40  0.777  0.399  0.500-  35 1.42  38 1.43  39 1.43
  41  0.940  0.500  0.500-   9 1.41  42 1.42  38 1.42
  42  0.887  0.600  0.500-  41 1.42  44 1.43  45 1.43
  43  0.725  0.700  0.500-  44 1.42  26 1.42  48 1.43
  44  0.778  0.600  0.500-  43 1.42  42 1.43  39 1.43
  45  0.943  0.701  0.500-  46 1.42  13 1.43  42 1.43
  46  0.889  0.801  0.500-  45 1.42  49 1.43  48 1.43
  47  0.724  0.900  0.500-  48 1.42  32 1.42  29 1.44
  48  0.780  0.801  0.500-  47 1.42  43 1.43  46 1.43
  49  0.947  0.900  0.500-  30 1.42  46 1.43  16 1.45
  50  0.272  0.695  0.500-  12 1.42  15 1.43  58 1.93
  51  0.556  0.398  0.499-  24 1.43  25 1.45  57 1.94
  52  0.449  0.799  0.500-  27 1.43  28 1.44  58 1.93
  53  0.268  0.306  0.499-   8 1.37   5 1.37  57 1.99
  54  0.453  0.200  0.499-  23 1.38  20 1.40  57 1.97
  55  0.366  0.497  0.499-  11 1.34  57 1.86  58 1.94
  56  0.562  0.602  0.499-  26 1.37  25 1.40  58 2.03
  57  0.413  0.355  0.499-  55 1.86  51 1.94  54 1.97  53 1.99
  58  0.413  0.647  0.499-  50 1.93  52 1.93  55 1.94  56 2.03
 
  LATTYP: Found a triclinic cell.
 ALAT       =    13.0493146808
 B/A-ratio  =     1.8163203030
 C/A-ratio  =     0.9431381984
 COS(alpha) =     0.0011189691
 COS(beta)  =     0.0022093946
 COS(gamma) =     0.5508831979
  
  Lattice vectors:
  
 A1 = (  13.0493069287,  -0.0142206727,  -0.0003033797)
 A2 = (  13.0573430098,  -0.0112906360,  19.7807461258)
 A3 = (   0.0137796638, -12.3072994187,   0.0003804365)


Analysis of symmetry for initial positions (statically):
=====================================================================
 Subroutine PRICEL returns:
 Original cell was already a primitive cell.
 

 Routine SETGRP: Setting up the symmetry group for a 
 triclinic supercell.


 Subroutine GETGRP returns: Found  1 space group operations
 (whereof  1 operations were pure point group operations)
 out of a pool of  2 trial point group operations.


The static configuration has the point symmetry C_1 .


Analysis of symmetry for dynamics (positions and initial velocities):
=====================================================================
 Subroutine PRICEL returns:
 Original cell was already a primitive cell.
 

 Routine SETGRP: Setting up the symmetry group for a 
 triclinic supercell.


 Subroutine GETGRP returns: Found  1 space group operations
 (whereof  1 operations were pure point group operations)
 out of a pool of  2 trial point group operations.


The dynamic configuration has the point symmetry C_1 .


Analysis of structural, dynamic, and magnetic symmetry:
=====================================================================
 Subroutine PRICEL returns:
 Original cell was already a primitive cell.
 

 Routine SETGRP: Setting up the symmetry group for a 
 triclinic supercell.


 Subroutine GETGRP returns: Found  1 space group operations
 (whereof  1 operations were pure point group operations)
 out of a pool of  2 trial point group operations.


The magnetic configuration has the point symmetry C_1 .


 Subroutine INISYM returns: Found  1 space group operations
 (whereof  1 operations are pure point group operations),
 and found     1 'primitive' translations

 
 
 KPOINTS: KPOINTS created by Atomic Simulation Env

Automatic generation of k-mesh.
Space group operators:
 irot       det(A)        alpha          n_x          n_y          n_z        tau_x        tau_y        tau_z
    1     1.000000     0.000001     1.000000     0.000000     0.000000     0.000000     0.000000     0.000000
 
 Subroutine IBZKPT returns following result:
 ===========================================
 
 Found      2 irreducible k-points:
 
 Following reciprocal coordinates:
            Coordinates               Weight
  0.250000  0.250000 -0.000000      2.000000
 -0.250000  0.250000  0.000000      2.000000
 
 Following cartesian coordinates:
            Coordinates               Weight
  0.019180  0.020335 -0.000011      2.000000
 -0.019136  0.020292  0.000005      2.000000
 
 
 Subroutine IBZKPT_HF returns following result:
 ==============================================
 
 Found      4 k-points in 1st BZ
 the following      4 k-points will be used (e.g. in the exchange kernel)
 Following reciprocal coordinates:   # in IRBZ
  0.250000  0.250000 -0.000000    0.25000000   1 t-inv F
 -0.250000  0.250000  0.000000    0.25000000   2 t-inv F
 -0.250000 -0.250000  0.000000    0.25000000   1 t-inv T
  0.250000 -0.250000  0.000000    0.25000000   2 t-inv T


--------------------------------------------------------------------------------------------------------




 Dimension of arrays:
   k-points           NKPTS =      2   k-points in BZ     NKDIM =      4   number of bands    NBANDS=    156
   number of dos      NEDOS =    301   number of ions     NIONS =     58
   non local maximal  LDIM  =      6   non local SUM 2l+1 LMDIM =     18
   total plane-waves  NPLWV = ******
   max r-space proj   IRMAX =      1   max aug-charges    IRDMAX=  14149
   dimension x,y,z NGX =    96 NGY =   90 NGZ =  144
   dimension x,y,z NGXF=   192 NGYF=  180 NGZF=  288
   support grid    NGXF=   192 NGYF=  180 NGZF=  288
   ions per type =              52   4   2
   NGX,Y,Z   is equivalent  to a cutoff of  12.23, 12.16, 12.10 a.u.
   NGXF,Y,Z  is equivalent  to a cutoff of  24.46, 24.31, 24.20 a.u.

 SYSTEM =  unknown system                          
 POSCAR =   C  N Fe                                

 Startparameter for this run:
   NWRITE =      2    write-flag & timer
   PREC   = accura    normal or accurate (medium, high low for compatibility)
   ISTART =      1    job   : 0-new  1-cont  2-samecut
   ICHARG =      0    charge: 1-file 2-atom 10-const
   ISPIN  =      2    spin polarized calculation?
   LNONCOLLINEAR =      F non collinear calculations
   LSORBIT =      F    spin-orbit coupling
   INIWAV =      1    electr: 0-lowe 1-rand  2-diag
   LASPH  =      T    aspherical Exc in radial PAW
   METAGGA=      F    non-selfconsistent MetaGGA calc.

 Electronic Relaxation 1
   ENCUT  =  500.0 eV  36.75 Ry    6.06 a.u.  23.79 22.44 36.07*2*pi/ulx,y,z
   ENINI  =  500.0     initial cutoff
   ENAUG  =  644.9 eV  augmentation charge cutoff
   NELM   =    250;   NELMIN=  2; NELMDL=  0     # of ELM steps 
   EDIFF  = 0.1E-03   stopping-criterion for ELM
   LREAL  =      F    real-space projection
   NLSPLINE    = F    spline interpolate recip. space projectors
   LCOMPAT=      F    compatible to vasp.4.4
   GGA_COMPAT  = T    GGA compatible to vasp.4.4-vasp.4.6
   LMAXPAW     = -100 max onsite density
   LMAXMIX     =    2 max onsite mixed and CHGCAR
   VOSKOWN=      0    Vosko Wilk Nusair interpolation
   ROPT   =    0.00000   0.00000   0.00000
 Ionic relaxation
   EDIFFG = -.3E-01   stopping-criterion for IOM
   NSW    =      0    number of steps for IOM
   NBLOCK =      1;   KBLOCK =      1    inner block; outer block 
   IBRION =     -1    ionic relax: 0-MD 1-quasi-New 2-CG
   NFREE  =      1    steps in history (QN), initial steepest desc. (CG)
   ISIF   =      2    stress and relaxation
   IWAVPR =     10    prediction:  0-non 1-charg 2-wave 3-comb
   ISYM   =      3    0-nonsym 1-usesym 2-fastsym
   LCORR  =      T    Harris-Foulkes like correction to forces

   POTIM  = 0.5000    time-step for ionic-motion
   TEIN   =    0.0    initial temperature
   TEBEG  =    0.0;   TEEND  =   0.0 temperature during run
   SMASS  =  -3.00    Nose mass-parameter (am)
   estimated Nose-frequenzy (Omega)   =  0.10E-29 period in steps =****** mass=  -0.389E-26a.u.
   SCALEE = 1.0000    scale energy and forces
   NPACO  =    256;   APACO  = 16.0  distance and # of slots for P.C.
   PSTRESS=    0.0 pullay stress

  Mass of Ions in am
   POMASS =  12.01 14.00 55.85
  Ionic Valenz
   ZVAL   =   4.00  5.00  8.00
  Atomic Wigner-Seitz radii
   RWIGS  =  -1.00 -1.00 -1.00
  virtual crystal weights 
   VCA    =   1.00  1.00  1.00
   NELECT =     244.0000    total number of electrons
   NUPDOWN=      -1.0000    fix difference up-down

 DOS related values:
   EMIN   =  10.00;   EMAX   =-10.00  energy-range for DOS
   EFERMI =   0.00
   ISMEAR =     0;   SIGMA  =   0.10  broadening in eV -4-tet -1-fermi 0-gaus

 Electronic relaxation 2 (details)
   IALGO  =     53    algorithm
   LDIAG  =      T    sub-space diagonalisation (order eigenvalues)
   LSUBROT=      F    optimize rotation matrix (better conditioning)
   TURBO    =      0    0=normal 1=particle mesh
   IRESTART =      0    0=no restart 2=restart with 2 vectors
   NREBOOT  =      0    no. of reboots
   NMIN     =      0    reboot dimension
   EREF     =   0.00    reference energy to select bands
   IMIX   =      4    mixing-type and parameters
     AMIX     =   0.40;   BMIX     =  1.00
     AMIX_MAG =   1.60;   BMIX_MAG =  1.00
     AMIN     =   0.10
     WC   =   100.;   INIMIX=   1;  MIXPRE=   1;  MAXMIX= -45

 Intra band minimization:
   WEIMIN = 0.0000     energy-eigenvalue tresh-hold
   EBREAK =  0.16E-06  absolut break condition
   DEPER  =   0.30     relativ break condition  

   TIME   =   0.20     timestep for ELM

  volume/ion in A,a.u.               =      54.77       369.63
  Fermi-wavevector in a.u.,A,eV,Ry     =   0.695887  1.315035  6.588731  0.484258
  Thomas-Fermi vector in A             =   1.778784
 
 Write flags
   LWAVE        =      T    write WAVECAR
   LDOWNSAMPLE  =      F    k-point downsampling of WAVECAR
   LCHARG       =      T    write CHGCAR
   LVTOT        =      F    write LOCPOT, total local potential
   LVHAR        =      F    write LOCPOT, Hartree potential only
   LELF         =      F    write electronic localiz. function (ELF)
   LORBIT       =     11    0 simple, 1 ext, 2 COOP (PROOUT), +10 PAW based schemes


 Dipole corrections
   LMONO  =      F    monopole corrections only (constant potential shift)
   LDIPOL =      T    correct potential (dipole corrections)
   IDIPOL =      3    1-x, 2-y, 3-z, 4-all directions 
   EPSILON=  1.0000000 bulk dielectric constant

 Exchange correlation treatment:
   GGA     =    PE    GGA type
   LEXCH   =     8    internal setting for exchange type
   VOSKOWN=      0    Vosko Wilk Nusair interpolation
   EXXOEP  =     0    0=HF, 1=EXX-LHF (local Hartree Fock) 2=EXX OEP
   LHFCALC =     T    Hartree Fock is set to
   LSYMGRAD=     F    symmetrize gradient (conserves proper symmetry)
   PRECFOCK=normal    Normal, Fast or Accurate (Low or Medium for compatibility)
   LRHFCALC=     F    long range Hartree Fock
   LRSCOR  =     F    long range correlation only (use DFT for short range part)
   LTHOMAS =     F    Thomas Fermi screening in HF
   LMODELHF=     F    short range full HF, long range fraction AEXX
   ENCUT4O =  -1.0   cutoff for four orbital integrals eV
   LMAXFOCK=     4    L truncation for augmentation on plane wave grid
   LMAXFOCKAE=  -1    L truncation for all-electron charge restoration on plane wave grid
   NMAXFOCKAE=   1    number of basis functions for all-electron charge restoration
   LFOCKAEDFT=     F  apply the AE augmentation even for DFT
   NKREDX  =     1    reduce k-point grid by
   NKREDY  =     1    reduce k-point grid by
   NKREDZ  =     1    reduce k-point grid by
   SHIFTRED=     F    shift reduced grid of Gamma
   HFKIDENT=     F    idential grid for each k-point
   ODDONLY =     F    use only odd q-grid points
   EVENONLY=     F    use only even q-grid points
   HFALPHA =   -1.0000 decay constant for conv. correction
   MCALPHA =    0.0000 extent of test-charge in conv. correction in multipole expansion
   AEXX    =    0.2500 exact exchange contribution
   HFSCREEN=    0.2000 screening length (either q_TF or 0.3 A-1)
   HFSCREENC=   0.2000 screening length for correlation (either q_TF or 0.3 A-1)
   HFRCUT  =    0.0000 spherical cutoff for potential kernel
   ALDAX   =    0.7500 LDA exchange part
   AGGAX   =    0.7500 GGA exchange part
   ALDAC   =    1.0000 LDA correlation
   AGGAC   =    1.0000 GGA correlation
   ENCUTFOCK=  -1.0 apply spherical cutoff to Coloumb kernel
   NBANDSGWLOW=     1    first orbital included in HF term
   NBLOCK_FOCK=    64    blocking factor in FOCK_ACC
 Linear response parameters
   LEPSILON=     F    determine dielectric tensor
   LRPA    =     F    only Hartree local field effects (RPA)
   LNABLA  =     F    use nabla operator in PAW spheres
   LVEL    =     F    velocity operator in full k-point grid
   LINTERFAST=   F  fast interpolation
   KINTER  =     0    interpolate to denser k-point grid
   CSHIFT  =0.1000    complex shift for real part using Kramers Kronig
   OMEGAMAX=  -1.0    maximum frequency
   DEG_THRESHOLD= 0.2000000E-02 threshold for treating states as degnerate
   RTIME   =   -0.100 relaxation time in fs
  (WPLASMAI=    0.000 imaginary part of plasma frequency in eV, 0.658/RTIME)
   DFIELD  = 0.0000000 0.0000000 0.0000000 field for delta impulse in time
 
 Orbital magnetization related:
   ORBITALMAG=     F  switch on orbital magnetization
   LCHIMAG   =     F  perturbation theory with respect to B field
   DQ        =  0.001000  dq finite difference perturbation B field
   LLRAUG    =     F  two centre corrections for induced B field



--------------------------------------------------------------------------------------------------------


 Static calculation
 charge density and potential will be updated during run
 spin polarized calculation
 Conjugate gradient for all bands (Freysoldt, et al. PRB 79, 241103 (2009))
 perform sub-space diagonalisation
    before iterative eigenvector-optimisation
 modified Broyden-mixing scheme, WC =      100.0
 initial mixing is a Kerker type mixing with AMIX =  0.4000 and BMIX =      1.0000
 Hartree-type preconditioning will be used
 using additional bands           34
 reciprocal scheme for non local part
 use partial core corrections
 no Harris-corrections to forces 
 use gradient corrections 
 use of overlap-Matrix (Vanderbilt PP)
 Gauss-broadening in eV      SIGMA  =   0.10


--------------------------------------------------------------------------------------------------------


  energy-cutoff  :      500.00
  volume of cell :     3176.87
      direct lattice vectors                 reciprocal lattice vectors
    13.049306929 -0.014220673 -0.000303380     0.076632515  0.000085799 -0.000031145
    -0.013779664 12.307299419 -0.000380436     0.000088546  0.081252693 -0.000012071
     0.008036081  0.002930037 19.781049506     0.000001177  0.000001564  0.050553434

  length of vectors
    13.049314681 12.307307139 19.781051355     0.076632569  0.081252742  0.050553434


 
 old parameters found on file WAVECAR:
  energy-cutoff  :      500.00
  volume of cell :     3176.87
      direct lattice vectors                 reciprocal lattice vectors
    13.002700000  0.000000000  0.000000000     0.076907104  0.000001879 -0.000032752
    -0.000299331 12.250299996  0.000000000     0.000000000  0.081630654 -0.000014533
     0.008493486  0.003550763 19.944297875     0.000000000  0.000000000  0.050139644

  length of vectors

 
 k-points in units of 2pi/SCALE and weight: KPOINTS created by Atomic Simulation Env
   0.01918027  0.02033462 -0.00001080       0.500
  -0.01913599  0.02029172  0.00000477       0.500
 
 k-points in reciprocal lattice and weights: KPOINTS created by Atomic Simulation Env
   0.25000000  0.25000000 -0.00000000       0.500
  -0.25000000  0.25000000  0.00000000       0.500
 
 position of ions in fractional coordinates (direct lattice) 
   0.22660457  0.00228005  0.49977670
   0.05686838  0.09967716  0.49997668
   0.11420551  0.00082220  0.49990664
   0.28216995  0.10569304  0.49957946
   0.22155768  0.20517909  0.49955918
   0.05063402  0.29846424  0.50007983
   0.11022645  0.20077429  0.49989282
   0.20895398  0.39791780  0.49958907
   0.04838057  0.50007289  0.50023359
   0.10188599  0.39934311  0.50005789
   0.26336648  0.49774609  0.49931437
   0.21110626  0.59947157  0.49977208
   0.05230779  0.70147206  0.50015440
   0.10309340  0.60009737  0.50013720
   0.22254981  0.79829453  0.49985262
   0.05754659  0.90085988  0.50001046
   0.11141036  0.80001802  0.50001981
   0.28003806  0.89988812  0.49980779
   0.55754592  0.99873574  0.49994024
   0.39465082  0.10479484  0.49953629
   0.44698859  0.00055432  0.49978838
   0.61404045  0.09814505  0.49992503
   0.55935787  0.19689929  0.49958936
   0.61368077  0.30002241  0.49954844
   0.61040275  0.50112669  0.49949982
   0.61590013  0.69760907  0.49978408
   0.55850526  0.79944241  0.49988530
   0.39184550  0.89827329  0.49981260
   0.61384799  0.89932419  0.50002537
   0.89071006  0.99974103  0.50012171
   0.72427746  0.09873888  0.50008223
   0.78003200  0.99954208  0.50014596
   0.94595028  0.09946762  0.50010059
   0.88841407  0.19838037  0.50013675
   0.72311100  0.29859023  0.49988702
   0.77872342  0.19851318  0.50006679
   0.94132234  0.29884512  0.50017511
   0.88603087  0.39921193  0.50017753
   0.72147439  0.49987374  0.49983625
   0.77660565  0.39940502  0.49997731
   0.94033587  0.49968904  0.50024715
   0.88716176  0.60043948  0.50017061
   0.72473698  0.70010678  0.49995257
   0.77788359  0.59958488  0.49999122
   0.94270860  0.70088310  0.50016780
   0.88929513  0.80121989  0.50011409
   0.72422811  0.90016297  0.50010618
   0.77950548  0.80082012  0.50007794
   0.94651457  0.90048679  0.50008848
   0.27220129  0.69512696  0.49961524
   0.55588041  0.39848992  0.49923813
   0.44913942  0.79863687  0.49979043
   0.26774947  0.30562611  0.49925029
   0.45328902  0.19987825  0.49930473
   0.36583146  0.49680228  0.49858106
   0.56184449  0.60223357  0.49949090
   0.41329892  0.35454551  0.49881291
   0.41250199  0.64683953  0.49919752
 
 position of ions in cartesian coordinates  (Angst):
   2.96101737  0.02630316  9.88603812
   0.74473731  1.22741284  9.89000822
   1.49430869  0.00995968  9.88864310
   3.68468049  1.29824703  9.88208019
   2.89236143  2.52351350  9.88165951
   0.66064482  3.67403398  9.89197499
   1.43962930  2.47088652  9.88829481
   2.72523618  4.89578589  9.88218129
   0.62846199  6.15532444  9.89494046
   1.32805723  4.91485149  9.89148710
   3.43390379  6.12362798  9.87669299
   2.75054613  7.37633838  9.88572412
   0.67693363  8.63394824  9.89329629
   1.34104748  7.38557734  9.89297915
   2.89713743  9.82314957  9.88723817
   0.74254775 11.08779902  9.89037139
   1.44682215  9.84594205  9.89057854
   3.64591895 11.07267460  9.88629542
   7.26584311 12.28527597  9.88879358
   5.15248996  1.28559293  9.88119243
   5.83689996  0.00193006  9.88620288
   8.01546736  1.20063330  9.88881805
   7.30053405  2.41680788  9.88215732
   8.00798893  3.68520232  9.88129207
   7.96244148  6.16029943  9.88025486
   8.03147336  8.57838952  9.88580140
   7.28110761  9.83249942  9.88778232
   5.10495083 11.05121050  9.88635708
   8.00191672 11.06098785  9.89049820
  11.61339184 12.29291105  9.89228167
   9.45397704  1.20637457  9.89189413
  10.16912287 12.29203657  9.89279512
  12.34664379  1.21219099  9.89218974
  11.59447340  2.43035814  9.89288482
   9.43600006  3.66602088  9.88795687
  10.16308400  2.43355233  9.89153424
  12.28350560  3.66605564  9.89358927
  11.56060722  4.90208630  9.89361586
   9.41186934  6.14330050  9.88687648
  10.13267965  4.90601825  9.88968846
  12.26786587  6.13791617  9.89493835
  11.57259162  7.37863792  9.89340205
   9.45168575  8.60758240  9.88910032
  10.14659763  7.36967355  9.88988697
  12.29605536  8.61403776  9.89329147
  11.59766355  9.84967204  9.89220704
   9.44228979 11.06974157  9.89206297
  10.16498995  9.84631311  9.89152526
  12.34296942 11.07056575  9.89164520
   3.54647448  8.55272859  9.88256667
   7.25237492  4.89789253  9.87513390
   5.85396961  9.82414037  9.88593910
   3.49374560  3.75908731  9.87549714
   5.91636570  2.45497836  9.87655805
   4.77100793  6.11055294  9.86215664
   7.32739657  7.40534258  9.88005462
   5.39238741  4.35908189  9.86678265
   5.37796345  7.95644433  9.87427958
 


--------------------------------------------------------------------------------------------------------


 k-point  1 :   0.2500 0.2500-0.0000  plane waves:   80636
 k-point  2 :  -0.2500 0.2500 0.0000  plane waves:   80635

 maximum and minimum number of plane-waves per node :      2553     2479

 maximum number of plane-waves:     80636
 maximum index in each direction: 
   IXMAX=   24   IYMAX=   22   IZMAX=   36
   IXMIN=  -24   IYMIN=  -22   IZMIN=  -36


 parallel 3D FFT for wavefunctions:
    minimum data exchange during FFTs selected (reduces bandwidth)
 parallel 3D FFT for charge:
    minimum data exchange during FFTs selected (reduces bandwidth)


 FFT grid for exact exchange (Hartree Fock) 
  NGX = 72; NGY = 70; NGZ =112

 
 Radii for the augmentation spheres in the non-local exchange
 for species   1 augmentation radius   0.874 (default was   0.699)
       energy cutoff for augmentation   2000.0
 for species   2 augmentation radius   0.886 (default was   0.709)
       energy cutoff for augmentation   2000.0
 for species   3 augmentation radius   1.263 (default was   1.010)
       energy cutoff for augmentation   2000.0

 real space projection operators:
  total allocation   :       2500.10 KBytes
  max/ min on nodes  :        127.88         43.95

 Maximum index for augmentation-charges in exchange          143
  SETUP_FOCK is finished

 total amount of memory used by VASP MPI-rank0   157492. kBytes
=======================================================================

   base      :      30000. kBytes
   nonl-proj :       4589. kBytes
   fftplans  :      12974. kBytes
   grid      :      30670. kBytes
   one-center:         62. kBytes
   HF        :         23. kBytes
   nonlr-proj:       1690. kBytes
   wavefun   :      77484. kBytes
 
     INWAV:  cpu time    3.5832: real time    3.5837
 Broyden mixing: mesh for mixing (old mesh)
   NGX = 47   NGY = 45   NGZ = 73
  (NGX  =192   NGY  =180   NGZ  =288)
  gives a total of 154395 points

 charge density for first step will be calculated from the start-wavefunctions


--------------------------------------------------------------------------------------------------------


 Maximum index for augmentation-charges          212 (set IRDMAX)


--------------------------------------------------------------------------------------------------------


 initial charge from wavefunction
 First call to EWALD:  gamma=   0.121
 Maximum number of real-space cells 3x 3x 2
 Maximum number of reciprocal cells 2x 2x 4

    FEWALD:  cpu time    0.0028: real time    0.0028


--------------------------------------- Iteration      1(   1)  ---------------------------------------


    POTLOK:  cpu time    1.2468: real time    1.2523
    SETDIJ:  cpu time    2.1060: real time    2.1077
    TRIAL :  cpu time  530.2085: real time  530.2929
    CORREC:  cpu time    0.0024: real time    0.0027
    CHARGE:  cpu time    1.6198: real time    1.6200
    --------------------------------------------
      LOOP:  cpu time  535.1995: real time  535.2936

 eigenvalue-minimisations  :     0
 total energy-change (2. order) :-0.6076673E+03  (-0.5276950E+00)
 number of electron     244.0000040 magnetization       5.5750746
 augmentation part       13.9835204 magnetization       3.7050727

 DIPCOR: dipole corrections for dipol
 direction  3 min pos     1,
 dipolmoment          -0.000000     -0.000000     -0.000274 electrons x Angstroem
 Tr[quadrupol]     -6546.756633

 energy correction for charged system         0.000000 eV
 dipol+quadrupol energy correction            0.000000 eV
 added-field ion interaction          0.000000 eV  (added to PSCEN)


 Free energy of the ion-electron system (eV)
  ---------------------------------------------------
  alpha Z        PSCENC =       101.91198209
  Ewald energy   TEWEN  =     38276.64503174
  -Hartree energ DENC   =    -46740.38033281
  -exchange      EXHF   =       551.04372598
  -V(xc)+E(xc)   XCENC  =       615.44659190
  PAW double counting   =     26052.40746496   -26099.51785226
  entropy T*S    EENTRO =        -0.04718545
  eigenvalues    EBANDS =     -3150.12625730
  atomic energy  EATOM  =      9784.95219456
  ---------------------------------------------------
  free energy    TOTEN  =      -607.66728904 eV

  energy without entropy =     -607.62010359  energy(sigma->0) =     -607.64369631
  exchange ACFDT corr.  =        -0.43736027  see jH, gK, PRB 81, 115126


--------------------------------------------------------------------------------------------------------




--------------------------------------- Iteration      1(   2)  ---------------------------------------


    POTLOK:  cpu time    1.2579: real time    1.2581
    SETDIJ:  cpu time    2.1037: real time    2.1038
    TRIAL :  cpu time  530.2204: real time  530.3455
    CORREC:  cpu time    0.0023: real time    0.0026
    CHARGE:  cpu time    1.6077: real time    1.6077
    --------------------------------------------
      LOOP:  cpu time  535.1957: real time  535.3250

 eigenvalue-minimisations  :     0
 total energy-change (2. order) :-0.3423500E+00  (-0.7120693E+00)
 number of electron     244.0000040 magnetization       5.6877571
 augmentation part       13.8527322 magnetization       3.8188100

 DIPCOR: dipole corrections for dipol
 direction  3 min pos     1,
 dipolmoment          -0.000001     -0.000000     -0.002545 electrons x Angstroem
 Tr[quadrupol]     -6546.610551

 energy correction for charged system         0.000000 eV
 dipol+quadrupol energy correction            0.000000 eV
 added-field ion interaction          0.000000 eV  (added to PSCEN)


 Free energy of the ion-electron system (eV)
  ---------------------------------------------------
  alpha Z        PSCENC =       101.91198227
  Ewald energy   TEWEN  =     38276.64503174
  -Hartree energ DENC   =    -46731.20085073
  -exchange      EXHF   =       551.02448154
  -V(xc)+E(xc)   XCENC  =       615.09268964
  PAW double counting   =     26184.31914359   -26231.92227715
  entropy T*S    EENTRO =        -0.04664740
  eigenvalues    EBANDS =     -3158.78484901
  atomic energy  EATOM  =      9784.95219456
  ---------------------------------------------------
  free energy    TOTEN  =      -608.00963901 eV

  energy without entropy =     -607.96299161  energy(sigma->0) =     -607.98631531
  exchange ACFDT corr.  =        -0.31039386  see jH, gK, PRB 81, 115126


--------------------------------------------------------------------------------------------------------




--------------------------------------- Iteration      1(   3)  ---------------------------------------


    POTLOK:  cpu time    1.2636: real time    1.2637
    SETDIJ:  cpu time    2.1088: real time    2.1089
    TRIAL :  cpu time  530.7511: real time  530.8277
    CORREC:  cpu time    0.0022: real time    0.0024
    CHARGE:  cpu time    1.6088: real time    1.6088
    --------------------------------------------
      LOOP:  cpu time  535.7370: real time  536.2395

 eigenvalue-minimisations  :     0
 total energy-change (2. order) :-0.2827918E+00  (-0.8074864E+00)
 number of electron     244.0000039 magnetization       5.4595428
 augmentation part       13.9744851 magnetization       3.7631782

 DIPCOR: dipole corrections for dipol
 direction  3 min pos     1,
 dipolmoment          -0.000000     -0.000000     -0.000261 electrons x Angstroem
 Tr[quadrupol]     -6546.362916

 energy correction for charged system         0.000000 eV
 dipol+quadrupol energy correction            0.000000 eV
 added-field ion interaction          0.000000 eV  (added to PSCEN)


 Free energy of the ion-electron system (eV)
  ---------------------------------------------------
  alpha Z        PSCENC =       101.91198209
  Ewald energy   TEWEN  =     38276.64503174
  -Hartree energ DENC   =    -46705.00093133
  -exchange      EXHF   =       550.81345873
  -V(xc)+E(xc)   XCENC  =       614.63609870
  PAW double counting   =     26327.44180103   -26373.23368045
  entropy T*S    EENTRO =        -0.03795943
  eigenvalues    EBANDS =     -3186.41173842
  atomic energy  EATOM  =      9784.95219456
  ---------------------------------------------------
  free energy    TOTEN  =      -608.29243076 eV

  energy without entropy =     -608.25447133  energy(sigma->0) =     -608.27345104
  exchange ACFDT corr.  =        -0.49212191  see jH, gK, PRB 81, 115126


--------------------------------------------------------------------------------------------------------




--------------------------------------- Iteration      1(   4)  ---------------------------------------


    POTLOK:  cpu time    1.2675: real time    1.2677
    SETDIJ:  cpu time    2.1083: real time    2.1084
    TRIAL :  cpu time  528.0415: real time  528.0904
    CORREC:  cpu time    0.0023: real time    0.0026
    CHARGE:  cpu time    1.6067: real time    1.6067
    --------------------------------------------
      LOOP:  cpu time  533.0288: real time  533.0781

 eigenvalue-minimisations  :     0
 total energy-change (2. order) :-0.2252373E+00  (-0.5402690E+00)
 number of electron     244.0000039 magnetization       5.5336302
 augmentation part       13.8713292 magnetization       3.8320660

 DIPCOR: dipole corrections for dipol
 direction  3 min pos     1,
 dipolmoment          -0.000001     -0.000001     -0.003691 electrons x Angstroem
 Tr[quadrupol]     -6546.370263

 energy correction for charged system         0.000000 eV
 dipol+quadrupol energy correction            0.000000 eV
 added-field ion interaction          0.000000 eV  (added to PSCEN)


 Free energy of the ion-electron system (eV)
  ---------------------------------------------------
  alpha Z        PSCENC =       101.91198247
  Ewald energy   TEWEN  =     38276.64503174
  -Hartree energ DENC   =    -46711.32100120
  -exchange      EXHF   =       551.26223272
  -V(xc)+E(xc)   XCENC  =       614.57203497
  PAW double counting   =     26483.44239690   -26531.00547634
  entropy T*S    EENTRO =        -0.04173481
  eigenvalues    EBANDS =     -3178.93910446
  atomic energy  EATOM  =      9784.95219456
  ---------------------------------------------------
  free energy    TOTEN  =      -608.51766808 eV

  energy without entropy =     -608.47593326  energy(sigma->0) =     -608.49680067
  exchange ACFDT corr.  =        -0.21658418  see jH, gK, PRB 81, 115126


--------------------------------------------------------------------------------------------------------




--------------------------------------- Iteration      1(   5)  ---------------------------------------


    POTLOK:  cpu time    1.2650: real time    1.2651
    SETDIJ:  cpu time    2.1042: real time    2.1044
    TRIAL :  cpu time  527.5972: real time  527.6761
    CORREC:  cpu time    0.0022: real time    0.0025
    CHARGE:  cpu time    1.6010: real time    1.6010
    --------------------------------------------
      LOOP:  cpu time  532.5718: real time  532.6512

 eigenvalue-minimisations  :     0
 total energy-change (2. order) :-0.2455485E+00  (-0.2445865E+00)
 number of electron     244.0000039 magnetization       5.4606131
 augmentation part       13.9080316 magnetization       3.8156564

 DIPCOR: dipole corrections for dipol
 direction  3 min pos     1,
 dipolmoment          -0.000001     -0.000000     -0.001627 electrons x Angstroem
 Tr[quadrupol]     -6546.328749

 energy correction for charged system         0.000000 eV
 dipol+quadrupol energy correction            0.000000 eV
 added-field ion interaction          0.000000 eV  (added to PSCEN)


 Free energy of the ion-electron system (eV)
  ---------------------------------------------------
  alpha Z        PSCENC =       101.91198216
  Ewald energy   TEWEN  =     38276.64503174
  -Hartree energ DENC   =    -46701.65801224
  -exchange      EXHF   =       551.37185015
  -V(xc)+E(xc)   XCENC  =       614.51592578
  PAW double counting   =     26571.63663299   -26617.69949853
  entropy T*S    EENTRO =        -0.03403134
  eigenvalues    EBANDS =     -3190.39758835
  atomic energy  EATOM  =      9784.95219456
  ---------------------------------------------------
  free energy    TOTEN  =      -608.76321656 eV

  energy without entropy =     -608.72918523  energy(sigma->0) =     -608.74620090
  exchange ACFDT corr.  =        -0.21422182  see jH, gK, PRB 81, 115126


--------------------------------------------------------------------------------------------------------




--------------------------------------- Iteration      1(   6)  ---------------------------------------


    POTLOK:  cpu time    1.2637: real time    1.2640
    SETDIJ:  cpu time    2.1041: real time    2.1042
    TRIAL :  cpu time  527.6976: real time  527.7680
    CORREC:  cpu time    0.0023: real time    0.0026
    CHARGE:  cpu time    1.6031: real time    1.6032
    --------------------------------------------
      LOOP:  cpu time  532.6735: real time  532.7446

 eigenvalue-minimisations  :     0
 total energy-change (2. order) :-0.1667050E+00  (-0.1168929E+00)
 number of electron     244.0000039 magnetization       5.4578751
 augmentation part       13.9148117 magnetization       3.8266542

 DIPCOR: dipole corrections for dipol
 direction  3 min pos     1,
 dipolmoment          -0.000001     -0.000000     -0.001863 electrons x Angstroem
 Tr[quadrupol]     -6546.407378

 energy correction for charged system         0.000000 eV
 dipol+quadrupol energy correction            0.000000 eV
 added-field ion interaction          0.000000 eV  (added to PSCEN)


 Free energy of the ion-electron system (eV)
  ---------------------------------------------------
  alpha Z        PSCENC =       101.91198218
  Ewald energy   TEWEN  =     38276.64503174
  -Hartree energ DENC   =    -46708.71152682
  -exchange      EXHF   =       551.81491567
  -V(xc)+E(xc)   XCENC  =       614.66953688
  PAW double counting   =     26643.91407193   -26690.50184815
  entropy T*S    EENTRO =        -0.03113372
  eigenvalues    EBANDS =     -3183.59024818
  atomic energy  EATOM  =      9784.95219456
  ---------------------------------------------------
  free energy    TOTEN  =      -608.92992154 eV

  energy without entropy =     -608.89878781  energy(sigma->0) =     -608.91435468
  exchange ACFDT corr.  =        -0.05231943  see jH, gK, PRB 81, 115126


--------------------------------------------------------------------------------------------------------




--------------------------------------- Iteration      1(   7)  ---------------------------------------


    POTLOK:  cpu time    1.2607: real time    1.2607
    SETDIJ:  cpu time    2.1039: real time    2.1040
    TRIAL :  cpu time  527.1697: real time  527.2202
    CORREC:  cpu time    0.0023: real time    0.0026
    CHARGE:  cpu time    1.6019: real time    1.6020
    --------------------------------------------
      LOOP:  cpu time  532.1426: real time  532.2000

 eigenvalue-minimisations  :     0
 total energy-change (2. order) :-0.8224018E-01  (-0.5616836E-01)
 number of electron     244.0000039 magnetization       5.4684340
 augmentation part       13.9116231 magnetization       3.8416251

 DIPCOR: dipole corrections for dipol
 direction  3 min pos     1,
 dipolmoment          -0.000000     -0.000000     -0.000987 electrons x Angstroem
 Tr[quadrupol]     -6546.457944

 energy correction for charged system         0.000000 eV
 dipol+quadrupol energy correction            0.000000 eV
 added-field ion interaction          0.000000 eV  (added to PSCEN)


 Free energy of the ion-electron system (eV)
  ---------------------------------------------------
  alpha Z        PSCENC =       101.91198211
  Ewald energy   TEWEN  =     38276.64503174
  -Hartree energ DENC   =    -46712.35962806
  -exchange      EXHF   =       552.10899183
  -V(xc)+E(xc)   XCENC  =       614.80890424
  PAW double counting   =     26686.38104917   -26733.12428595
  entropy T*S    EENTRO =        -0.03073068
  eigenvalues    EBANDS =     -3180.30526764
  atomic energy  EATOM  =      9784.95219456
  ---------------------------------------------------
  free energy    TOTEN  =      -609.01216172 eV

  energy without entropy =     -608.98143104  energy(sigma->0) =     -608.99679638
  exchange ACFDT corr.  =        -0.01971797  see jH, gK, PRB 81, 115126


--------------------------------------------------------------------------------------------------------




--------------------------------------- Iteration      1(   8)  ---------------------------------------


    POTLOK:  cpu time    1.2569: real time    1.2571
    SETDIJ:  cpu time    2.1031: real time    2.1031
    TRIAL :  cpu time  527.2795: real time  527.3240
    CORREC:  cpu time    0.0022: real time    0.0022
    CHARGE:  cpu time    1.5976: real time    1.5978
    --------------------------------------------
      LOOP:  cpu time  532.2430: real time  532.2899

 eigenvalue-minimisations  :     0
 total energy-change (2. order) :-0.4532259E-01  (-0.3518702E-01)
 number of electron     244.0000039 magnetization       5.4756719
 augmentation part       13.9141404 magnetization       3.8539603

 DIPCOR: dipole corrections for dipol
 direction  3 min pos     1,
 dipolmoment          -0.000000     -0.000000     -0.000370 electrons x Angstroem
 Tr[quadrupol]     -6546.480579

 energy correction for charged system         0.000000 eV
 dipol+quadrupol energy correction            0.000000 eV
 added-field ion interaction          0.000000 eV  (added to PSCEN)


 Free energy of the ion-electron system (eV)
  ---------------------------------------------------
  alpha Z        PSCENC =       101.91198209
  Ewald energy   TEWEN  =     38276.64503174
  -Hartree energ DENC   =    -46713.74392583
  -exchange      EXHF   =       552.29486128
  -V(xc)+E(xc)   XCENC  =       614.89986778
  PAW double counting   =     26709.77500629   -26756.53315634
  entropy T*S    EENTRO =        -0.03044927
  eigenvalues    EBANDS =     -3179.22861520
  atomic energy  EATOM  =      9784.95219456
  ---------------------------------------------------
  free energy    TOTEN  =      -609.05748431 eV

  energy without entropy =     -609.02703505  energy(sigma->0) =     -609.04225968
  exchange ACFDT corr.  =        -0.01841297  see jH, gK, PRB 81, 115126


--------------------------------------------------------------------------------------------------------




--------------------------------------- Iteration      1(   9)  ---------------------------------------


    POTLOK:  cpu time    1.2539: real time    1.2539
    SETDIJ:  cpu time    2.1031: real time    2.1031
    TRIAL :  cpu time  527.8581: real time  527.9125
    CORREC:  cpu time    0.0021: real time    0.0024
    CHARGE:  cpu time    1.5988: real time    1.5988
    --------------------------------------------
      LOOP:  cpu time  532.8184: real time  532.8731

 eigenvalue-minimisations  :     0
 total energy-change (2. order) :-0.3064396E-01  (-0.2561528E-01)
 number of electron     244.0000039 magnetization       5.4803753
 augmentation part       13.9188928 magnetization       3.8643202

 DIPCOR: dipole corrections for dipol
 direction  3 min pos     1,
 dipolmoment          -0.000000     -0.000000     -0.000256 electrons x Angstroem
 Tr[quadrupol]     -6546.488574

 energy correction for charged system         0.000000 eV
 dipol+quadrupol energy correction            0.000000 eV
 added-field ion interaction          0.000000 eV  (added to PSCEN)


 Free energy of the ion-electron system (eV)
  ---------------------------------------------------
  alpha Z        PSCENC =       101.91198209
  Ewald energy   TEWEN  =     38276.64503174
  -Hartree energ DENC   =    -46714.48450037
  -exchange      EXHF   =       552.41971140
  -V(xc)+E(xc)   XCENC  =       614.95602839
  PAW double counting   =     26723.28997578   -26770.14679283
  entropy T*S    EENTRO =        -0.03021719
  eigenvalues    EBANDS =     -3178.60130976
  atomic energy  EATOM  =      9784.95219456
  ---------------------------------------------------
  free energy    TOTEN  =      -609.08812827 eV

  energy without entropy =     -609.05791109  energy(sigma->0) =     -609.07301968
  exchange ACFDT corr.  =        -0.01794474  see jH, gK, PRB 81, 115126


--------------------------------------------------------------------------------------------------------




--------------------------------------- Iteration      1(  10)  ---------------------------------------


    POTLOK:  cpu time    1.2530: real time    1.2531
    SETDIJ:  cpu time    2.0924: real time    2.0925
    TRIAL :  cpu time  526.9255: real time  526.9835
    CORREC:  cpu time    0.0022: real time    0.0025
    CHARGE:  cpu time    1.5966: real time    1.5967
    --------------------------------------------
      LOOP:  cpu time  531.8719: real time  531.9305

 eigenvalue-minimisations  :     0
 total energy-change (2. order) :-0.2244724E-01  (-0.1802406E-01)
 number of electron     244.0000039 magnetization       5.4840258
 augmentation part       13.9208556 magnetization       3.8732725

 DIPCOR: dipole corrections for dipol
 direction  3 min pos     1,
 dipolmoment          -0.000000     -0.000000     -0.000391 electrons x Angstroem
 Tr[quadrupol]     -6546.489216

 energy correction for charged system         0.000000 eV
 dipol+quadrupol energy correction            0.000000 eV
 added-field ion interaction          0.000000 eV  (added to PSCEN)


 Free energy of the ion-electron system (eV)
  ---------------------------------------------------
  alpha Z        PSCENC =       101.91198209
  Ewald energy   TEWEN  =     38276.64503174
  -Hartree energ DENC   =    -46714.80638747
  -exchange      EXHF   =       552.50201968
  -V(xc)+E(xc)   XCENC  =       614.98738586
  PAW double counting   =     26731.02859874   -26778.01021498
  entropy T*S    EENTRO =        -0.03003783
  eigenvalues    EBANDS =     -3178.29096854
  atomic energy  EATOM  =      9784.95219456
  ---------------------------------------------------
  free energy    TOTEN  =      -609.11057551 eV

  energy without entropy =     -609.08053768  energy(sigma->0) =     -609.09555660
  exchange ACFDT corr.  =        -0.01760641  see jH, gK, PRB 81, 115126


--------------------------------------------------------------------------------------------------------




--------------------------------------- Iteration      1(  11)  ---------------------------------------


    POTLOK:  cpu time    1.2502: real time    1.2503
    SETDIJ:  cpu time    2.0970: real time    2.0969
    TRIAL :  cpu time  526.3184: real time  526.3690
    CORREC:  cpu time    0.0022: real time    0.0024
    CHARGE:  cpu time    1.6040: real time    1.6041
    --------------------------------------------
      LOOP:  cpu time  531.2744: real time  531.3254

 eigenvalue-minimisations  :     0
 total energy-change (2. order) :-0.1599102E-01  (-0.1306258E-01)
 number of electron     244.0000039 magnetization       5.4875104
 augmentation part       13.9195602 magnetization       3.8810797

 DIPCOR: dipole corrections for dipol
 direction  3 min pos     1,
 dipolmoment          -0.000000     -0.000000     -0.000504 electrons x Angstroem
 Tr[quadrupol]     -6546.487692

 energy correction for charged system         0.000000 eV
 dipol+quadrupol energy correction            0.000000 eV
 added-field ion interaction          0.000000 eV  (added to PSCEN)


 Free energy of the ion-electron system (eV)
  ---------------------------------------------------
  alpha Z        PSCENC =       101.91198209
  Ewald energy   TEWEN  =     38276.64503174
  -Hartree energ DENC   =    -46714.77958933
  -exchange      EXHF   =       552.55797359
  -V(xc)+E(xc)   XCENC  =       615.00388308
  PAW double counting   =     26735.05523416   -26782.10441436
  entropy T*S    EENTRO =        -0.02990382
  eigenvalues    EBANDS =     -3178.33882423
  atomic energy  EATOM  =      9784.95219456
  ---------------------------------------------------
  free energy    TOTEN  =      -609.12656653 eV

  energy without entropy =     -609.09666271  energy(sigma->0) =     -609.11161462
  exchange ACFDT corr.  =        -0.01736277  see jH, gK, PRB 81, 115126


--------------------------------------------------------------------------------------------------------




--------------------------------------- Iteration      1(  12)  ---------------------------------------


    POTLOK:  cpu time    1.2458: real time    1.2459
    SETDIJ:  cpu time    2.0915: real time    2.0916
    TRIAL :  cpu time  526.2972: real time  526.3580
    CORREC:  cpu time    0.0022: real time    0.0024
    CHARGE:  cpu time    1.5965: real time    1.5965
    --------------------------------------------
      LOOP:  cpu time  531.2359: real time  531.2971

 eigenvalue-minimisations  :     0
 total energy-change (2. order) :-0.1175100E-01  (-0.9552697E-02)
 number of electron     244.0000039 magnetization       5.4909441
 augmentation part       13.9182411 magnetization       3.8880664

 DIPCOR: dipole corrections for dipol
 direction  3 min pos     1,
 dipolmoment          -0.000000     -0.000000     -0.000493 electrons x Angstroem
 Tr[quadrupol]     -6546.486827

 energy correction for charged system         0.000000 eV
 dipol+quadrupol energy correction            0.000000 eV
 added-field ion interaction          0.000000 eV  (added to PSCEN)


 Free energy of the ion-electron system (eV)
  ---------------------------------------------------
  alpha Z        PSCENC =       101.91198209
  Ewald energy   TEWEN  =     38276.64503174
  -Hartree energ DENC   =    -46714.59237885
  -exchange      EXHF   =       552.60023443
  -V(xc)+E(xc)   XCENC  =       615.01452595
  PAW double counting   =     26737.06225354   -26784.11326180
  entropy T*S    EENTRO =        -0.02980295
  eigenvalues    EBANDS =     -3178.58899536
  atomic energy  EATOM  =      9784.95219456
  ---------------------------------------------------
  free energy    TOTEN  =      -609.13831753 eV

  energy without entropy =     -609.10851459  energy(sigma->0) =     -609.12341606
  exchange ACFDT corr.  =        -0.01718549  see jH, gK, PRB 81, 115126


--------------------------------------------------------------------------------------------------------




--------------------------------------- Iteration      1(  13)  ---------------------------------------


    POTLOK:  cpu time    1.2471: real time    1.2474
    SETDIJ:  cpu time    2.0902: real time    2.0917
    TRIAL :  cpu time  526.2946: real time  526.3455
    CORREC:  cpu time    0.0023: real time    0.0026
    CHARGE:  cpu time    1.6055: real time    1.6056
    --------------------------------------------
      LOOP:  cpu time  531.2417: real time  531.2947

 eigenvalue-minimisations  :     0
 total energy-change (2. order) :-0.8650709E-02  (-0.7051353E-02)
 number of electron     244.0000039 magnetization       5.4942010
 augmentation part       13.9188690 magnetization       3.8943562

 DIPCOR: dipole corrections for dipol
 direction  3 min pos     1,
 dipolmoment          -0.000000     -0.000000     -0.000408 electrons x Angstroem
 Tr[quadrupol]     -6546.487899

 energy correction for charged system         0.000000 eV
 dipol+quadrupol energy correction            0.000000 eV
 added-field ion interaction          0.000000 eV  (added to PSCEN)


 Free energy of the ion-electron system (eV)
  ---------------------------------------------------
  alpha Z        PSCENC =       101.91198209
  Ewald energy   TEWEN  =     38276.64503174
  -Hartree energ DENC   =    -46714.51777442
  -exchange      EXHF   =       552.63751036
  -V(xc)+E(xc)   XCENC  =       615.02626688
  PAW double counting   =     26738.49951065   -26785.54320028
  entropy T*S    EENTRO =        -0.02972401
  eigenvalues    EBANDS =     -3178.72868686
  atomic energy  EATOM  =      9784.95219456
  ---------------------------------------------------
  free energy    TOTEN  =      -609.14696824 eV

  energy without entropy =     -609.11724423  energy(sigma->0) =     -609.13210624
  exchange ACFDT corr.  =        -0.01705578  see jH, gK, PRB 81, 115126


--------------------------------------------------------------------------------------------------------




--------------------------------------- Iteration      1(  14)  ---------------------------------------


    POTLOK:  cpu time    1.2443: real time    1.2443
    SETDIJ:  cpu time    2.1052: real time    2.1052
    TRIAL :  cpu time  526.1202: real time  526.1793
    CORREC:  cpu time    0.0023: real time    0.0026
    CHARGE:  cpu time    1.5949: real time    1.5950
    --------------------------------------------
      LOOP:  cpu time  531.0696: real time  531.1290

 eigenvalue-minimisations  :     0
 total energy-change (2. order) :-0.6472821E-02  (-0.5340363E-02)
 number of electron     244.0000039 magnetization       5.4973060
 augmentation part       13.9205190 magnetization       3.8998445

 DIPCOR: dipole corrections for dipol
 direction  3 min pos     1,
 dipolmoment          -0.000000     -0.000000     -0.000322 electrons x Angstroem
 Tr[quadrupol]     -6546.490604

 energy correction for charged system         0.000000 eV
 dipol+quadrupol energy correction            0.000000 eV
 added-field ion interaction          0.000000 eV  (added to PSCEN)


 Free energy of the ion-electron system (eV)
  ---------------------------------------------------
  alpha Z        PSCENC =       101.91198209
  Ewald energy   TEWEN  =     38276.64503174
  -Hartree energ DENC   =    -46714.65267025
  -exchange      EXHF   =       552.67290352
  -V(xc)+E(xc)   XCENC  =       615.04093011
  PAW double counting   =     26740.12567025   -26787.18958651
  entropy T*S    EENTRO =        -0.02965886
  eigenvalues    EBANDS =     -3178.63017256
  atomic energy  EATOM  =      9784.95219456
  ---------------------------------------------------
  free energy    TOTEN  =      -609.15344106 eV

  energy without entropy =     -609.12378220  energy(sigma->0) =     -609.13861163
  exchange ACFDT corr.  =        -0.01696022  see jH, gK, PRB 81, 115126


--------------------------------------------------------------------------------------------------------




--------------------------------------- Iteration      1(  15)  ---------------------------------------


    POTLOK:  cpu time    1.2431: real time    1.2431
    SETDIJ:  cpu time    2.0971: real time    2.0971
    TRIAL :  cpu time  526.2138: real time  526.2657
    CORREC:  cpu time    0.0023: real time    0.0026
    CHARGE:  cpu time    1.5967: real time    1.5967
    --------------------------------------------
      LOOP:  cpu time  531.1554: real time  531.2076

 eigenvalue-minimisations  :     0
 total energy-change (2. order) :-0.4930234E-02  (-0.4067818E-02)
 number of electron     244.0000039 magnetization       5.5003896
 augmentation part       13.9218183 magnetization       3.9045107

 DIPCOR: dipole corrections for dipol
 direction  3 min pos     1,
 dipolmoment          -0.000000     -0.000000     -0.000265 electrons x Angstroem
 Tr[quadrupol]     -6546.493397

 energy correction for charged system         0.000000 eV
 dipol+quadrupol energy correction            0.000000 eV
 added-field ion interaction          0.000000 eV  (added to PSCEN)


 Free energy of the ion-electron system (eV)
  ---------------------------------------------------
  alpha Z        PSCENC =       101.91198209
  Ewald energy   TEWEN  =     38276.64503174
  -Hartree energ DENC   =    -46714.86036677
  -exchange      EXHF   =       552.70464306
  -V(xc)+E(xc)   XCENC  =       615.05553581
  PAW double counting   =     26741.91840670   -26789.01651517
  entropy T*S    EENTRO =        -0.02960220
  eigenvalues    EBANDS =     -3178.43962445
  atomic energy  EATOM  =      9784.95219456
  ---------------------------------------------------
  free energy    TOTEN  =      -609.15837130 eV

  energy without entropy =     -609.12876910  energy(sigma->0) =     -609.14357020
  exchange ACFDT corr.  =        -0.01688738  see jH, gK, PRB 81, 115126


--------------------------------------------------------------------------------------------------------




--------------------------------------- Iteration      1(  16)  ---------------------------------------


    POTLOK:  cpu time    1.2408: real time    1.2409
    SETDIJ:  cpu time    2.0948: real time    2.0949
    TRIAL :  cpu time  526.2200: real time  526.2953
    CORREC:  cpu time    0.0023: real time    0.0026
    CHARGE:  cpu time    1.5956: real time    1.5956
    --------------------------------------------
      LOOP:  cpu time  531.1563: real time  531.2321

 eigenvalue-minimisations  :     0
 total energy-change (2. order) :-0.3779130E-02  (-0.3150575E-02)
 number of electron     244.0000039 magnetization       5.5035371
 augmentation part       13.9223760 magnetization       3.9084610

 DIPCOR: dipole corrections for dipol
 direction  3 min pos     1,
 dipolmoment          -0.000000     -0.000000     -0.000235 electrons x Angstroem
 Tr[quadrupol]     -6546.495234

 energy correction for charged system         0.000000 eV
 dipol+quadrupol energy correction            0.000000 eV
 added-field ion interaction          0.000000 eV  (added to PSCEN)


 Free energy of the ion-electron system (eV)
  ---------------------------------------------------
  alpha Z        PSCENC =       101.91198209
  Ewald energy   TEWEN  =     38276.64503174
  -Hartree energ DENC   =    -46715.00440226
  -exchange      EXHF   =       552.73100024
  -V(xc)+E(xc)   XCENC  =       615.06741259
  PAW double counting   =     26743.66437144   -26790.78897987
  entropy T*S    EENTRO =        -0.02955077
  eigenvalues    EBANDS =     -3178.31115874
  atomic energy  EATOM  =      9784.95219456
  ---------------------------------------------------
  free energy    TOTEN  =      -609.16215043 eV

  energy without entropy =     -609.13259965  energy(sigma->0) =     -609.14737504
  exchange ACFDT corr.  =        -0.01682861  see jH, gK, PRB 81, 115126


--------------------------------------------------------------------------------------------------------




--------------------------------------- Iteration      1(  17)  ---------------------------------------


    POTLOK:  cpu time    1.2377: real time    1.2379
    SETDIJ:  cpu time    2.0943: real time    2.0946
    TRIAL :  cpu time  526.0772: real time  526.1695
    CORREC:  cpu time    0.0022: real time    0.0025
    CHARGE:  cpu time    1.5972: real time    1.5974
    --------------------------------------------
      LOOP:  cpu time  531.0110: real time  531.1043

 eigenvalue-minimisations  :     0
 total energy-change (2. order) :-0.2943372E-02  (-0.2472813E-02)
 number of electron     244.0000039 magnetization       5.5067624
 augmentation part       13.9225627 magnetization       3.9118663

 DIPCOR: dipole corrections for dipol
 direction  3 min pos     1,
 dipolmoment          -0.000000     -0.000000     -0.000218 electrons x Angstroem
 Tr[quadrupol]     -6546.496099

 energy correction for charged system         0.000000 eV
 dipol+quadrupol energy correction            0.000000 eV
 added-field ion interaction          0.000000 eV  (added to PSCEN)


 Free energy of the ion-electron system (eV)
  ---------------------------------------------------
  alpha Z        PSCENC =       101.91198209
  Ewald energy   TEWEN  =     38276.64503174
  -Hartree energ DENC   =    -46715.05915344
  -exchange      EXHF   =       552.75218771
  -V(xc)+E(xc)   XCENC  =       615.07619515
  PAW double counting   =     26745.24082050   -26792.37867968
  entropy T*S    EENTRO =        -0.02950259
  eigenvalues    EBANDS =     -3178.27612163
  atomic energy  EATOM  =      9784.95219456
  ---------------------------------------------------
  free energy    TOTEN  =      -609.16509380 eV

  energy without entropy =     -609.13559120  energy(sigma->0) =     -609.15034250
  exchange ACFDT corr.  =        -0.01677878  see jH, gK, PRB 81, 115126


--------------------------------------------------------------------------------------------------------




--------------------------------------- Iteration      1(  18)  ---------------------------------------


    POTLOK:  cpu time    1.2370: real time    1.2370
    SETDIJ:  cpu time    2.0932: real time    2.0935
    TRIAL :  cpu time  526.1368: real time  526.2456
    CORREC:  cpu time    0.0023: real time    0.0025
    CHARGE:  cpu time    1.5965: real time    1.5969
    --------------------------------------------
      LOOP:  cpu time  531.0685: real time  531.1784

 eigenvalue-minimisations  :     0
 total energy-change (2. order) :-0.2318893E-02  (-0.1960403E-02)
 number of electron     244.0000039 magnetization       5.5100673
 augmentation part       13.9228107 magnetization       3.9149159

 DIPCOR: dipole corrections for dipol
 direction  3 min pos     1,
 dipolmoment          -0.000000     -0.000000     -0.000204 electrons x Angstroem
 Tr[quadrupol]     -6546.496513

 energy correction for charged system         0.000000 eV
 dipol+quadrupol energy correction            0.000000 eV
 added-field ion interaction          0.000000 eV  (added to PSCEN)


 Free energy of the ion-electron system (eV)
  ---------------------------------------------------
  alpha Z        PSCENC =       101.91198208
  Ewald energy   TEWEN  =     38276.64503174
  -Hartree energ DENC   =    -46715.07268227
  -exchange      EXHF   =       552.76963797
  -V(xc)+E(xc)   XCENC  =       615.08301609
  PAW double counting   =     26746.61999872   -26793.76468812
  entropy T*S    EENTRO =        -0.02945624
  eigenvalues    EBANDS =     -3178.28240086
  atomic energy  EATOM  =      9784.95219456
  ---------------------------------------------------
  free energy    TOTEN  =      -609.16741269 eV

  energy without entropy =     -609.13795645  energy(sigma->0) =     -609.15268457
  exchange ACFDT corr.  =        -0.01673528  see jH, gK, PRB 81, 115126


--------------------------------------------------------------------------------------------------------




--------------------------------------- Iteration      1(  19)  ---------------------------------------


    POTLOK:  cpu time    1.2432: real time    1.2435
    SETDIJ:  cpu time    2.0938: real time    2.0939
    TRIAL :  cpu time  526.3503: real time  526.4680
    CORREC:  cpu time    0.0023: real time    0.0025
    CHARGE:  cpu time    1.5970: real time    1.5971
    --------------------------------------------
      LOOP:  cpu time  531.2893: real time  531.4078

 eigenvalue-minimisations  :     0
 total energy-change (2. order) :-0.1846712E-02  (-0.1572850E-02)
 number of electron     244.0000039 magnetization       5.5134799
 augmentation part       13.9231706 magnetization       3.9177044

 DIPCOR: dipole corrections for dipol
 direction  3 min pos     1,
 dipolmoment          -0.000000     -0.000000     -0.000189 electrons x Angstroem
 Tr[quadrupol]     -6546.496944

 energy correction for charged system         0.000000 eV
 dipol+quadrupol energy correction            0.000000 eV
 added-field ion interaction          0.000000 eV  (added to PSCEN)


 Free energy of the ion-electron system (eV)
  ---------------------------------------------------
  alpha Z        PSCENC =       101.91198208
  Ewald energy   TEWEN  =     38276.64503174
  -Hartree energ DENC   =    -46715.09493108
  -exchange      EXHF   =       552.78478499
  -V(xc)+E(xc)   XCENC  =       615.08912518
  PAW double counting   =     26747.81515281   -26794.96776920
  entropy T*S    EENTRO =        -0.02941040
  eigenvalues    EBANDS =     -3178.27537425
  atomic energy  EATOM  =      9784.95219456
  ---------------------------------------------------
  free energy    TOTEN  =      -609.16925940 eV

  energy without entropy =     -609.13984900  energy(sigma->0) =     -609.15455420
  exchange ACFDT corr.  =        -0.01669638  see jH, gK, PRB 81, 115126


--------------------------------------------------------------------------------------------------------




--------------------------------------- Iteration      1(  20)  ---------------------------------------


    POTLOK:  cpu time    1.2345: real time    1.2345
    SETDIJ:  cpu time    2.0965: real time    2.0967
    TRIAL :  cpu time  526.3592: real time  526.4127
    CORREC:  cpu time    0.0022: real time    0.0024
    CHARGE:  cpu time    1.6071: real time    1.6071
    --------------------------------------------
      LOOP:  cpu time  531.3019: real time  531.3559

 eigenvalue-minimisations  :     0
 total energy-change (2. order) :-0.1487329E-02  (-0.1275314E-02)
 number of electron     244.0000039 magnetization       5.5170375
 augmentation part       13.9234809 magnetization       3.9202500

 DIPCOR: dipole corrections for dipol
 direction  3 min pos     1,
 dipolmoment          -0.000000     -0.000000     -0.000175 electrons x Angstroem
 Tr[quadrupol]     -6546.497504

 energy correction for charged system         0.000000 eV
 dipol+quadrupol energy correction            0.000000 eV
 added-field ion interaction          0.000000 eV  (added to PSCEN)


 Free energy of the ion-electron system (eV)
  ---------------------------------------------------
  alpha Z        PSCENC =       101.91198208
  Ewald energy   TEWEN  =     38276.64503174
  -Hartree energ DENC   =    -46715.13496071
  -exchange      EXHF   =       552.79826113
  -V(xc)+E(xc)   XCENC  =       615.09494886
  PAW double counting   =     26748.81934887   -26795.98171213
  entropy T*S    EENTRO =        -0.02936387
  eigenvalues    EBANDS =     -3178.24643074
  atomic energy  EATOM  =      9784.95219456
  ---------------------------------------------------
  free energy    TOTEN  =      -609.17074673 eV

  energy without entropy =     -609.14138287  energy(sigma->0) =     -609.15606480
  exchange ACFDT corr.  =        -0.01666026  see jH, gK, PRB 81, 115126


--------------------------------------------------------------------------------------------------------




--------------------------------------- Iteration      1(  21)  ---------------------------------------


    POTLOK:  cpu time    1.2326: real time    1.2327
    SETDIJ:  cpu time    2.0933: real time    2.0933
    TRIAL :  cpu time  526.3855: real time  526.4330
[...]
  augment    54.36290    50.78213    55.64718     2.63618     0.03499     0.01014
  Kinetic  3617.47349  3592.10687  4080.92915     0.08989     0.08688     0.18486
  Fock     -329.38482  -326.96959  -308.05189    -2.93533    -0.01884     0.03192
  -------------------------------------------------------------------------------------
  Total     -43.18859   -43.91286    -0.36220    -0.29426     0.01450     0.02268
  in kB     -21.78114   -22.14641    -0.18267    -0.14840     0.00731     0.01144
  external pressure =      -14.70 kB  Pullay stress =        0.00 kB


 VOLUME and BASIS-vectors are now :
 -----------------------------------------------------------------------------
  energy-cutoff  :      500.00
  volume of cell :     3176.87
      direct lattice vectors                 reciprocal lattice vectors
    13.049306929 -0.014220673 -0.000303380     0.076632515  0.000085799 -0.000031145
    -0.013779664 12.307299419 -0.000380436     0.000088546  0.081252693 -0.000012071
     0.008036081  0.002930037 19.781049506     0.000001177  0.000001564  0.050553434

  length of vectors
    13.049314681 12.307307139 19.781051355     0.076632569  0.081252742  0.050553434


 FORCES acting on ions:
    Electron-Ion                     Ewald-Force                    Non-Local-Force
 -----------------------------------------------------------------------------------------------
   -.202E+00 0.124E+01 0.119E-01   0.855E+00 -.172E+01 -.781E-02   -.468E+00 0.285E+00 -.447E-02
   0.175E+01 0.873E+01 -.475E+00   -.173E+01 -.917E+01 0.475E+00   -.371E-01 0.367E+00 -.587E-03
   -.124E+02 0.413E+01 -.123E+00   0.125E+02 -.433E+01 0.118E+00   -.274E+00 0.196E+00 0.519E-02
   -.682E+00 0.121E+02 0.731E+00   0.773E+00 -.123E+02 -.736E+00   -.857E-01 0.157E+00 0.508E-02
   0.776E+01 0.504E+02 0.599E+00   -.891E+01 -.537E+02 -.584E+00   0.114E+01 0.345E+01 -.129E-01
   0.112E+02 0.136E+02 -.127E+01   -.114E+02 -.138E+02 0.127E+01   0.329E+00 0.150E+00 -.193E-03
   0.289E+00 0.148E+02 -.475E+00   -.386E+00 -.151E+02 0.478E+00   0.104E+00 0.365E+00 -.431E-02
   0.278E+02 -.163E+02 -.102E+00   -.294E+02 0.192E+02 0.120E+00   0.153E+01 -.321E+01 -.177E-01
   0.427E+01 -.383E+01 -.218E+01   -.440E+01 0.424E+01 0.218E+01   0.279E-01 -.392E+00 -.442E-02
   0.190E+02 -.453E+01 -.178E+01   -.193E+02 0.493E+01 0.179E+01   0.476E+00 -.415E+00 -.117E-01
   0.420E+02 -.162E+02 0.953E+00   -.428E+02 0.170E+02 -.974E+00   0.168E+01 -.516E+00 0.806E-02
   0.866E+01 -.202E+02 -.784E+00   -.799E+01 0.214E+02 0.778E+00   -.632E+00 -.774E+00 0.199E-02
   0.118E+01 -.141E+02 -.137E+01   -.739E+00 0.143E+02 0.137E+01   -.295E+00 -.265E+00 -.164E-02
   0.714E+01 -.792E+01 -.188E+01   -.693E+01 0.812E+01 0.188E+01   -.257E+00 -.553E-01 -.376E-02
   -.107E+02 -.131E+02 -.426E+00   0.114E+02 0.125E+02 0.430E+00   -.666E+00 0.401E+00 -.701E-02
   -.128E+01 -.355E+01 -.443E+00   0.156E+01 0.342E+01 0.444E+00   -.266E+00 0.164E+00 0.570E-03
   -.847E+01 -.592E+01 -.727E+00   0.917E+01 0.591E+01 0.726E+00   -.680E+00 -.210E-01 0.854E-03
   -.423E+01 0.538E+01 -.173E+00   0.444E+01 -.593E+01 0.166E+00   -.298E+00 0.726E+00 0.492E-02
   0.596E+01 0.879E+01 -.871E+00   -.613E+01 -.913E+01 0.865E+00   0.139E+00 0.262E+00 0.199E-02
   0.295E+02 0.285E+02 0.635E+00   -.314E+02 -.312E+02 -.623E+00   0.203E+01 0.284E+01 -.112E-01
   0.112E+02 0.108E+02 -.368E+00   -.117E+02 -.116E+02 0.371E+00   0.539E+00 0.736E+00 -.452E-02
   -.110E+02 0.980E+01 -.937E+00   0.112E+02 -.982E+01 0.943E+00   -.226E+00 0.138E+00 -.952E-02
   -.329E+02 0.565E+00 0.341E+00   0.362E+02 -.740E-01 -.328E+00   -.366E+01 -.731E+00 -.135E-01
   -.881E+01 -.395E+01 0.734E+00   0.811E+01 0.629E+01 -.747E+00   0.761E+00 -.179E+01 0.138E-01
   0.547E+01 0.281E+02 0.939E+00   -.463E+01 -.332E+02 -.938E+00   -.630E+00 0.476E+01 0.212E-02
   -.126E+02 -.343E+02 -.283E+00   0.140E+02 0.373E+02 0.299E+00   -.155E+01 -.331E+01 -.182E-01
   0.241E+01 -.608E+01 -.701E+00   -.413E+01 0.682E+01 0.699E+00   0.135E+01 -.520E+00 0.707E-03
   0.116E+02 0.703E+01 -.420E+00   -.117E+02 -.811E+01 0.419E+00   0.138E+00 0.945E+00 -.237E-02
   -.107E+01 -.124E+01 -.109E+01   0.100E+01 0.980E+00 0.109E+01   0.661E-01 0.291E+00 -.474E-02
   0.209E+01 0.154E+01 -.801E+00   -.192E+01 -.159E+01 0.799E+00   -.789E-01 0.332E-01 0.176E-02
   0.141E+01 0.360E+01 -.113E+01   -.127E+01 -.350E+01 0.113E+01   -.139E+00 -.160E+00 -.718E-03
   -.661E+01 0.112E+01 -.117E+01   0.657E+01 -.108E+01 0.117E+01   -.131E-01 -.339E-01 -.460E-02
   -.677E+01 0.200E+01 -.822E+00   0.683E+01 -.207E+01 0.823E+00   -.493E-01 0.455E-01 -.146E-02
   0.188E+01 0.731E+01 -.104E+01   -.204E+01 -.739E+01 0.104E+01   0.153E+00 0.945E-01 0.100E-02
   -.128E+01 0.188E+01 -.422E+00   0.738E+00 -.199E+01 0.423E+00   0.614E+00 0.715E-01 -.978E-03
   -.301E+01 -.562E+00 -.963E+00   0.290E+01 0.757E+00 0.964E+00   0.162E+00 -.109E+00 -.153E-02
   0.321E+01 0.571E+00 -.138E+01   -.363E+01 -.528E+00 0.138E+01   0.330E+00 0.222E-02 -.176E-02
   0.342E+01 0.258E+01 -.139E+01   -.358E+01 -.268E+01 0.139E+01   0.175E+00 0.455E-02 -.145E-02
   0.879E+00 0.572E+01 -.184E+00   -.137E+01 -.616E+01 0.184E+00   0.433E+00 0.452E+00 -.997E-03
   0.143E+01 -.165E+01 -.624E+00   -.166E+01 0.138E+01 0.619E+00   0.179E+00 0.205E+00 0.380E-02
   0.754E+01 -.817E+00 -.174E+01   -.739E+01 0.785E+00 0.174E+01   -.572E-01 0.580E-01 -.195E-02
   0.722E+00 -.478E+01 -.122E+01   -.386E+00 0.483E+01 0.122E+01   -.244E+00 -.208E-02 -.183E-02
   -.673E+01 -.902E+01 -.420E+00   0.731E+01 0.934E+01 0.421E+00   -.465E+00 -.347E+00 0.126E-02
   -.451E+01 0.238E+01 -.535E+00   0.460E+01 -.266E+01 0.533E+00   -.160E+00 0.324E+00 0.200E-02
   -.110E+01 -.248E+01 -.107E+01   0.113E+01 0.255E+01 0.107E+01   -.155E+00 -.710E-01 0.715E-03
   -.304E+00 -.583E+01 -.688E+00   0.333E+00 0.594E+01 0.687E+00   -.503E-01 -.163E+00 0.231E-02
   0.394E+01 -.138E+01 -.102E+01   -.404E+01 0.147E+01 0.102E+01   0.105E+00 -.919E-01 0.711E-03
   -.312E+01 -.190E+01 -.756E+00   0.328E+01 0.229E+01 0.759E+00   -.141E+00 -.352E+00 -.303E-02
   -.866E+01 0.676E-01 -.590E+00   0.887E+01 0.131E-02 0.591E+00   -.212E+00 0.136E-01 0.462E-03
   -.290E+02 -.345E+02 0.550E+00   0.344E+02 0.346E+02 -.612E+00   -.604E+01 -.640E-01 0.625E-01
   0.191E+02 -.251E+02 0.210E+01   -.288E+02 0.245E+02 -.216E+01   0.978E+01 0.346E+00 0.711E-01
   0.340E+02 0.445E+01 -.687E+00   -.377E+02 -.952E+01 0.678E+00   0.398E+01 0.546E+01 0.578E-02
   -.390E+02 0.361E+02 0.289E+01   0.609E+02 -.346E+02 -.312E+01   -.207E+02 -.121E+01 0.222E+00
   0.337E+02 -.102E+02 0.231E+01   -.434E+02 0.282E+02 -.247E+01   0.939E+01 -.171E+02 0.155E+00
   -.874E+02 -.230E+02 0.824E+01   0.107E+03 0.235E+02 -.859E+01   -.196E+02 -.376E+00 0.345E+00
   0.481E+02 0.265E+02 0.128E+01   -.685E+02 -.278E+02 -.137E+01   0.194E+02 0.143E+01 0.906E-01
   -.404E+02 0.110E+02 0.781E+01   0.427E+02 -.839E+01 -.778E+01   -.278E+01 -.331E+01 -.304E-01
   -.132E+02 -.259E+02 0.452E+01   0.102E+02 0.268E+02 -.450E+01   0.345E+01 -.186E+01 -.241E-01
 -----------------------------------------------------------------------------------------------
   0.320E+01 0.131E+02 -.881E+00   -.187E-12 -.448E-12 -.799E-14   -.252E+01 -.125E+02 0.803E+00
 
 
 POSITION                                       TOTAL-FORCE (eV/Angst)
 -----------------------------------------------------------------------------------
      2.96102      0.02630      9.88604         0.164420     -0.186863     -0.000652
      0.74474      1.22741      9.89001        -0.015125     -0.060061     -0.000433
      1.49431      0.00996      9.88864        -0.137508      0.011769      0.000697
      3.68468      1.29825      9.88208        -0.006082     -0.000813      0.000904
      2.89236      2.52351      9.88166         0.061605      0.312922      0.000802
      0.66064      3.67403      9.89197         0.124074      0.000596     -0.002781
      1.43963      2.47089      9.88829         0.004582      0.093282     -0.001267
      2.72524      4.89579      9.88218        -0.015266     -0.560182     -0.000252
      0.62846      6.15532      9.89494        -0.108723     -0.002151     -0.004113
      1.32806      4.91485      9.89149         0.139846     -0.050380     -0.005234
      3.43390      6.12363      9.87669         1.072101      0.178286     -0.013440
      2.75055      7.37634      9.88572         0.016798      0.349169     -0.004523
      0.67693      8.63395      9.89330         0.128355     -0.108211     -0.001507
      1.34105      7.38558      9.89298        -0.050131      0.146989     -0.004458
      2.89714      9.82315      9.88724         0.005421     -0.123098     -0.003294
      0.74255     11.08780      9.89037         0.009628      0.045607      0.001432
      1.44682      9.84594      9.89058        -0.011565     -0.035006     -0.000768
      3.64592     11.07267      9.88630        -0.101466      0.222465     -0.001437
      7.26584     12.28528      9.88879        -0.026751     -0.061832     -0.003722
      5.15249      1.28559      9.88119         0.211604      0.252100      0.000581
      5.83690      0.00193      9.88620         0.068478     -0.037813     -0.001522
      8.01547      1.20063      9.88882         0.006426      0.134050     -0.004792
      7.30053      2.41681      9.88216        -0.508057     -0.281825     -0.001057
      8.00799      3.68520      9.88129         0.100965      0.472739      0.001319
      7.96244      6.16030      9.88025         0.185709     -0.080700      0.003461
      8.03147      8.57839      9.88580        -0.196128     -0.501174     -0.002797
      7.28111      9.83250      9.88778        -0.305911      0.198281     -0.001459
      5.10495     11.05121      9.88636         0.069430     -0.083355     -0.003183
      8.00192     11.06099      9.89050        -0.013992      0.047105     -0.002073
     11.61339     12.29291      9.89228         0.096074     -0.021969     -0.000320
      9.45398      1.20637      9.89189        -0.000284     -0.060467     -0.003513
     10.16912     12.29204      9.89280        -0.065007      0.008441     -0.002620
     12.34664      1.21219      9.89219        -0.006117     -0.023034     -0.000587
     11.59447      2.43036      9.89288        -0.002727      0.018560     -0.000898
      9.43600      3.66602      9.88796         0.105593     -0.032046     -0.000192
     10.16308      2.43355      9.89153         0.048791      0.076548     -0.001160
     12.28351      3.66606      9.89359        -0.070247      0.038192     -0.001603
     11.56061      4.90209      9.89362         0.026672     -0.089624     -0.001904
      9.41187      6.14330      9.88688        -0.037613      0.032583     -0.000483
     10.13268      4.90602      9.88969        -0.040561     -0.057294     -0.000767
     12.26787      6.13792      9.89494         0.087941      0.031086     -0.001805
     11.57259      7.37864      9.89340         0.078788      0.037200     -0.000507
      9.45169      8.60758      9.88910         0.083215     -0.056709      0.002106
     10.14660      7.36967      9.88989        -0.077303      0.064568      0.000073
     12.29606      8.61404      9.89329        -0.136509     -0.004602      0.000645
     11.59766      9.84967      9.89221        -0.019846     -0.062441      0.001388
      9.44229     11.06974      9.89206         0.023280      0.000842     -0.002305
     10.16499      9.84631      9.89153         0.002989      0.017007      0.000249
     12.34297     11.07057      9.89165        -0.021367      0.086768      0.001477
      3.54647      8.55273      9.88257        -0.932830     -0.035012      0.004258
      7.25237      4.89789      9.87513         0.551938     -0.238280      0.012884
      5.85397      9.82414      9.88594         0.488884      0.663774     -0.002701
      3.49375      3.75909      9.87550        -0.613590      0.184281      0.010276
      5.91637      2.45498      9.87656         0.520026     -0.533934      0.012051
      4.77101      6.11055      9.86216        -1.300391      0.105315      0.020809
      7.32740      7.40534      9.88005         0.697117      0.269325      0.002478
      5.39239      4.35908      9.86678        -0.353325     -0.374617      0.008492
      5.37796      7.95644      9.87428        -0.006329     -0.336357     -0.000250
 -----------------------------------------------------------------------------------
    total drift:                                0.001570      0.006667     -0.001261


--------------------------------------------------------------------------------------------------------



  FREE ENERGIE OF THE ION-ELECTRON SYSTEM (eV)
  ---------------------------------------------------
  free  energy   TOTEN  =      -609.18490793 eV

  energy  without entropy=     -609.16841803  energy(sigma->0) =     -609.17666298
 


--------------------------------------------------------------------------------------------------------


    POTLOK:  cpu time    3.3113: real time    3.3119


--------------------------------------------------------------------------------------------------------


 stress matrix after NEB project (eV)
    -43.18859     -0.29186      0.02268
     -0.29426    -43.91286      0.01427
      0.02250      0.01450     -0.36220
  FORCES: max atom, RMS     1.304814    0.390124
  FORCE total and by dimension    2.971097    1.300391
  Stress total and by dimension   61.594628   43.912864
 writing wavefunctions
     LOOP+:  cpu time43662.6383: real time43677.0503
    4ORBIT:  cpu time    0.0000: real time    0.0000
 


 total charge     
 
# of ion       s       p       d       tot
------------------------------------------
    1        0.853   1.703   0.000   2.556
    2        0.863   1.756   0.000   2.619
    3        0.859   1.739   0.000   2.598
    4        0.843   1.724   0.000   2.567
    5        0.853   1.699   0.000   2.552
    6        0.871   1.774   0.000   2.645
    7        0.862   1.758   0.000   2.620
    8        0.876   1.785   0.000   2.661
    9        0.869   1.794   0.000   2.664
   10        0.876   1.812   0.000   2.688
   11        0.887   1.773   0.000   2.659
   12        0.880   1.787   0.000   2.667
   13        0.867   1.772   0.000   2.640
   14        0.875   1.794   0.000   2.669
   15        0.857   1.728   0.000   2.585
   16        0.862   1.750   0.000   2.612
   17        0.862   1.748   0.000   2.610
   18        0.855   1.724   0.000   2.579
   19        0.866   1.753   0.000   2.619
   20        0.846   1.677   0.000   2.523
   21        0.859   1.730   0.000   2.588
   22        0.867   1.785   0.000   2.652
   23        0.867   1.725   0.000   2.592
   24        0.868   1.749   0.000   2.617
   25        0.851   1.686   0.000   2.538
   26        0.866   1.726   0.000   2.592
   27        0.868   1.746   0.000   2.614
   28        0.856   1.717   0.000   2.573
   29        0.865   1.766   0.000   2.631
   30        0.866   1.765   0.000   2.631
   31        0.867   1.773   0.000   2.640
   32        0.866   1.765   0.000   2.631
   33        0.863   1.760   0.000   2.623
   34        0.869   1.770   0.000   2.638
   35        0.869   1.768   0.000   2.637
   36        0.866   1.775   0.000   2.642
   37        0.868   1.780   0.000   2.648
   38        0.866   1.770   0.000   2.636
   39        0.863   1.757   0.000   2.621
   40        0.866   1.771   0.000   2.638
   41        0.872   1.785   0.000   2.657
   42        0.866   1.778   0.000   2.644
   43        0.869   1.788   0.000   2.657
   44        0.871   1.765   0.000   2.636
   45        0.868   1.767   0.000   2.635
   46        0.866   1.771   0.000   2.638
   47        0.867   1.769   0.000   2.636
   48        0.865   1.771   0.000   2.637
   49        0.863   1.757   0.000   2.620
   50        0.872   1.663   0.000   2.535
   51        0.869   1.652   0.000   2.521
   52        0.867   1.665   0.000   2.532
   53        1.238   2.664   0.000   3.902
   54        1.229   2.648   0.000   3.877
   55        1.256   2.586   0.000   3.842
   56        1.235   2.650   0.000   3.885
   57        0.477   0.613   6.229   7.319
   58        0.498   0.656   6.036   7.190
--------------------------------------------------
tot         50.928 102.882  12.265 166.074
 


 magnetization (x)
 
# of ion       s       p       d       tot
------------------------------------------
    1        0.001   0.008   0.000   0.009
    2        0.001   0.018   0.000   0.019
    3       -0.001  -0.014   0.000  -0.015
    4        0.001   0.015   0.000   0.015
    5        0.001   0.010   0.000   0.010
    6        0.001   0.010   0.000   0.011
    7       -0.001  -0.012   0.000  -0.013
    8        0.002   0.032   0.000   0.034
    9        0.003   0.040   0.000   0.042
   10       -0.002  -0.015   0.000  -0.016
   11       -0.000  -0.006   0.000  -0.006
   12        0.003   0.034   0.000   0.037
   13        0.001   0.014   0.000   0.015
   14       -0.002  -0.016   0.000  -0.018
   15        0.002   0.021   0.000   0.022
   16        0.001   0.015   0.000   0.016
   17       -0.002  -0.013   0.000  -0.015
   18       -0.000  -0.005   0.000  -0.005
   19        0.001   0.014   0.000   0.015
   20        0.001   0.012   0.000   0.012
   21       -0.002  -0.015   0.000  -0.017
   22       -0.001  -0.008   0.000  -0.009
   23        0.001   0.023   0.000   0.024
   24       -0.001  -0.002   0.000  -0.002
   25       -0.000  -0.003   0.000  -0.003
   26       -0.001  -0.013   0.000  -0.013
   27        0.004   0.029   0.000   0.032
   28        0.001   0.019   0.000   0.021
   29       -0.001  -0.012   0.000  -0.014
   30        0.001   0.012   0.000   0.013
   31        0.002   0.023   0.000   0.024
   32       -0.001  -0.014   0.000  -0.015
   33       -0.001  -0.011   0.000  -0.012
   34        0.001   0.016   0.000   0.017
   35        0.000   0.009   0.000   0.009
   36       -0.001  -0.008   0.000  -0.009
   37       -0.001  -0.013   0.000  -0.014
   38        0.002   0.024   0.000   0.025
   39        0.001   0.018   0.000   0.019
   40       -0.001  -0.009   0.000  -0.010
   41       -0.002  -0.015   0.000  -0.017
   42        0.002   0.021   0.000   0.023
   43        0.001   0.016   0.000   0.018
   44       -0.001  -0.013   0.000  -0.014
   45       -0.001  -0.016   0.000  -0.017
   46        0.001   0.019   0.000   0.021
   47        0.002   0.022   0.000   0.024
   48       -0.001  -0.011   0.000  -0.012
   49       -0.001  -0.012   0.000  -0.013
   50       -0.019  -0.085   0.000  -0.104
   51       -0.009  -0.012   0.000  -0.021
   52       -0.016  -0.070   0.000  -0.087
   53       -0.002  -0.006   0.000  -0.008
   54       -0.003  -0.009   0.000  -0.013
   55       -0.004   0.049   0.000   0.046
   56        0.000   0.037   0.000   0.037
   57        0.041   0.021   2.164   2.226
   58        0.062   0.021   2.901   2.984
--------------------------------------------------
tot          0.059   0.183   5.065   5.306
 

 total amount of memory used by VASP MPI-rank0   171289. kBytes
=======================================================================

   base      :      30000. kBytes
   nonl-proj :       4589. kBytes
   fftplans  :      12974. kBytes
   grid      :      30670. kBytes
   one-center:         62. kBytes
   HF        :         23. kBytes
   nonlr-proj:      15487. kBytes
   wavefun   :      77484. kBytes
 
  
  
 General timing and accounting informations for this job:
 ========================================================
  
                  Total CPU time used (sec):    43742.312
                            User time (sec):    43660.303
                          System time (sec):       82.009
                         Elapsed time (sec):    43757.531
  
                   Maximum memory used (kb):      413320.
                   Average memory used (kb):           0.
  
                          Minor page faults:     11238733
                          Major page faults:            0
                 Voluntary context switches:         1758
