 vasp.5.4.4.18Apr17-6-g9f103f2a35 (build Feb 25 2019 10:51:38) complex          
  
 executed on             LinuxIFC date 2021.07.23  15:39:34
 running on   32 total cores
 distrk:  each k-point on   32 cores,    1 groups
 distr:  one band on NCORES_PER_BAND=  32 cores,    1 groups


--------------------------------------------------------------------------------------------------------


 INCAR:
 POTCAR:    PAW_PBE C 08Apr2002                   
 POTCAR:    PAW_PBE N 08Apr2002                   
 POTCAR:    PAW_PBE Fe 06Sep2000                  
 POTCAR:    PAW_PBE Ti 08Apr2002                  

 ----------------------------------------------------------------------------- 
|                                                                             |
|           W    W    AA    RRRRR   N    N  II  N    N   GGGG   !!!           |
|           W    W   A  A   R    R  NN   N  II  NN   N  G    G  !!!           |
|           W    W  A    A  R    R  N N  N  II  N N  N  G       !!!           |
|           W WW W  AAAAAA  RRRRR   N  N N  II  N  N N  G  GGG   !            |
|           WW  WW  A    A  R   R   N   NN  II  N   NN  G    G                |
|           W    W  A    A  R    R  N    N  II  N    N   GGGG   !!!           |
|                                                                             |
|      For optimal performance we recommend to set                            |
|        NCORE= 4 - approx SQRT( number of cores)                             |
|      NCORE specifies how many cores store one orbital (NPAR=cpu/NCORE).     |
|      This setting can  greatly improve the performance of VASP for DFT.     |
|      The default,   NCORE=1            might be grossly inefficient         |
|      on modern multi-core architectures or massively parallel machines.     |
|      Do your own testing !!!!                                               |
|      Unfortunately you need to use the default for GW and RPA calculations. |
|      (for HF NCORE is supported but not extensively tested yet)             |
|                                                                             |
 ----------------------------------------------------------------------------- 

 POTCAR:    PAW_PBE C 08Apr2002                   
   VRHFIN =C: s2p2                                                              
   LEXCH  = PE                                                                  
   EATOM  =   147.1560 eV,   10.8157 Ry                                         
                                                                                
   TITEL  = PAW_PBE C 08Apr2002                                                 
   LULTRA =        F    use ultrasoft PP ?                                      
   IUNSCR =        1    unscreen: 0-lin 1-nonlin 2-no                           
   RPACOR =    1.200    partial core radius                                     
   POMASS =   12.011; ZVAL   =    4.000    mass and valenz                      
   RCORE  =    1.500    outmost cutoff radius                                   
   RWIGS  =    1.630; RWIGS  =    0.863    wigner-seitz radius (au A)           
   ENMAX  =  400.000; ENMIN  =  300.000 eV                                      
   ICORE  =        2    local potential                                         
   LCOR   =        T    correct aug charges                                     
   LPAW   =        T    paw PP                                                  
   EAUG   =  644.873                                                            
   DEXC   =    0.000                                                            
   RMAX   =    1.529    core radius for proj-oper                               
   RAUG   =    1.300    factor for augmentation sphere                          
   RDEP   =    1.501    radius for radial grids                                 
   RDEPT  =    1.300    core radius for aug-charge                              
                                                                                
   Atomic configuration                                                         
    4 entries                                                                   
     n  l   j            E        occ.                                          
     1  0  0.50      -273.3789   2.0000                                         
     2  0  0.50       -13.7508   2.0000                                         
     2  1  0.50        -5.2854   2.0000                                         
     3  2  1.50        -5.4423   0.0000                                         
   Description                                                                  
     l       E           TYP  RCUT    TYP  RCUT                                 
     0    -13.7508458     23  1.200                                             
     0     -8.2022199     23  1.200                                             
     1     -5.2854383     23  1.500                                             
     1     34.0145650     23  1.500                                             
     2     -5.4423304      7  1.500                                             
  local pseudopotential read in
  partial core-charges read in
  partial kinetic energy density read in
  atomic valenz-charges read in
  non local Contribution for L=           0  read in
    real space projection operators read in
  non local Contribution for L=           0  read in
    real space projection operators read in
  non local Contribution for L=           1  read in
    real space projection operators read in
  non local Contribution for L=           1  read in
    real space projection operators read in
    PAW grid and wavefunctions read in
 
   number of l-projection  operators is LMAX  =           4
   number of lm-projection operators is LMMAX =           8
 
 POTCAR:    PAW_PBE N 08Apr2002                   
   VRHFIN =N: s2p3                                                              
   LEXCH  = PE                                                                  
   EATOM  =   264.5486 eV,   19.4438 Ry                                         
                                                                                
   TITEL  = PAW_PBE N 08Apr2002                                                 
   LULTRA =        F    use ultrasoft PP ?                                      
   IUNSCR =        1    unscreen: 0-lin 1-nonlin 2-no                           
   RPACOR =    1.200    partial core radius                                     
   POMASS =   14.001; ZVAL   =    5.000    mass and valenz                      
   RCORE  =    1.500    outmost cutoff radius                                   
   RWIGS  =    1.400; RWIGS  =    0.741    wigner-seitz radius (au A)           
   ENMAX  =  400.000; ENMIN  =  300.000 eV                                      
   ICORE  =        2    local potential                                         
   LCOR   =        T    correct aug charges                                     
   LPAW   =        T    paw PP                                                  
   EAUG   =  627.112                                                            
   DEXC   =    0.000                                                            
   RMAX   =    1.529    core radius for proj-oper                               
   RAUG   =    1.300    factor for augmentation sphere                          
   RDEP   =    1.514    radius for radial grids                                 
   RDEPT  =    1.338    core radius for aug-charge                              
                                                                                
   Atomic configuration                                                         
    4 entries                                                                   
     n  l   j            E        occ.                                          
     1  0  0.50      -384.7179   2.0000                                         
     2  0  0.50       -18.5828   2.0000                                         
     2  1  0.50        -7.0898   3.0000                                         
     3  2  1.50        -6.8029   0.0000                                         
   Description                                                                  
     l       E           TYP  RCUT    TYP  RCUT                                 
     0    -18.5828119     23  1.200                                             
     0    -13.5018863     23  1.200                                             
     1     -7.0897853     23  1.500                                             
     1      9.5240782     23  1.500                                             
     2     -6.8029130      7  1.500                                             
  local pseudopotential read in
  partial core-charges read in
  partial kinetic energy density read in
  atomic valenz-charges read in
  non local Contribution for L=           0  read in
    real space projection operators read in
  non local Contribution for L=           0  read in
    real space projection operators read in
  non local Contribution for L=           1  read in
    real space projection operators read in
  non local Contribution for L=           1  read in
    real space projection operators read in
    PAW grid and wavefunctions read in
 
   number of l-projection  operators is LMAX  =           4
   number of lm-projection operators is LMMAX =           8
 
 POTCAR:    PAW_PBE Fe 06Sep2000                  
   VRHFIN =Fe:  d7 s1                                                           
   LEXCH  = PE                                                                  
   EATOM  =   594.3153 eV,   43.6809 Ry                                         
                                                                                
   TITEL  = PAW_PBE Fe 06Sep2000                                                
   LULTRA =        F    use ultrasoft PP ?                                      
   IUNSCR =        1    unscreen: 0-lin 1-nonlin 2-no                           
   RPACOR =    2.000    partial core radius                                     
   POMASS =   55.847; ZVAL   =    8.000    mass and valenz                      
   RCORE  =    2.300    outmost cutoff radius                                   
   RWIGS  =    2.460; RWIGS  =    1.302    wigner-seitz radius (au A)           
   ENMAX  =  267.882; ENMIN  =  200.911 eV                                      
   RCLOC  =    1.701    cutoff for local pot                                    
   LCOR   =        T    correct aug charges                                     
   LPAW   =        T    paw PP                                                  
   EAUG   =  511.368                                                            
   DEXC   =    0.000                                                            
   RMAX   =    2.356    core radius for proj-oper                               
   RAUG   =    1.300    factor for augmentation sphere                          
   RDEP   =    2.442    radius for radial grids                                 
   RDEPT  =    1.890    core radius for aug-charge                              
                                                                                
   Atomic configuration                                                         
    9 entries                                                                   
     n  l   j            E        occ.                                          
     1  0  0.50     -6993.8440   2.0000                                         
     2  0  0.50      -814.6047   2.0000                                         
     2  1  1.50      -693.3689   6.0000                                         
     3  0  0.50       -89.4732   2.0000                                         
     3  1  1.50       -55.6373   6.0000                                         
     3  2  2.50        -3.8151   7.0000                                         
     4  0  0.50        -4.2551   1.0000                                         
     4  1  1.50        -3.4015   0.0000                                         
     4  3  2.50        -1.3606   0.0000                                         
   Description                                                                  
     l       E           TYP  RCUT    TYP  RCUT                                 
     2     -3.8151135     23  2.300                                             
     2     -5.1756961     23  2.300                                             
     0     -4.2550963     23  2.300                                             
     0      7.2035603     23  2.300                                             
     1     -2.7211652     23  2.300                                             
     1     18.4316424     23  2.300                                             
  local pseudopotential read in
  partial core-charges read in
  partial kinetic energy density read in
  atomic valenz-charges read in
  non local Contribution for L=           2  read in
    real space projection operators read in
  non local Contribution for L=           2  read in
    real space projection operators read in
  non local Contribution for L=           0  read in
    real space projection operators read in
  non local Contribution for L=           0  read in
    real space projection operators read in
  non local Contribution for L=           1  read in
    real space projection operators read in
  non local Contribution for L=           1  read in
    real space projection operators read in
    PAW grid and wavefunctions read in
 
   number of l-projection  operators is LMAX  =           6
   number of lm-projection operators is LMMAX =          18
 
 POTCAR:    PAW_PBE Ti 08Apr2002                  
   VRHFIN =Ti: d3 s1                                                            
   LEXCH  = PE                                                                  
   EATOM  =    94.7928 eV,    6.9671 Ry                                         
                                                                                
   TITEL  = PAW_PBE Ti 08Apr2002                                                
   LULTRA =        F    use ultrasoft PP ?                                      
   IUNSCR =        1    unscreen: 0-lin 1-nonlin 2-no                           
   RPACOR =    2.200    partial core radius                                     
   POMASS =   47.880; ZVAL   =    4.000    mass and valenz                      
   RCORE  =    2.800    outmost cutoff radius                                   
   RWIGS  =    2.500; RWIGS  =    1.323    wigner-seitz radius (au A)           
   ENMAX  =  178.330; ENMIN  =  133.747 eV                                      
   RCLOC  =    2.215    cutoff for local pot                                    
   LCOR   =        T    correct aug charges                                     
   LPAW   =        T    paw PP                                                  
   EAUG   =  328.883                                                            
   DEXC   =    0.000                                                            
   RMAX   =    2.868    core radius for proj-oper                               
   RAUG   =    1.300    factor for augmentation sphere                          
   RDEP   =    2.885    radius for radial grids                                 
   RDEPT  =    2.320    core radius for aug-charge                              
                                                                                
   Atomic configuration                                                         
    9 entries                                                                   
     n  l   j            E        occ.                                          
     1  0  0.50     -4865.3608   2.0000                                         
     2  0  0.50      -533.1367   2.0000                                         
     2  1  1.50      -440.5031   6.0000                                         
     3  0  0.50       -59.3186   2.0000                                         
     3  1  1.50       -35.7012   6.0000                                         
     3  2  2.50        -1.9157   3.0000                                         
     4  0  0.50        -3.7291   1.0000                                         
     4  1  1.50        -4.0817   0.0000                                         
     4  3  2.50        -1.3606   0.0000                                         
   Description                                                                  
     l       E           TYP  RCUT    TYP  RCUT                                 
     2     -1.9156924     23  2.800                                             
     2     -0.4062961     23  2.800                                             
     0     -3.7290832     23  2.800                                             
     0     20.4087390     23  2.800                                             
     1     -5.4423304     23  2.800                                             
  local pseudopotential read in
  partial core-charges read in
  partial kinetic energy density read in
  atomic valenz-charges read in
  non local Contribution for L=           2  read in
    real space projection operators read in
  non local Contribution for L=           2  read in
    real space projection operators read in
  non local Contribution for L=           0  read in
    real space projection operators read in
  non local Contribution for L=           0  read in
    real space projection operators read in
  non local Contribution for L=           1  read in
    real space projection operators read in
    PAW grid and wavefunctions read in
 
   number of l-projection  operators is LMAX  =           5
   number of lm-projection operators is LMMAX =          15
 

 ----------------------------------------------------------------------------- 
|                                                                             |
|  ADVICE TO THIS USER RUNNING 'VASP/VAMP'   (HEAR YOUR MASTER'S VOICE ...):  |
|                                                                             |
|      You have a (more or less) 'large supercell' and for larger cells       |
|      it might be more efficient to use real space projection opertators     |
|      So try LREAL= Auto  in the INCAR   file.                               |
|      Mind:          For very  accurate calculation you might also keep the  |
|      reciprocal projection scheme          (i.e. LREAL=.FALSE.)             |
|                                                                             |
 ----------------------------------------------------------------------------- 

  PAW_PBE C 08Apr2002                   :
 energy of atom  1       EATOM= -147.1560
 kinetic energy error for atom=    0.0076 (will be added to EATOM!!)
  PAW_PBE N 08Apr2002                   :
 energy of atom  2       EATOM= -264.5486
 kinetic energy error for atom=    0.0138 (will be added to EATOM!!)
  PAW_PBE Fe 06Sep2000                  :
 energy of atom  3       EATOM= -594.3153
 kinetic energy error for atom=    0.0026 (will be added to EATOM!!)
  PAW_PBE Ti 08Apr2002                  :
 energy of atom  4       EATOM=  -94.7928
 kinetic energy error for atom=    0.0002 (will be added to EATOM!!)
 
 
 POSCAR:  C  N Fe Ti                             
  positions in cartesian coordinates
  No initial velocities read in
 exchange correlation table for  LEXCH =        8
   RHO(1)=    0.500       N(1)  =     2000
   RHO(2)=  100.500       N(2)  =     4000

 VTST: version 3.2, (02/03/18)

 CHAIN: initializing optimizer
 
 OPT: Using VASP Conjugate-Gradient optimizer
 CHAIN: Read ICHAIN            0
 
 POSCAR:  C  N Fe Ti                             
  positions in cartesian coordinates
  No initial velocities read in
 


--------------------------------------------------------------------------------------------------------


 ion  position               nearest neighbor table
   1  0.222  0.997  0.504-   3 1.42   4 1.42  17 1.42
   2  0.055  0.099  0.502-  34 1.42   7 1.43   3 1.44
   3  0.110  0.998  0.503-   1 1.42  15 1.43   2 1.44
   4  0.276  0.096  0.505-  19 1.41   5 1.42   1 1.42
   5  0.222  0.195  0.503-   7 1.42   4 1.42   8 1.43
   6  0.056  0.299  0.500-  38 1.43   7 1.43  10 1.45
   7  0.110  0.198  0.502-   5 1.42   2 1.43   6 1.43
   8  0.280  0.292  0.501-  55 1.39  51 1.42   5 1.43
   9  0.059  0.497  0.496-  42 1.43  12 1.45  10 1.45
  10  0.115  0.396  0.496-  51 1.42   6 1.45   9 1.45
  11  0.059  0.698  0.499-  46 1.42  16 1.44  12 1.45
  12  0.116  0.597  0.496-  52 1.42   9 1.45  11 1.45
  13  0.280  0.701  0.498-  52 1.42  14 1.43  25 1.43
  14  0.224  0.800  0.501-  16 1.42  17 1.43  13 1.43
  15  0.056  0.899  0.502-  50 1.41   3 1.43  16 1.44
  16  0.112  0.798  0.501-  14 1.42  11 1.44  15 1.44
  17  0.278  0.899  0.503-  28 1.42   1 1.42  14 1.43
  18  0.556  0.999  0.503-  20 1.42  30 1.42  21 1.43
  19  0.388  0.096  0.505-   4 1.41  23 1.42  20 1.42
  20  0.445  0.997  0.504-  18 1.42  19 1.42  28 1.42
  21  0.610  0.099  0.505-  32 1.42  22 1.43  18 1.43
  22  0.554  0.198  0.508-  53 1.42  21 1.43  23 1.43
  23  0.441  0.194  0.507-  55 1.37  19 1.42  22 1.43
  24  0.559  0.605  0.493-  56 1.38  26 1.43  54 1.43  58 2.51
  25  0.393  0.700  0.497-  29 1.43  54 1.43  13 1.43
  26  0.614  0.704  0.498-  44 1.41  27 1.41  24 1.43
  27  0.558  0.802  0.500-  26 1.41  29 1.42  30 1.43
  28  0.390  0.899  0.502-  17 1.42  20 1.42  29 1.43
  29  0.446  0.800  0.500-  27 1.42  25 1.43  28 1.43
  30  0.613  0.901  0.501-  48 1.41  18 1.42  27 1.43
  31  0.889  1.000  0.501-  33 1.41  34 1.43  50 1.44
  32  0.722  0.101  0.503-  21 1.42  37 1.44  33 1.44
  33  0.778  0.001  0.501-  31 1.41  48 1.43  32 1.44
  34  0.943  0.100  0.501-   2 1.42  31 1.43  35 1.44
  35  0.887  0.201  0.501-  37 1.43  38 1.44  34 1.44
  36  0.715  0.302  0.504-  53 1.43  37 1.46  41 1.46
  37  0.774  0.202  0.503-  35 1.43  32 1.44  36 1.46
  38  0.943  0.300  0.501-   6 1.43  35 1.44  39 1.44
  39  0.887  0.400  0.499-  41 1.44  38 1.44  42 1.45
  40  0.721  0.503  0.496-  56 1.37  45 1.44  41 1.44
  41  0.774  0.401  0.500-  39 1.44  40 1.44  36 1.46
  42  0.947  0.499  0.498-   9 1.43  43 1.44  39 1.45
  43  0.891  0.599  0.498-  45 1.42  46 1.44  42 1.44
  44  0.725  0.702  0.498-  26 1.41  49 1.43  45 1.43
  45  0.780  0.601  0.497-  43 1.42  44 1.43  40 1.44
  46  0.947  0.699  0.499-  11 1.42  43 1.44  47 1.44
  47  0.891  0.799  0.500-  49 1.41  50 1.43  46 1.44
  48  0.724  0.901  0.501-  30 1.41  33 1.43  49 1.43
  49  0.780  0.801  0.499-  47 1.41  44 1.43  48 1.43
  50  0.945  0.899  0.501-  15 1.41  47 1.43  31 1.44
  51  0.227  0.392  0.492-  10 1.42   8 1.42  57 1.90
  52  0.228  0.601  0.494-  13 1.42  12 1.42  57 1.89
  53  0.603  0.300  0.510-  22 1.42  36 1.43  58 2.20
  54  0.447  0.600  0.491-  24 1.43  25 1.43  57 2.11  58 2.30
  55  0.389  0.290  0.505-  23 1.37   8 1.39  58 2.13
  56  0.613  0.509  0.492-  40 1.37  24 1.38  58 2.04
  57  0.325  0.497  0.463-  52 1.89  51 1.90  54 2.11  58 2.48
  58  0.484  0.427  0.521-  56 2.04  55 2.13  53 2.20  54 2.30  57 2.48  24 2.51
 
  LATTYP: Found a triclinic cell.
 ALAT       =    17.9072751799
 B/A-ratio  =     0.6994196422
 C/A-ratio  =     1.1155689405
 COS(alpha) =     0.0002792527
 COS(beta)  =     0.0021865768
 COS(gamma) =     0.7051508081
  
  Lattice vectors:
  
 A1 = ( -12.7989312856, -12.5242908908,   0.0000000000)
 A2 = (  -0.1012312856, -12.5242908908,   0.0000000000)
 A3 = (  -0.0560994705,  -0.0051253165,  19.9767205722)


Analysis of symmetry for initial positions (statically):
=====================================================================
 Subroutine PRICEL returns:
 Original cell was already a primitive cell.
 

 Routine SETGRP: Setting up the symmetry group for a 
 triclinic supercell.


 Subroutine GETGRP returns: Found  1 space group operations
 (whereof  1 operations were pure point group operations)
 out of a pool of  2 trial point group operations.


The static configuration has the point symmetry C_1 .


Analysis of symmetry for dynamics (positions and initial velocities):
=====================================================================
 Subroutine PRICEL returns:
 Original cell was already a primitive cell.
 

 Routine SETGRP: Setting up the symmetry group for a 
 triclinic supercell.


 Subroutine GETGRP returns: Found  1 space group operations
 (whereof  1 operations were pure point group operations)
 out of a pool of  2 trial point group operations.


The dynamic configuration has the point symmetry C_1 .


Analysis of structural, dynamic, and magnetic symmetry:
=====================================================================
 Subroutine PRICEL returns:
 Original cell was already a primitive cell.
 

 Routine SETGRP: Setting up the symmetry group for a 
 triclinic supercell.


 Subroutine GETGRP returns: Found  1 space group operations
 (whereof  1 operations were pure point group operations)
 out of a pool of  2 trial point group operations.


The magnetic configuration has the point symmetry C_1 .


 Subroutine INISYM returns: Found  1 space group operations
 (whereof  1 operations are pure point group operations),
 and found     1 'primitive' translations

 
 
 KPOINTS: KPOINTS created by Atomic Simulation Env

Automatic generation of k-mesh.
Space group operators:
 irot       det(A)        alpha          n_x          n_y          n_z        tau_x        tau_y        tau_z
    1     1.000000     0.000000     1.000000     0.000000     0.000000     0.000000     0.000000     0.000000
 
 Subroutine IBZKPT returns following result:
 ===========================================
 
 Found      2 irreducible k-points:
 
 Following reciprocal coordinates:
            Coordinates               Weight
  0.250000  0.250000  0.000000      2.000000
 -0.250000  0.250000 -0.000000      2.000000
 
 Following cartesian coordinates:
            Coordinates               Weight
  0.019689  0.019802  0.000060      2.000000
 -0.019689  0.020120 -0.000050      2.000000
 
 
 Subroutine IBZKPT_HF returns following result:
 ==============================================
 
 Found      4 k-points in 1st BZ
 the following      4 k-points will be used (e.g. in the exchange kernel)
 Following reciprocal coordinates:   # in IRBZ
  0.250000  0.250000  0.000000    0.25000000   1 t-inv F
 -0.250000  0.250000 -0.000000    0.25000000   2 t-inv F
 -0.250000 -0.250000 -0.000000    0.25000000   1 t-inv T
  0.250000 -0.250000  0.000000    0.25000000   2 t-inv T


--------------------------------------------------------------------------------------------------------




 Dimension of arrays:
   k-points           NKPTS =      2   k-points in BZ     NKDIM =      4   number of bands    NBANDS=    153
   number of dos      NEDOS =    301   number of ions     NIONS =     58
   non local maximal  LDIM  =      6   non local SUM 2l+1 LMDIM =     18
   total plane-waves  NPLWV = ******
   max r-space proj   IRMAX =      1   max aug-charges    IRDMAX=  30249
   dimension x,y,z NGX =    96 NGY =   96 NGZ =  150
   dimension x,y,z NGXF=   192 NGYF=  192 NGZF=  300
   support grid    NGXF=   192 NGYF=  192 NGZF=  300
   ions per type =              54   2   1   1
   NGX,Y,Z   is equivalent  to a cutoff of  12.57, 12.74, 12.48 a.u.
   NGXF,Y,Z  is equivalent  to a cutoff of  25.14, 25.49, 24.97 a.u.

 SYSTEM =  unknown system                          
 POSCAR =   C  N Fe Ti                             

 Startparameter for this run:
   NWRITE =      2    write-flag & timer
   PREC   = accura    normal or accurate (medium, high low for compatibility)
   ISTART =      1    job   : 0-new  1-cont  2-samecut
   ICHARG =      0    charge: 1-file 2-atom 10-const
   ISPIN  =      2    spin polarized calculation?
   LNONCOLLINEAR =      F non collinear calculations
   LSORBIT =      F    spin-orbit coupling
   INIWAV =      1    electr: 0-lowe 1-rand  2-diag
   LASPH  =      T    aspherical Exc in radial PAW
   METAGGA=      F    non-selfconsistent MetaGGA calc.

 Electronic Relaxation 1
   ENCUT  =  500.0 eV  36.75 Ry    6.06 a.u.  23.15 22.84 36.42*2*pi/ulx,y,z
   ENINI  =  500.0     initial cutoff
   ENAUG  =  644.9 eV  augmentation charge cutoff
   NELM   =    250;   NELMIN=  2; NELMDL=  0     # of ELM steps 
   EDIFF  = 0.1E-03   stopping-criterion for ELM
   LREAL  =      F    real-space projection
   NLSPLINE    = F    spline interpolate recip. space projectors
   LCOMPAT=      F    compatible to vasp.4.4
   GGA_COMPAT  = T    GGA compatible to vasp.4.4-vasp.4.6
   LMAXPAW     = -100 max onsite density
   LMAXMIX     =    2 max onsite mixed and CHGCAR
   VOSKOWN=      0    Vosko Wilk Nusair interpolation
   ROPT   =    0.00000   0.00000   0.00000   0.00000
 Ionic relaxation
   EDIFFG = -.3E-01   stopping-criterion for IOM
   NSW    =      0    number of steps for IOM
   NBLOCK =      1;   KBLOCK =      1    inner block; outer block 
   IBRION =     -1    ionic relax: 0-MD 1-quasi-New 2-CG
   NFREE  =      1    steps in history (QN), initial steepest desc. (CG)
   ISIF   =      2    stress and relaxation
   IWAVPR =     10    prediction:  0-non 1-charg 2-wave 3-comb
   ISYM   =      3    0-nonsym 1-usesym 2-fastsym
   LCORR  =      T    Harris-Foulkes like correction to forces

   POTIM  = 0.5000    time-step for ionic-motion
   TEIN   =    0.0    initial temperature
   TEBEG  =    0.0;   TEEND  =   0.0 temperature during run
   SMASS  =  -3.00    Nose mass-parameter (am)
   estimated Nose-frequenzy (Omega)   =  0.10E-29 period in steps =****** mass=  -0.368E-26a.u.
   SCALEE = 1.0000    scale energy and forces
   NPACO  =    256;   APACO  = 16.0  distance and # of slots for P.C.
   PSTRESS=    0.0 pullay stress

  Mass of Ions in am
   POMASS =  12.01 14.00 55.85 47.88
  Ionic Valenz
   ZVAL   =   4.00  5.00  8.00  4.00
  Atomic Wigner-Seitz radii
   RWIGS  =  -1.00 -1.00 -1.00 -1.00
  virtual crystal weights 
   VCA    =   1.00  1.00  1.00  1.00
   NELECT =     238.0000    total number of electrons
   NUPDOWN=      -1.0000    fix difference up-down

 DOS related values:
   EMIN   =  10.00;   EMAX   =-10.00  energy-range for DOS
   EFERMI =   0.00
   ISMEAR =     0;   SIGMA  =   0.10  broadening in eV -4-tet -1-fermi 0-gaus

 Electronic relaxation 2 (details)
   IALGO  =     53    algorithm
   LDIAG  =      T    sub-space diagonalisation (order eigenvalues)
   LSUBROT=      F    optimize rotation matrix (better conditioning)
   TURBO    =      0    0=normal 1=particle mesh
   IRESTART =      0    0=no restart 2=restart with 2 vectors
   NREBOOT  =      0    no. of reboots
   NMIN     =      0    reboot dimension
   EREF     =   0.00    reference energy to select bands
   IMIX   =      4    mixing-type and parameters
     AMIX     =   0.40;   BMIX     =  1.00
     AMIX_MAG =   1.60;   BMIX_MAG =  1.00
     AMIN     =   0.10
     WC   =   100.;   INIMIX=   1;  MIXPRE=   1;  MAXMIX= -45

 Intra band minimization:
   WEIMIN = 0.0000     energy-eigenvalue tresh-hold
   EBREAK =  0.16E-06  absolut break condition
   DEPER  =   0.30     relativ break condition  

   TIME   =   0.20     timestep for ELM

  volume/ion in A,a.u.               =      54.77       369.63
  Fermi-wavevector in a.u.,A,eV,Ry     =   0.690133  1.304163  6.480238  0.476284
  Thomas-Fermi vector in A             =   1.771415
 
 Write flags
   LWAVE        =      T    write WAVECAR
   LDOWNSAMPLE  =      F    k-point downsampling of WAVECAR
   LCHARG       =      T    write CHGCAR
   LVTOT        =      F    write LOCPOT, total local potential
   LVHAR        =      F    write LOCPOT, Hartree potential only
   LELF         =      F    write electronic localiz. function (ELF)
   LORBIT       =     11    0 simple, 1 ext, 2 COOP (PROOUT), +10 PAW based schemes


 Dipole corrections
   LMONO  =      F    monopole corrections only (constant potential shift)
   LDIPOL =      T    correct potential (dipole corrections)
   IDIPOL =      3    1-x, 2-y, 3-z, 4-all directions 
   EPSILON=  1.0000000 bulk dielectric constant

 Exchange correlation treatment:
   GGA     =    PE    GGA type
   LEXCH   =     8    internal setting for exchange type
   VOSKOWN=      0    Vosko Wilk Nusair interpolation
   EXXOEP  =     0    0=HF, 1=EXX-LHF (local Hartree Fock) 2=EXX OEP
   LHFCALC =     T    Hartree Fock is set to
   LSYMGRAD=     F    symmetrize gradient (conserves proper symmetry)
   PRECFOCK=normal    Normal, Fast or Accurate (Low or Medium for compatibility)
   LRHFCALC=     F    long range Hartree Fock
   LRSCOR  =     F    long range correlation only (use DFT for short range part)
   LTHOMAS =     F    Thomas Fermi screening in HF
   LMODELHF=     F    short range full HF, long range fraction AEXX
   ENCUT4O =  -1.0   cutoff for four orbital integrals eV
   LMAXFOCK=     4    L truncation for augmentation on plane wave grid
   LMAXFOCKAE=  -1    L truncation for all-electron charge restoration on plane wave grid
   NMAXFOCKAE=   1    number of basis functions for all-electron charge restoration
   LFOCKAEDFT=     F  apply the AE augmentation even for DFT
   NKREDX  =     1    reduce k-point grid by
   NKREDY  =     1    reduce k-point grid by
   NKREDZ  =     1    reduce k-point grid by
   SHIFTRED=     F    shift reduced grid of Gamma
   HFKIDENT=     F    idential grid for each k-point
   ODDONLY =     F    use only odd q-grid points
   EVENONLY=     F    use only even q-grid points
   HFALPHA =   -1.0000 decay constant for conv. correction
   MCALPHA =    0.0000 extent of test-charge in conv. correction in multipole expansion
   AEXX    =    0.2500 exact exchange contribution
   HFSCREEN=    0.2000 screening length (either q_TF or 0.3 A-1)
   HFSCREENC=   0.2000 screening length for correlation (either q_TF or 0.3 A-1)
   HFRCUT  =    0.0000 spherical cutoff for potential kernel
   ALDAX   =    0.7500 LDA exchange part
   AGGAX   =    0.7500 GGA exchange part
   ALDAC   =    1.0000 LDA correlation
   AGGAC   =    1.0000 GGA correlation
   ENCUTFOCK=  -1.0 apply spherical cutoff to Coloumb kernel
   NBANDSGWLOW=     1    first orbital included in HF term
   NBLOCK_FOCK=    64    blocking factor in FOCK_ACC
 Linear response parameters
   LEPSILON=     F    determine dielectric tensor
   LRPA    =     F    only Hartree local field effects (RPA)
   LNABLA  =     F    use nabla operator in PAW spheres
   LVEL    =     F    velocity operator in full k-point grid
   LINTERFAST=   F  fast interpolation
   KINTER  =     0    interpolate to denser k-point grid
   CSHIFT  =0.1000    complex shift for real part using Kramers Kronig
   OMEGAMAX=  -1.0    maximum frequency
   DEG_THRESHOLD= 0.2000000E-02 threshold for treating states as degnerate
   RTIME   =   -0.100 relaxation time in fs
  (WPLASMAI=    0.000 imaginary part of plasma frequency in eV, 0.658/RTIME)
   DFIELD  = 0.0000000 0.0000000 0.0000000 field for delta impulse in time
 
 Orbital magnetization related:
   ORBITALMAG=     F  switch on orbital magnetization
   LCHIMAG   =     F  perturbation theory with respect to B field
   DQ        =  0.001000  dq finite difference perturbation B field
   LLRAUG    =     F  two centre corrections for induced B field



--------------------------------------------------------------------------------------------------------


 Static calculation
 charge density and potential will be updated during run
 spin polarized calculation
 Conjugate gradient for all bands (Freysoldt, et al. PRB 79, 241103 (2009))
 perform sub-space diagonalisation
    before iterative eigenvector-optimisation
 modified Broyden-mixing scheme, WC =      100.0
 initial mixing is a Kerker type mixing with AMIX =  0.4000 and BMIX =      1.0000
 Hartree-type preconditioning will be used
 using additional bands           34
 reciprocal scheme for non local part
 use partial core corrections
 no Harris-corrections to forces 
 use gradient corrections 
 use of overlap-Matrix (Vanderbilt PP)
 Gauss-broadening in eV      SIGMA  =   0.10


--------------------------------------------------------------------------------------------------------


  energy-cutoff  :      500.00
  volume of cell :     3176.89
      direct lattice vectors                 reciprocal lattice vectors
    12.697700000  0.000000000  0.000000000     0.078754420 -0.000636556  0.000220998
     0.101231286 12.524290891  0.000000000     0.000000000  0.079844840  0.000020485
    -0.056099471 -0.005125317 19.976720572     0.000000000  0.000000000  0.050058266

  length of vectors
    12.697700000 12.524700000 19.976800000     0.078757303  0.079844842  0.050058266


 
 old parameters found on file WAVECAR:
  energy-cutoff  :      500.00
  volume of cell :     3176.89
      direct lattice vectors                 reciprocal lattice vectors
    12.697700000  0.000000000  0.000000000     0.078754420 -0.000636556  0.000220998
     0.101231286 12.524290891  0.000000000     0.000000000  0.079844840  0.000020485
    -0.056099471 -0.005125317 19.976720572     0.000000000  0.000000000  0.050058266

  length of vectors

 
 k-points in units of 2pi/SCALE and weight: KPOINTS created by Atomic Simulation Env
   0.01968861  0.01980207  0.00006037       0.500
  -0.01968861  0.02012035 -0.00005013       0.500
 
 k-points in reciprocal lattice and weights: KPOINTS created by Atomic Simulation Env
   0.25000000  0.25000000  0.00000000       0.500
  -0.25000000  0.25000000 -0.00000000       0.500
 
 position of ions in fractional coordinates (direct lattice) 
   0.22164450  0.99721105  0.50369308
   0.05460986  0.09873819  0.50211848
   0.11016922  0.99833969  0.50268904
   0.27644669  0.09557540  0.50469215
   0.22170848  0.19481124  0.50342038
   0.05576441  0.29858569  0.49979708
   0.11003848  0.19781421  0.50175601
   0.27972048  0.29183793  0.50107043
   0.05914217  0.49738971  0.49572491
   0.11549248  0.39625906  0.49558365
   0.05888359  0.69785252  0.49920012
   0.11620123  0.59716852  0.49643341
   0.28021361  0.70077506  0.49773609
   0.22379743  0.79950421  0.50081580
   0.05618122  0.89856646  0.50159169
   0.11227474  0.79842089  0.50079352
   0.27819951  0.89854939  0.50257636
   0.55630982  0.99901854  0.50342407
   0.38784558  0.09566870  0.50532703
   0.44478443  0.99735418  0.50411743
   0.61015304  0.09869231  0.50464225
   0.55411152  0.19773052  0.50776196
   0.44129823  0.19441423  0.50663689
   0.55907725  0.60549694  0.49305673
   0.39319491  0.70018703  0.49690594
   0.61412543  0.70391143  0.49810355
   0.55782443  0.80178362  0.49993661
   0.38987041  0.89871831  0.50237245
   0.44641132  0.79990976  0.49988474
   0.61265915  0.90063620  0.50136205
   0.88915860  0.99991267  0.50103861
   0.72161298  0.10052469  0.50312493
   0.77794724  0.00053049  0.50148045
   0.94294676  0.10005431  0.50142044
   0.88696673  0.20069373  0.50145519
   0.71506156  0.30154890  0.50432010
   0.77449250  0.20152225  0.50275427
   0.94322013  0.29995667  0.50058955
   0.88687372  0.40032900  0.49940800
   0.72059234  0.50343503  0.49594639
   0.77374589  0.40130057  0.50027968
   0.94659450  0.49854117  0.49760258
   0.89138443  0.59927620  0.49792667
   0.72521813  0.70186814  0.49785731
   0.77955675  0.60103863  0.49679025
   0.94691856  0.69874795  0.49905266
   0.89140545  0.79943896  0.49961173
   0.72402361  0.90062579  0.50065990
   0.78004414  0.80075331  0.49923146
   0.94503008  0.89946159  0.50068295
   0.22725930  0.39161721  0.49169427
   0.22797754  0.60147193  0.49385710
   0.60276358  0.29951473  0.50979277
   0.44703107  0.59986808  0.49132720
   0.38865015  0.29020022  0.50499095
   0.61317070  0.50932918  0.49174707
   0.32453569  0.49652668  0.46332443
   0.48395425  0.42661091  0.52128919
 
 position of ions in cartesian coordinates  (Angst):
   2.88706742 12.48677968 10.06213595
   0.67524647  1.23405230 10.03068047
   1.47175835 12.50092022 10.04207858
   3.49159942  1.19442740 10.08209403
   2.80666712  2.43729251 10.05668835
   0.71026755  3.73701240  9.98430651
   1.38911235  2.47491099 10.02343968
   3.55324002  3.65249504 10.00974407
   0.77351100  6.22691269  9.90295796
   1.47880067  4.96032371  9.90013604
   0.79032575  8.73754937  9.97238124
   1.50809088  7.47656782  9.91711143
   3.60108601  8.77415964  9.94313473
   2.89455192 10.01065640 10.00465730
   0.77619635 11.25133691 10.02015695
   1.47836191  9.99708878 10.00421223
   3.59526094 11.25111805 10.03982748
   7.13674529 12.50941858 10.05676205
   4.90608290  1.19559269 10.09477687
   5.72042199 12.48857009 10.07061294
   7.72922086  1.23346472 10.08109720
   7.02747317  2.47383205 10.14341882
   5.59473124  2.43230371 10.12094352
   7.13263027  7.58089272  9.84965652
   5.03567562  8.76679927  9.92655121
   7.84129493  8.81343861  9.95047551
   7.13620663 10.03920898  9.98709403
   5.01325305 11.25323474 10.03575398
   5.72132964 10.01574050  9.98605786
   7.84240850 11.27726014 10.01556954
  11.36338359 12.52062918 10.00910832
   9.14477631  1.25642184 10.05078620
   9.85006157  0.00407374 10.01793475
  11.95525430  1.25053939 10.01673596
  11.25462259  2.51097650 10.01743022
   9.08187121  3.77410136 10.07466167
   9.82646953  2.52134653 10.04338165
  11.97900843  3.75417888 10.00013749
  11.27376571  5.01127722  9.97653415
   9.17300641  6.30262485  9.90738254
   9.83735199  5.02344101  9.99394736
  12.04212576  6.24132432  9.94046774
  11.35126417  7.50295736  9.94694195
   9.25172379  8.78784913  9.94555640
   9.93155201  7.52503640  9.92424004
  12.06642641  8.74876482  9.96943548
  11.37169930 10.00984544  9.98060384
   9.25651929 11.27713329 10.00154290
   9.95782120 10.02630871  9.97300738
  12.06267401 11.26255241 10.00200341
   2.89773051  4.90220783  9.82243896
   2.92797312  7.53047827  9.86564523
   7.65543227  3.74859680 10.18398772
   5.70942861  7.51040410  9.81510621
   4.93601069  3.63196372 10.08806314
   7.80983084  6.37646651  9.82349384
   4.14512864  6.21626992  9.25570270
   6.15904824  5.34032741 10.41364856
 


--------------------------------------------------------------------------------------------------------


 k-point  1 :   0.2500 0.2500 0.0000  plane waves:   80692
 k-point  2 :  -0.2500 0.2500-0.0000  plane waves:   80667

 maximum and minimum number of plane-waves per node :      2553     2493

 maximum number of plane-waves:     80692
 maximum index in each direction: 
   IXMAX=   23   IYMAX=   22   IZMAX=   36
   IXMIN=  -23   IYMIN=  -23   IZMIN=  -36


 parallel 3D FFT for wavefunctions:
    minimum data exchange during FFTs selected (reduces bandwidth)
 parallel 3D FFT for charge:
    minimum data exchange during FFTs selected (reduces bandwidth)


 FFT grid for exact exchange (Hartree Fock) 
  NGX = 70; NGY = 70; NGZ =112

 
 Radii for the augmentation spheres in the non-local exchange
 for species   1 augmentation radius   0.874 (default was   0.699)
       energy cutoff for augmentation   2000.0
 for species   2 augmentation radius   0.886 (default was   0.709)
       energy cutoff for augmentation   2000.0
 for species   3 augmentation radius   1.263 (default was   1.010)
       energy cutoff for augmentation   2000.0
 for species   4 augmentation radius   1.575 (default was   1.260)
       energy cutoff for augmentation   2000.0

 real space projection operators:
  total allocation   :       2728.34 KBytes
  max/ min on nodes  :        128.98         38.46

 Maximum index for augmentation-charges in exchange          232
  SETUP_FOCK is finished

 total amount of memory used by VASP MPI-rank0   165517. kBytes
=======================================================================

   base      :      30000. kBytes
   nonl-proj :       5326. kBytes
   fftplans  :      14250. kBytes
   grid      :      36827. kBytes
   one-center:         62. kBytes
   HF        :         23. kBytes
   nonlr-proj:       3036. kBytes
   wavefun   :      75993. kBytes
 
     INWAV:  cpu time    3.5197: real time    3.5199
 Broyden mixing: mesh for mixing (old mesh)
   NGX = 47   NGY = 45   NGZ = 73
  (NGX  =192   NGY  =192   NGZ  =300)
  gives a total of 154395 points

 charge density for first step will be calculated from the start-wavefunctions


--------------------------------------------------------------------------------------------------------


 Maximum index for augmentation-charges         1118 (set IRDMAX)


--------------------------------------------------------------------------------------------------------


 initial charge from wavefunction
 First call to EWALD:  gamma=   0.121
 Maximum number of real-space cells 3x 3x 2
 Maximum number of reciprocal cells 2x 2x 4

    FEWALD:  cpu time    0.0034: real time    0.0034


--------------------------------------- Iteration      1(   1)  ---------------------------------------


    POTLOK:  cpu time    1.3945: real time    1.3949
    SETDIJ:  cpu time    2.0903: real time    2.0910
    TRIAL :  cpu time  499.0625: real time  499.0947
    CORREC:  cpu time    0.0022: real time    0.0024
    CHARGE:  cpu time    1.6375: real time    1.6376
    --------------------------------------------
      LOOP:  cpu time  504.2031: real time  504.2392

 eigenvalue-minimisations  :     0
 total energy-change (2. order) :-0.6057345E+03  (-0.4083239E+00)
 number of electron     238.0000013 magnetization      -0.7841644
 augmentation part       10.7505298 magnetization      -0.9984173

 DIPCOR: dipole corrections for dipol
 direction  3 min pos     1,
 dipolmoment           0.000209      0.000019     -0.074430 electrons x Angstroem
 Tr[quadrupol]     -6216.897757

 energy correction for charged system         0.000000 eV
 dipol+quadrupol energy correction           -0.000158 eV
 added-field ion interaction         -0.011906 eV  (added to PSCEN)


 Free energy of the ion-electron system (eV)
  ---------------------------------------------------
  alpha Z        PSCENC =        99.36980874
  Ewald energy   TEWEN  =     37305.00826340
  -Hartree energ DENC   =    -45124.12713461
  -exchange      EXHF   =       530.44995016
  -V(xc)+E(xc)   XCENC  =       573.98469686
  PAW double counting   =     25596.82711540   -25600.20595565
  entropy T*S    EENTRO =        -0.05016276
  eigenvalues    EBANDS =     -3041.98853219
  atomic energy  EATOM  =      9054.99806466
  ---------------------------------------------------
  free energy    TOTEN  =      -605.73448547 eV

  energy without entropy =     -605.68432271  energy(sigma->0) =     -605.70940409
  exchange ACFDT corr.  =        -0.22839100  see jH, gK, PRB 81, 115126


--------------------------------------------------------------------------------------------------------




--------------------------------------- Iteration      1(   2)  ---------------------------------------


    POTLOK:  cpu time    1.4058: real time    1.4059
    SETDIJ:  cpu time    2.0934: real time    2.0934
    TRIAL :  cpu time  499.0342: real time  499.0523
    CORREC:  cpu time    0.0020: real time    0.0022
    CHARGE:  cpu time    1.6380: real time    1.6380
    --------------------------------------------
      LOOP:  cpu time  504.1760: real time  504.1942

 eigenvalue-minimisations  :     0
 total energy-change (2. order) :-0.3390572E+00  (-0.3615475E+00)
 number of electron     238.0000013 magnetization      -0.7218752
 augmentation part       10.7113524 magnetization      -1.0285024

 DIPCOR: dipole corrections for dipol
 direction  3 min pos     1,
 dipolmoment           0.000228      0.000021     -0.081324 electrons x Angstroem
 Tr[quadrupol]     -6216.693262

 energy correction for charged system         0.000000 eV
 dipol+quadrupol energy correction           -0.000189 eV
 added-field ion interaction         -0.013009 eV  (added to PSCEN)


 Free energy of the ion-electron system (eV)
  ---------------------------------------------------
  alpha Z        PSCENC =        99.36867506
  Ewald energy   TEWEN  =     37305.00826340
  -Hartree energ DENC   =    -45108.69553042
  -exchange      EXHF   =       530.29748526
  -V(xc)+E(xc)   XCENC  =       573.65477371
  PAW double counting   =     25718.79176749   -25721.75554883
  entropy T*S    EENTRO =        -0.04835111
  eigenvalues    EBANDS =     -3057.69133022
  atomic energy  EATOM  =      9054.99806466
  ---------------------------------------------------
  free energy    TOTEN  =      -606.07354265 eV

  energy without entropy =     -606.02519153  energy(sigma->0) =     -606.04936709
  exchange ACFDT corr.  =        -0.22211462  see jH, gK, PRB 81, 115126


--------------------------------------------------------------------------------------------------------




--------------------------------------- Iteration      1(   3)  ---------------------------------------


    POTLOK:  cpu time    1.4148: real time    1.4148
    SETDIJ:  cpu time    2.0905: real time    2.0904
    TRIAL :  cpu time  498.2539: real time  498.3029
    CORREC:  cpu time    0.0022: real time    0.0024
    CHARGE:  cpu time    1.6323: real time    1.6323
    --------------------------------------------
      LOOP:  cpu time  503.3965: real time  503.4457

 eigenvalue-minimisations  :     0
 total energy-change (2. order) :-0.2816891E+00  (-0.2186684E+00)
 number of electron     238.0000013 magnetization      -0.6447283
 augmentation part       10.6982573 magnetization      -1.0440383

 DIPCOR: dipole corrections for dipol
 direction  3 min pos     1,
 dipolmoment           0.000197      0.000018     -0.070282 electrons x Angstroem
 Tr[quadrupol]     -6216.487150

 energy correction for charged system         0.000000 eV
 dipol+quadrupol energy correction           -0.000141 eV
 added-field ion interaction         -0.011243 eV  (added to PSCEN)


 Free energy of the ion-electron system (eV)
  ---------------------------------------------------
  alpha Z        PSCENC =        99.37048942
  Ewald energy   TEWEN  =     37305.00826340
  -Hartree energ DENC   =    -45092.02620562
  -exchange      EXHF   =       530.18114285
  -V(xc)+E(xc)   XCENC  =       573.28384488
  PAW double counting   =     25876.21284196   -25878.92352520
  entropy T*S    EENTRO =        -0.04575356
  eigenvalues    EBANDS =     -3074.41179701
  atomic energy  EATOM  =      9054.99806466
  ---------------------------------------------------
  free energy    TOTEN  =      -606.35523177 eV

  energy without entropy =     -606.30947821  energy(sigma->0) =     -606.33235499
  exchange ACFDT corr.  =        -0.20653682  see jH, gK, PRB 81, 115126


--------------------------------------------------------------------------------------------------------




--------------------------------------- Iteration      1(   4)  ---------------------------------------


    POTLOK:  cpu time    1.4126: real time    1.4125
    SETDIJ:  cpu time    2.0941: real time    2.0941
    TRIAL :  cpu time  497.3768: real time  497.4013
    CORREC:  cpu time    0.0020: real time    0.0022
    CHARGE:  cpu time    1.6320: real time    1.6320
    --------------------------------------------
      LOOP:  cpu time  502.5199: real time  502.5445

 eigenvalue-minimisations  :     0
 total energy-change (2. order) :-0.1714625E+00  (-0.1398411E+00)
 number of electron     238.0000013 magnetization      -0.5644391
 augmentation part       10.7028178 magnetization      -1.0462048

 DIPCOR: dipole corrections for dipol
 direction  3 min pos     1,
 dipolmoment           0.000128      0.000012     -0.045409 electrons x Angstroem
 Tr[quadrupol]     -6216.402515

 energy correction for charged system         0.000000 eV
 dipol+quadrupol energy correction           -0.000059 eV
 added-field ion interaction         -0.007264 eV  (added to PSCEN)


 Free energy of the ion-electron system (eV)
  ---------------------------------------------------
  alpha Z        PSCENC =        99.37455064
  Ewald energy   TEWEN  =     37305.00826340
  -Hartree energ DENC   =    -45083.27018071
  -exchange      EXHF   =       530.25381143
  -V(xc)+E(xc)   XCENC  =       573.09446727
  PAW double counting   =     26011.90469750   -26014.52886356
  entropy T*S    EENTRO =        -0.04263004
  eigenvalues    EBANDS =     -3083.31575133
  atomic energy  EATOM  =      9054.99806466
  ---------------------------------------------------
  free energy    TOTEN  =      -606.52669426 eV

  energy without entropy =     -606.48406422  energy(sigma->0) =     -606.50537924
  exchange ACFDT corr.  =        -0.18407050  see jH, gK, PRB 81, 115126


--------------------------------------------------------------------------------------------------------




--------------------------------------- Iteration      1(   5)  ---------------------------------------


    POTLOK:  cpu time    1.4182: real time    1.4181
    SETDIJ:  cpu time    2.0909: real time    2.0909
    TRIAL :  cpu time  495.5271: real time  495.5464
    CORREC:  cpu time    0.0022: real time    0.0024
    CHARGE:  cpu time    1.6301: real time    1.6300
    --------------------------------------------
      LOOP:  cpu time  500.6711: real time  500.6905

 eigenvalue-minimisations  :     0
 total energy-change (2. order) :-0.1170072E+00  (-0.1073101E+00)
 number of electron     238.0000013 magnetization      -0.4790881
 augmentation part       10.7126966 magnetization      -1.0383937

 DIPCOR: dipole corrections for dipol
 direction  3 min pos     1,
 dipolmoment           0.000095      0.000009     -0.033860 electrons x Angstroem
 Tr[quadrupol]     -6216.428553

 energy correction for charged system         0.000000 eV
 dipol+quadrupol energy correction           -0.000033 eV
 added-field ion interaction         -0.005417 eV  (added to PSCEN)


 Free energy of the ion-electron system (eV)
  ---------------------------------------------------
  alpha Z        PSCENC =        99.37642426
  Ewald energy   TEWEN  =     37305.00826340
  -Hartree energ DENC   =    -45083.40160466
  -exchange      EXHF   =       530.50623408
  -V(xc)+E(xc)   XCENC  =       573.12189659
  PAW double counting   =     26109.54140364   -26112.21500706
  entropy T*S    EENTRO =        -0.03888428
  eigenvalues    EBANDS =     -3083.53674638
  atomic energy  EATOM  =      9054.99806466
  ---------------------------------------------------
  free energy    TOTEN  =      -606.64370150 eV

  energy without entropy =     -606.60481723  energy(sigma->0) =     -606.62425937
  exchange ACFDT corr.  =        -0.15763172  see jH, gK, PRB 81, 115126


--------------------------------------------------------------------------------------------------------




--------------------------------------- Iteration      1(   6)  ---------------------------------------


    POTLOK:  cpu time    1.4114: real time    1.4113
    SETDIJ:  cpu time    2.0907: real time    2.0906
    TRIAL :  cpu time  496.3001: real time  496.3235
    CORREC:  cpu time    0.0020: real time    0.0022
    CHARGE:  cpu time    1.6285: real time    1.6285
    --------------------------------------------
      LOOP:  cpu time  501.4354: real time  501.4588

 eigenvalue-minimisations  :     0
 total energy-change (2. order) :-0.9415839E-01  (-0.8875326E-01)
 number of electron     238.0000013 magnetization      -0.3871928
 augmentation part       10.7210022 magnetization      -1.0238131

 DIPCOR: dipole corrections for dipol
 direction  3 min pos     1,
 dipolmoment           0.000103      0.000009     -0.036621 electrons x Angstroem
 Tr[quadrupol]     -6216.495321

 energy correction for charged system         0.000000 eV
 dipol+quadrupol energy correction           -0.000038 eV
 added-field ion interaction         -0.005858 eV  (added to PSCEN)


 Free energy of the ion-electron system (eV)
  ---------------------------------------------------
  alpha Z        PSCENC =        99.37597698
  Ewald energy   TEWEN  =     37305.00826340
  -Hartree energ DENC   =    -45087.75818225
  -exchange      EXHF   =       530.82323420
  -V(xc)+E(xc)   XCENC  =       573.25721713
  PAW double counting   =     26172.06140606   -26174.81912362
  entropy T*S    EENTRO =        -0.03427234
  eigenvalues    EBANDS =     -3079.64583218
  atomic energy  EATOM  =      9054.99806466
  ---------------------------------------------------
  free energy    TOTEN  =      -606.73785989 eV

  energy without entropy =     -606.70358756  energy(sigma->0) =     -606.72072373
  exchange ACFDT corr.  =        -0.12858064  see jH, gK, PRB 81, 115126


--------------------------------------------------------------------------------------------------------




--------------------------------------- Iteration      1(   7)  ---------------------------------------


    POTLOK:  cpu time    1.4130: real time    1.4130
    SETDIJ:  cpu time    2.0888: real time    2.0888
    TRIAL :  cpu time  496.1616: real time  496.1819
    CORREC:  cpu time    0.0022: real time    0.0024
    CHARGE:  cpu time    1.6313: real time    1.6314
    --------------------------------------------
      LOOP:  cpu time  501.2994: real time  501.3199

 eigenvalue-minimisations  :     0
 total energy-change (2. order) :-0.7962956E-01  (-0.7590950E-01)
 number of electron     238.0000012 magnetization      -0.2916121
 augmentation part       10.7269032 magnetization      -1.0057251

 DIPCOR: dipole corrections for dipol
 direction  3 min pos     1,
 dipolmoment           0.000118      0.000011     -0.041936 electrons x Angstroem
 Tr[quadrupol]     -6216.553449

 energy correction for charged system         0.000000 eV
 dipol+quadrupol energy correction           -0.000050 eV
 added-field ion interaction         -0.006708 eV  (added to PSCEN)


 Free energy of the ion-electron system (eV)
  ---------------------------------------------------
  alpha Z        PSCENC =        99.37511483
  Ewald energy   TEWEN  =     37305.00826340
  -Hartree energ DENC   =    -45092.19142658
  -exchange      EXHF   =       531.11022392
  -V(xc)+E(xc)   XCENC  =       573.39609716
  PAW double counting   =     26208.31915064   -26211.12451663
  entropy T*S    EENTRO =        -0.02862912
  eigenvalues    EBANDS =     -3075.67418853
  atomic energy  EATOM  =      9054.99806466
  ---------------------------------------------------
  free energy    TOTEN  =      -606.81748946 eV

  energy without entropy =     -606.78886034  energy(sigma->0) =     -606.80317490
  exchange ACFDT corr.  =        -0.09784530  see jH, gK, PRB 81, 115126


--------------------------------------------------------------------------------------------------------




--------------------------------------- Iteration      1(   8)  ---------------------------------------


    POTLOK:  cpu time    1.4095: real time    1.4095
    SETDIJ:  cpu time    2.0890: real time    2.0891
    TRIAL :  cpu time  495.9848: real time  496.0077
    CORREC:  cpu time    0.0022: real time    0.0024
    CHARGE:  cpu time    1.6367: real time    1.6366
    --------------------------------------------
      LOOP:  cpu time  501.1243: real time  501.1473

 eigenvalue-minimisations  :     0
 total energy-change (2. order) :-0.6868137E-01  (-0.6572957E-01)
 number of electron     238.0000012 magnetization      -0.2017592
 augmentation part       10.7308918 magnetization      -0.9885465

 DIPCOR: dipole corrections for dipol
 direction  3 min pos     1,
 dipolmoment           0.000121      0.000011     -0.043233 electrons x Angstroem
 Tr[quadrupol]     -6216.587228

 energy correction for charged system         0.000000 eV
 dipol+quadrupol energy correction           -0.000053 eV
 added-field ion interaction         -0.006916 eV  (added to PSCEN)


 Free energy of the ion-electron system (eV)
  ---------------------------------------------------
  alpha Z        PSCENC =        99.37490420
  Ewald energy   TEWEN  =     37305.00826340
  -Hartree energ DENC   =    -45095.03660957
  -exchange      EXHF   =       531.33169663
  -V(xc)+E(xc)   XCENC  =       573.49370063
  PAW double counting   =     26227.04356003   -26229.86278793
  entropy T*S    EENTRO =        -0.02225228
  eigenvalues    EBANDS =     -3073.20833375
  atomic energy  EATOM  =      9054.99806466
  ---------------------------------------------------
  free energy    TOTEN  =      -606.88617082 eV

  energy without entropy =     -606.86391854  energy(sigma->0) =     -606.87504468
  exchange ACFDT corr.  =        -0.06752954  see jH, gK, PRB 81, 115126


--------------------------------------------------------------------------------------------------------




--------------------------------------- Iteration      1(   9)  ---------------------------------------


    POTLOK:  cpu time    1.4082: real time    1.4083
    SETDIJ:  cpu time    2.0868: real time    2.0867
    TRIAL :  cpu time  496.7870: real time  496.8112
    CORREC:  cpu time    0.0021: real time    0.0021
    CHARGE:  cpu time    1.6252: real time    1.6252
    --------------------------------------------
      LOOP:  cpu time  501.9114: real time  501.9357

 eigenvalue-minimisations  :     0
 total energy-change (2. order) :-0.5891267E-01  (-0.5504575E-01)
 number of electron     238.0000012 magnetization      -0.1280324
 augmentation part       10.7333841 magnetization      -0.9760511

 DIPCOR: dipole corrections for dipol
 direction  3 min pos     1,
 dipolmoment           0.000111      0.000010     -0.039672 electrons x Angstroem
 Tr[quadrupol]     -6216.601228

 energy correction for charged system         0.000000 eV
 dipol+quadrupol energy correction           -0.000045 eV
 added-field ion interaction         -0.006346 eV  (added to PSCEN)


 Free energy of the ion-electron system (eV)
  ---------------------------------------------------
  alpha Z        PSCENC =        99.37548236
  Ewald energy   TEWEN  =     37305.00826340
  -Hartree energ DENC   =    -45096.33927943
  -exchange      EXHF   =       531.49157199
  -V(xc)+E(xc)   XCENC  =       573.55001712
  PAW double counting   =     26235.45377520   -26238.27663265
  entropy T*S    EENTRO =        -0.01593777
  eigenvalues    EBANDS =     -3072.18409387
  atomic energy  EATOM  =      9054.99806466
  ---------------------------------------------------
  free energy    TOTEN  =      -606.94508350 eV

  energy without entropy =     -606.92914573  energy(sigma->0) =     -606.93711461
  exchange ACFDT corr.  =        -0.04139901  see jH, gK, PRB 81, 115126


--------------------------------------------------------------------------------------------------------




--------------------------------------- Iteration      1(  10)  ---------------------------------------


    POTLOK:  cpu time    1.4062: real time    1.4061
    SETDIJ:  cpu time    2.0884: real time    2.0883
    TRIAL :  cpu time  496.3332: real time  496.3593
    CORREC:  cpu time    0.0022: real time    0.0024
    CHARGE:  cpu time    1.6255: real time    1.6254
    --------------------------------------------
      LOOP:  cpu time  501.4577: real time  501.4839

 eigenvalue-minimisations  :     0
 total energy-change (2. order) :-0.4830015E-01  (-0.4314458E-01)
 number of electron     238.0000012 magnetization      -0.0755798
 augmentation part       10.7350039 magnetization      -0.9693235

 DIPCOR: dipole corrections for dipol
 direction  3 min pos     1,
 dipolmoment           0.000094      0.000009     -0.033651 electrons x Angstroem
 Tr[quadrupol]     -6216.605852

 energy correction for charged system         0.000000 eV
 dipol+quadrupol energy correction           -0.000032 eV
 added-field ion interaction         -0.005383 eV  (added to PSCEN)


 Free energy of the ion-electron system (eV)
  ---------------------------------------------------
  alpha Z        PSCENC =        99.37645816
  Ewald energy   TEWEN  =     37305.00826340
  -Hartree energ DENC   =    -45096.75928315
  -exchange      EXHF   =       531.60733782
  -V(xc)+E(xc)   XCENC  =       573.58180923
  PAW double counting   =     26238.53742684   -26241.37128050
  entropy T*S    EENTRO =        -0.01057666
  eigenvalues    EBANDS =     -3071.95624234
  atomic energy  EATOM  =      9054.99806466
  ---------------------------------------------------
  free energy    TOTEN  =      -606.99338365 eV

  energy without entropy =     -606.98280699  energy(sigma->0) =     -606.98809532
  exchange ACFDT corr.  =        -0.02254852  see jH, gK, PRB 81, 115126


--------------------------------------------------------------------------------------------------------




--------------------------------------- Iteration      1(  11)  ---------------------------------------


    POTLOK:  cpu time    1.4058: real time    1.4057
    SETDIJ:  cpu time    2.0891: real time    2.0890
    TRIAL :  cpu time  496.3897: real time  496.4078
    CORREC:  cpu time    0.0021: real time    0.0023
    CHARGE:  cpu time    1.6240: real time    1.6240
    --------------------------------------------
      LOOP:  cpu time  501.5133: real time  501.5315

 eigenvalue-minimisations  :     0
 total energy-change (2. order) :-0.3718648E-01  (-0.3183868E-01)
 number of electron     238.0000012 magnetization      -0.0427968
 augmentation part       10.7364140 magnetization      -0.9669894

 DIPCOR: dipole corrections for dipol
 direction  3 min pos     1,
 dipolmoment           0.000080      0.000007     -0.028575 electrons x Angstroem
 Tr[quadrupol]     -6216.609091

 energy correction for charged system         0.000000 eV
 dipol+quadrupol energy correction           -0.000023 eV
 added-field ion interaction         -0.004571 eV  (added to PSCEN)


 Free energy of the ion-electron system (eV)
  ---------------------------------------------------
  alpha Z        PSCENC =        99.37727916
  Ewald energy   TEWEN  =     37305.00826340
  -Hartree energ DENC   =    -45096.90960210
  -exchange      EXHF   =       531.69538459
  -V(xc)+E(xc)   XCENC  =       573.60413039
  PAW double counting   =     26239.31004207   -26242.16982330
  entropy T*S    EENTRO =        -0.00665823
  eigenvalues    EBANDS =     -3071.93373237
  atomic energy  EATOM  =      9054.99806466
  ---------------------------------------------------
  free energy    TOTEN  =      -607.03057013 eV

  energy without entropy =     -607.02391189  energy(sigma->0) =     -607.02724101
  exchange ACFDT corr.  =        -0.01123625  see jH, gK, PRB 81, 115126


--------------------------------------------------------------------------------------------------------




--------------------------------------- Iteration      1(  12)  ---------------------------------------


    POTLOK:  cpu time    1.4328: real time    1.4328
    SETDIJ:  cpu time    2.0876: real time    2.0876
    TRIAL :  cpu time  495.9952: real time  496.0180
    CORREC:  cpu time    0.0019: real time    0.0021
    CHARGE:  cpu time    1.6267: real time    1.6267
    --------------------------------------------
      LOOP:  cpu time  501.1464: real time  501.1694

 eigenvalue-minimisations  :     0
 total energy-change (2. order) :-0.2745194E-01  (-0.2304942E-01)
 number of electron     238.0000012 magnetization      -0.0241670
 augmentation part       10.7378486 magnetization      -0.9669361

 DIPCOR: dipole corrections for dipol
 direction  3 min pos     1,
 dipolmoment           0.000074      0.000007     -0.026278 electrons x Angstroem
 Tr[quadrupol]     -6216.613954

 energy correction for charged system         0.000000 eV
 dipol+quadrupol energy correction           -0.000020 eV
 added-field ion interaction         -0.004204 eV  (added to PSCEN)


 Free energy of the ion-electron system (eV)
  ---------------------------------------------------
  alpha Z        PSCENC =        99.37765013
  Ewald energy   TEWEN  =     37305.00826340
  -Hartree energ DENC   =    -45097.09218602
  -exchange      EXHF   =       531.76606097
  -V(xc)+E(xc)   XCENC  =       573.62386581
  PAW double counting   =     26239.45277890   -26242.35164340
  entropy T*S    EENTRO =        -0.00411667
  eigenvalues    EBANDS =     -3071.83421829
  atomic energy  EATOM  =      9054.99806466
  ---------------------------------------------------
  free energy    TOTEN  =      -607.05802206 eV

  energy without entropy =     -607.05390540  energy(sigma->0) =     -607.05596373
  exchange ACFDT corr.  =        -0.00541476  see jH, gK, PRB 81, 115126


--------------------------------------------------------------------------------------------------------




--------------------------------------- Iteration      1(  13)  ---------------------------------------


    POTLOK:  cpu time    1.4045: real time    1.4045
    SETDIJ:  cpu time    2.0895: real time    2.0895
    TRIAL :  cpu time  495.7688: real time  495.7932
    CORREC:  cpu time    0.0019: real time    0.0021
    CHARGE:  cpu time    1.6269: real time    1.6269
    --------------------------------------------
      LOOP:  cpu time  500.8939: real time  500.9183

 eigenvalue-minimisations  :     0
 total energy-change (2. order) :-0.2025205E-01  (-0.1704379E-01)
 number of electron     238.0000012 magnetization      -0.0140646
 augmentation part       10.7391061 magnetization      -0.9676294

 DIPCOR: dipole corrections for dipol
 direction  3 min pos     1,
 dipolmoment           0.000073      0.000007     -0.026119 electrons x Angstroem
 Tr[quadrupol]     -6216.620139

 energy correction for charged system         0.000000 eV
 dipol+quadrupol energy correction           -0.000020 eV
 added-field ion interaction         -0.004178 eV  (added to PSCEN)


 Free energy of the ion-electron system (eV)
  ---------------------------------------------------
  alpha Z        PSCENC =        99.37767583
  Ewald energy   TEWEN  =     37305.00826340
  -Hartree energ DENC   =    -45097.34344654
  -exchange      EXHF   =       531.82449217
  -V(xc)+E(xc)   XCENC  =       573.64173772
  PAW double counting   =     26239.82821081   -26242.76995287
  entropy T*S    EENTRO =        -0.00258162
  eigenvalues    EBANDS =     -3071.63920262
  atomic energy  EATOM  =      9054.99806466
  ---------------------------------------------------
  free energy    TOTEN  =      -607.07827412 eV

  energy without entropy =     -607.07569250  energy(sigma->0) =     -607.07698331
  exchange ACFDT corr.  =        -0.00267957  see jH, gK, PRB 81, 115126


--------------------------------------------------------------------------------------------------------




--------------------------------------- Iteration      1(  14)  ---------------------------------------


    POTLOK:  cpu time    1.4004: real time    1.4005
    SETDIJ:  cpu time    2.0907: real time    2.0907
    TRIAL :  cpu time  495.8477: real time  495.8785
    CORREC:  cpu time    0.0019: real time    0.0021
    CHARGE:  cpu time    1.6333: real time    1.6332
    --------------------------------------------
      LOOP:  cpu time  500.9760: real time  501.0070

 eigenvalue-minimisations  :     0
 total energy-change (2. order) :-0.1532468E-01  (-0.1300489E-01)
 number of electron     238.0000012 magnetization      -0.0085994
 augmentation part       10.7399963 magnetization      -0.9683717

 DIPCOR: dipole corrections for dipol
 direction  3 min pos     1,
 dipolmoment           0.000074      0.000007     -0.026358 electrons x Angstroem
 Tr[quadrupol]     -6216.626553

 energy correction for charged system         0.000000 eV
 dipol+quadrupol energy correction           -0.000020 eV
 added-field ion interaction         -0.004216 eV  (added to PSCEN)


 Free energy of the ion-electron system (eV)
  ---------------------------------------------------
  alpha Z        PSCENC =        99.37763724
  Ewald energy   TEWEN  =     37305.00826340
  -Hartree energ DENC   =    -45097.60332626
  -exchange      EXHF   =       531.87332155
  -V(xc)+E(xc)   XCENC  =       573.65679953
  PAW double counting   =     26240.71819923   -26243.69569955
  entropy T*S    EENTRO =        -0.00167666
  eigenvalues    EBANDS =     -3071.42427698
  atomic energy  EATOM  =      9054.99806466
  ---------------------------------------------------
  free energy    TOTEN  =      -607.09359880 eV

  energy without entropy =     -607.09192213  energy(sigma->0) =     -607.09276047
  exchange ACFDT corr.  =        -0.00141666  see jH, gK, PRB 81, 115126


--------------------------------------------------------------------------------------------------------




--------------------------------------- Iteration      1(  15)  ---------------------------------------


    POTLOK:  cpu time    1.3962: real time    1.3963
    SETDIJ:  cpu time    2.0885: real time    2.0885
    TRIAL :  cpu time  496.0095: real time  496.0392
    CORREC:  cpu time    0.0018: real time    0.0020
    CHARGE:  cpu time    1.6370: real time    1.6370
    --------------------------------------------
      LOOP:  cpu time  501.1352: real time  501.1652

 eigenvalue-minimisations  :     0
 total energy-change (2. order) :-0.1189334E-01  (-0.1014432E-01)
 number of electron     238.0000012 magnetization      -0.0055635
 augmentation part       10.7406607 magnetization      -0.9690884

 DIPCOR: dipole corrections for dipol
 direction  3 min pos     1,
 dipolmoment           0.000073      0.000007     -0.026066 electrons x Angstroem
 Tr[quadrupol]     -6216.632441

 energy correction for charged system         0.000000 eV
 dipol+quadrupol energy correction           -0.000019 eV
 added-field ion interaction         -0.004170 eV  (added to PSCEN)


 Free energy of the ion-electron system (eV)
  ---------------------------------------------------
  alpha Z        PSCENC =        99.37768448
  Ewald energy   TEWEN  =     37305.00826340
  -Hartree energ DENC   =    -45097.83148948
  -exchange      EXHF   =       531.91468664
  -V(xc)+E(xc)   XCENC  =       573.66905923
  PAW double counting   =     26242.05455486   -26245.05597749
  entropy T*S    EENTRO =        -0.00113863
  eigenvalues    EBANDS =     -3071.23866177
  atomic energy  EATOM  =      9054.99806466
  ---------------------------------------------------
  free energy    TOTEN  =      -607.10549213 eV

  energy without entropy =     -607.10435350  energy(sigma->0) =     -607.10492282
  exchange ACFDT corr.  =        -0.00081120  see jH, gK, PRB 81, 115126


--------------------------------------------------------------------------------------------------------




--------------------------------------- Iteration      1(  16)  ---------------------------------------


    POTLOK:  cpu time    1.3970: real time    1.3971
    SETDIJ:  cpu time    2.0850: real time    2.0849
    TRIAL :  cpu time  496.4080: real time  496.4344
    CORREC:  cpu time    0.0017: real time    0.0019
    CHARGE:  cpu time    1.6287: real time    1.6287
    --------------------------------------------
      LOOP:  cpu time  501.5225: real time  501.5491

 eigenvalue-minimisations  :     0
 total energy-change (2. order) :-0.9377289E-02  (-0.8026646E-02)
 number of electron     238.0000012 magnetization      -0.0038096
 augmentation part       10.7413231 magnetization      -0.9699044

 DIPCOR: dipole corrections for dipol
 direction  3 min pos     1,
 dipolmoment           0.000072      0.000007     -0.025529 electrons x Angstroem
 Tr[quadrupol]     -6216.637437

 energy correction for charged system         0.000000 eV
 dipol+quadrupol energy correction           -0.000019 eV
 added-field ion interaction         -0.004084 eV  (added to PSCEN)


 Free energy of the ion-electron system (eV)
  ---------------------------------------------------
  alpha Z        PSCENC =        99.37777103
  Ewald energy   TEWEN  =     37305.00826340
  -Hartree energ DENC   =    -45098.02931180
  -exchange      EXHF   =       531.95056637
  -V(xc)+E(xc)   XCENC  =       573.67956384
  PAW double counting   =     26243.61383667   -26246.63144860
  entropy T*S    EENTRO =        -0.00081064
  eigenvalues    EBANDS =     -3071.08103636
  atomic energy  EATOM  =      9054.99806466
  ---------------------------------------------------
  free energy    TOTEN  =      -607.11486942 eV

  energy without entropy =     -607.11405879  energy(sigma->0) =     -607.11446410
  exchange ACFDT corr.  =        -0.00050216  see jH, gK, PRB 81, 115126


--------------------------------------------------------------------------------------------------------




--------------------------------------- Iteration      1(  17)  ---------------------------------------


    POTLOK:  cpu time    1.3946: real time    1.3946
    SETDIJ:  cpu time    2.0847: real time    2.0846
    TRIAL :  cpu time  495.9173: real time  495.9466
    CORREC:  cpu time    0.0019: real time    0.0021
    CHARGE:  cpu time    1.6278: real time    1.6279
    --------------------------------------------
      LOOP:  cpu time  501.0285: real time  501.0580

 eigenvalue-minimisations  :     0
 total energy-change (2. order) :-0.7474321E-02  (-0.6416297E-02)
 number of electron     238.0000012 magnetization      -0.0027525
 augmentation part       10.7419845 magnetization      -0.9708394

 DIPCOR: dipole corrections for dipol
 direction  3 min pos     1,
 dipolmoment           0.000071      0.000006     -0.025262 electrons x Angstroem
 Tr[quadrupol]     -6216.641452

 energy correction for charged system         0.000000 eV
 dipol+quadrupol energy correction           -0.000018 eV
 added-field ion interaction         -0.004041 eV  (added to PSCEN)


 Free energy of the ion-electron system (eV)
  ---------------------------------------------------
  alpha Z        PSCENC =        99.37781425
  Ewald energy   TEWEN  =     37305.00826340
  -Hartree energ DENC   =    -45098.20593710
  -exchange      EXHF   =       531.98219861
  -V(xc)+E(xc)   XCENC  =       573.68913865
  PAW double counting   =     26245.18508996   -26248.21707064
  entropy T*S    EENTRO =        -0.00060433
  eigenvalues    EBANDS =     -3070.93909490
  atomic energy  EATOM  =      9054.99806466
  ---------------------------------------------------
  free energy    TOTEN  =      -607.12234374 eV

  energy without entropy =     -607.12173942  energy(sigma->0) =     -607.12204158
  exchange ACFDT corr.  =        -0.00033362  see jH, gK, PRB 81, 115126


--------------------------------------------------------------------------------------------------------




--------------------------------------- Iteration      1(  18)  ---------------------------------------


    POTLOK:  cpu time    1.3895: real time    1.3895
    SETDIJ:  cpu time    2.0862: real time    2.0862
    TRIAL :  cpu time  496.5808: real time  496.6078
    CORREC:  cpu time    0.0020: real time    0.0022
    CHARGE:  cpu time    1.6273: real time    1.6273
    --------------------------------------------
      LOOP:  cpu time  501.6880: real time  501.7151

 eigenvalue-minimisations  :     0
 total energy-change (2. order) :-0.6007253E-02  (-0.5175108E-02)
 number of electron     238.0000012 magnetization      -0.0020881
 augmentation part       10.7425493 magnetization      -0.9718154

 DIPCOR: dipole corrections for dipol
 direction  3 min pos     1,
 dipolmoment           0.000071      0.000006     -0.025303 electrons x Angstroem
 Tr[quadrupol]     -6216.644587

 energy correction for charged system         0.000000 eV
 dipol+quadrupol energy correction           -0.000018 eV
 added-field ion interaction         -0.004048 eV  (added to PSCEN)


 Free energy of the ion-electron system (eV)
  ---------------------------------------------------
  alpha Z        PSCENC =        99.37780762
  Ewald energy   TEWEN  =     37305.00826340
  -Hartree energ DENC   =    -45098.35612558
  -exchange      EXHF   =       532.00995082
  -V(xc)+E(xc)   XCENC  =       573.69777660
  PAW double counting   =     26246.64364071   -26249.68936180
  entropy T*S    EENTRO =        -0.00047018
  eigenvalues    EBANDS =     -3070.81776311
  atomic energy  EATOM  =      9054.99806466
  ---------------------------------------------------
[...]
  augment    21.66518    20.27080    20.44997     0.71998     1.13587     0.96826
  Kinetic  3506.95922  3504.86164  3958.95849    13.92795    -1.27290     1.22548
  Fock     -283.39385  -282.35395  -256.88996    -0.06387    -1.35383    -1.50714
  -------------------------------------------------------------------------------------
  Total     -22.77678   -47.00832    -0.59954     3.02679    -0.66870     0.38348
  in kB     -11.48684   -23.70735    -0.30236     1.52648    -0.33724     0.19340
  external pressure =      -11.83 kB  Pullay stress =        0.00 kB


 VOLUME and BASIS-vectors are now :
 -----------------------------------------------------------------------------
  energy-cutoff  :      500.00
  volume of cell :     3176.89
      direct lattice vectors                 reciprocal lattice vectors
    12.697700000  0.000000000  0.000000000     0.078754420 -0.000636556  0.000220998
     0.101231286 12.524290891  0.000000000     0.000000000  0.079844840  0.000020485
    -0.056099471 -0.005125317 19.976720572     0.000000000  0.000000000  0.050058266

  length of vectors
    12.697700000 12.524700000 19.976800000     0.078757303  0.079844842  0.050058266


 FORCES acting on ions:
    Electron-Ion                     Ewald-Force                    Non-Local-Force
 -----------------------------------------------------------------------------------------------
   0.209E+00 0.109E+01 -.142E+02   -.431E+00 -.150E+01 0.141E+02   0.175E+00 0.305E+00 -.115E-02
   -.215E+00 -.234E+01 -.676E+01   0.283E-01 0.246E+01 0.674E+01   0.116E+00 -.149E+00 0.612E-02
   0.733E+01 -.219E+01 -.961E+01   -.747E+01 0.222E+01 0.959E+01   0.168E+00 -.941E-02 0.518E-02
   0.337E+01 0.710E-01 -.185E+02   -.359E+01 -.175E+00 0.185E+02   0.263E+00 0.180E+00 -.265E-01
   0.437E+01 -.615E+01 -.191E+02   -.490E+01 0.625E+01 0.193E+02   0.481E+00 -.189E+00 -.170E+00
   0.155E+01 -.851E+01 -.502E+01   -.146E+01 0.915E+01 0.515E+01   -.148E+00 -.644E+00 -.106E+00
   0.763E+01 -.601E+01 -.800E+01   -.800E+01 0.642E+01 0.782E+01   0.405E+00 -.358E+00 0.160E+00
   0.119E+02 -.193E+02 -.164E+02   -.166E+02 0.206E+02 0.161E+02   0.444E+01 -.140E+01 0.228E+00
   -.795E+01 0.164E+01 0.103E+02   0.848E+01 -.187E+01 -.106E+02   -.678E+00 0.177E+00 0.271E+00
   0.382E+00 -.959E+01 0.892E+01   0.723E+00 0.969E+01 -.886E+01   -.908E+00 -.232E+00 -.291E-01
   -.478E+01 0.894E+01 -.634E+01   0.498E+01 -.947E+01 0.642E+01   -.275E+00 0.486E+00 -.524E-01
   0.123E+01 0.125E+02 -.117E+01   -.271E+00 -.128E+02 0.105E+01   -.721E+00 0.484E+00 0.105E+00
   -.953E+00 0.488E+01 -.106E+02   0.526E+00 -.585E+01 0.109E+02   0.108E+00 0.845E+00 -.301E+00
   -.133E+01 0.382E+01 -.111E+02   0.140E+01 -.423E+01 0.111E+02   -.101E+00 0.364E+00 -.669E-01
   -.372E+01 0.261E+01 -.717E+01   0.361E+01 -.271E+01 0.716E+01   0.247E-01 0.131E+00 -.770E-02
   0.677E+01 0.398E+01 -.886E+01   -.671E+01 -.426E+01 0.879E+01   0.145E-01 0.243E+00 0.456E-01
   0.230E+01 0.237E+01 -.118E+02   -.232E+01 -.249E+01 0.118E+02   0.359E-01 0.209E+00 0.365E-02
   -.459E+01 -.691E+01 -.881E+01   0.481E+01 0.707E+01 0.875E+01   -.200E+00 -.197E+00 0.439E-01
   -.714E+01 -.210E+00 -.174E+02   0.719E+01 -.407E+00 0.173E+02   -.116E+00 0.514E+00 0.885E-01
   -.114E+01 -.172E+01 -.137E+02   0.140E+01 0.139E+01 0.137E+02   -.259E+00 0.292E+00 -.587E-01
   0.884E+00 -.115E+02 -.113E+02   -.101E+01 0.120E+02 0.112E+02   0.156E+00 -.443E+00 0.943E-01
   -.721E+01 -.295E+02 -.296E+02   0.922E+01 0.312E+02 0.297E+02   -.170E+01 -.168E+01 -.684E-01
   -.287E+02 -.194E+01 -.260E+02   0.314E+02 -.782E+00 0.259E+02   -.281E+01 0.296E+01 0.612E-01
   0.250E+02 0.300E+01 0.263E+02   -.279E+02 0.102E+01 -.277E+02   0.274E+01 -.387E+01 0.129E+01
   -.341E+01 0.125E+02 -.451E+01   0.381E+01 -.135E+02 0.519E+01   -.216E+00 0.862E+00 -.666E+00
   0.473E+01 0.400E+01 -.448E+01   -.476E+01 -.355E+01 0.474E+01   0.966E-01 -.356E+00 -.268E+00
   -.649E+00 0.144E+00 -.463E+01   0.334E+00 0.681E-03 0.461E+01   0.291E+00 -.212E+00 0.113E-01
   -.192E+01 0.207E+01 -.989E+01   0.196E+01 -.222E+01 0.984E+01   -.402E-01 0.192E+00 0.494E-01
   0.394E+01 0.509E+01 -.512E+01   -.429E+01 -.553E+01 0.515E+01   0.347E+00 0.394E+00 -.222E-01
   0.636E+00 -.116E+01 -.401E+01   -.594E+00 0.137E+01 0.400E+01   -.158E-01 -.134E+00 0.105E-01
   -.458E+01 -.222E+01 -.540E-01   0.452E+01 0.228E+01 0.539E-01   -.191E-01 -.662E-01 0.202E-01
   -.479E+01 -.104E+02 -.675E+01   0.473E+01 0.107E+02 0.683E+01   -.242E-02 -.312E+00 -.753E-01
   0.496E+01 -.636E+01 -.142E+01   -.494E+01 0.656E+01 0.142E+01   0.476E-01 -.196E+00 0.988E-02
   0.804E+01 -.680E+01 -.177E+01   -.810E+01 0.696E+01 0.174E+01   0.132E+00 -.153E+00 0.398E-01
   0.268E+01 -.628E+01 -.242E+01   -.289E+01 0.644E+01 0.238E+01   0.177E+00 -.156E+00 0.373E-01
   0.168E+02 -.174E+02 -.160E+02   -.188E+02 0.173E+02 0.161E+02   0.179E+01 -.844E-02 -.228E-01
   0.954E+01 -.149E+02 -.522E+01   -.995E+01 0.157E+02 0.515E+01   0.386E+00 -.699E+00 0.728E-01
   0.722E+01 -.471E+01 -.542E+01   -.708E+01 0.478E+01 0.551E+01   -.808E-01 -.112E+00 -.927E-01
   0.415E+01 0.127E-01 -.701E+00   -.445E+01 0.428E-01 0.664E+00   0.148E+00 -.876E-01 0.347E-01
   -.168E+02 0.275E+02 0.148E+02   0.208E+02 -.283E+02 -.145E+02   -.403E+01 0.748E+00 -.361E+00
   0.182E+02 0.110E+02 -.453E+01   -.185E+02 -.121E+02 0.478E+01   0.371E+00 0.111E+01 -.272E+00
   0.219E+01 0.665E+01 0.386E+01   -.161E+01 -.679E+01 -.391E+01   -.397E+00 0.187E+00 0.310E-01
   -.552E+01 0.645E+01 0.204E+01   0.588E+01 -.666E+01 -.201E+01   -.427E+00 0.217E+00 -.334E-01
   -.781E+01 0.406E+01 0.433E+01   0.799E+01 -.392E+01 -.432E+01   -.235E+00 -.139E+00 0.964E-02
   -.197E+01 0.831E+01 0.997E+01   0.263E+01 -.831E+01 -.100E+02   -.532E+00 0.116E-01 0.613E-01
   0.237E+01 0.442E+01 -.219E+01   -.211E+01 -.452E+01 0.223E+01   -.201E+00 0.131E+00 -.417E-01
   -.653E+01 0.402E+01 0.314E-02   0.663E+01 -.413E+01 -.618E-02   -.164E+00 0.737E-01 0.356E-02
   -.603E+01 -.163E+01 -.767E+00   0.608E+01 0.172E+01 0.792E+00   -.776E-01 -.936E-01 -.149E-01
   0.176E+01 -.534E+00 0.222E+01   -.152E+01 0.767E+00 -.223E+01   -.155E+00 -.186E+00 0.249E-01
   0.622E+01 -.176E+01 -.151E+01   -.615E+01 0.180E+01 0.150E+01   0.202E-01 -.295E-01 0.148E-01
   -.110E+02 -.321E+02 0.192E+02   0.140E+02 0.385E+02 -.210E+02   -.318E+01 -.664E+01 0.169E+01
   -.406E+01 0.364E+02 -.974E+01   0.634E+01 -.409E+02 0.951E+01   -.265E+01 0.470E+01 0.150E+00
   0.408E+02 -.812E+02 -.491E+02   -.462E+02 0.900E+02 0.500E+02   0.526E+01 -.875E+01 -.875E+00
   0.160E+02 0.656E+02 0.232E+02   -.207E+02 -.717E+02 -.242E+02   0.498E+01 0.602E+01 0.910E+00
   -.666E+02 -.106E+03 -.349E+02   0.765E+02 0.124E+03 0.345E+02   -.956E+01 -.171E+02 0.382E+00
   0.582E+02 0.106E+03 0.625E+02   -.682E+02 -.125E+03 -.667E+02   0.945E+01 0.175E+02 0.398E+01
   -.842E+02 0.483E+02 0.399E+03   0.787E+02 -.458E+02 -.390E+03   0.582E+01 -.203E+01 -.971E+01
   0.586E+01 0.647E+01 -.151E+03   -.327E+01 -.887E+01 0.148E+03   -.232E+01 0.213E+01 0.384E+01
 -----------------------------------------------------------------------------------------------
   -.633E+01 0.545E+01 -.774E+00   -.128E-12 -.121E-12 -.284E-13   0.623E+01 -.518E+01 0.443E+00
 
 
 POSITION                                       TOTAL-FORCE (eV/Angst)
 -----------------------------------------------------------------------------------
      2.88707     12.48678     10.06214        -0.041792     -0.078124     -0.007103
      0.67525      1.23405     10.03068        -0.072872     -0.037086     -0.009598
      1.47176     12.50092     10.04208         0.048490      0.012743     -0.009041
      3.49160      1.19443     10.08209         0.062757      0.088841     -0.008874
      2.80667      2.43729     10.05669        -0.026523     -0.098507     -0.021961
      0.71027      3.73701      9.98431        -0.072102     -0.039638      0.021606
      1.38911      2.47491     10.02344         0.060879      0.028164     -0.013576
      3.55324      3.65250     10.00974         0.049349     -0.077051     -0.032689
      0.77351      6.22691      9.90296        -0.185506     -0.043783     -0.019900
      1.47880      4.96032      9.90014         0.157527     -0.148212      0.022395
      0.79033      8.73755      9.97238        -0.097428     -0.022321      0.023126
      1.50809      7.47657      9.91711         0.209613      0.262645     -0.009519
      3.60109      8.77416      9.94313        -0.312315     -0.089126     -0.054773
      2.89455     10.01066     10.00466        -0.034936     -0.035160     -0.000845
      0.77620     11.25134     10.02016        -0.100349      0.038825     -0.015657
      1.47836      9.99709     10.00421         0.092412     -0.026503     -0.020572
      3.59526     11.25112     10.03983         0.022394      0.094872      0.001278
      7.13675     12.50942     10.05676         0.001774     -0.052400     -0.006707
      4.90608      1.19559     10.09478        -0.071899     -0.072447      0.003098
      5.72042     12.48857     10.07061        -0.012003     -0.015721     -0.014057
      7.72922      1.23346     10.08110         0.041382      0.043758      0.009629
      7.02747      2.47383     10.14342         0.216738      0.013043     -0.010580
      5.59473      2.43230     10.12094        -0.261182      0.410443     -0.018180
      7.13263      7.58089      9.84966         0.033211     -0.069759     -0.012747
      5.03568      8.76680      9.92655         0.174076     -0.048843     -0.018757
      7.84129      8.81344      9.95048         0.075364      0.067037     -0.026181
      7.13621     10.03921      9.98709        -0.012539     -0.082280     -0.006622
      5.01325     11.25323     10.03575        -0.010795      0.050647      0.000054
      5.72133     10.01574      9.98606         0.017690     -0.035900      0.007133
      7.84241     11.27726     10.01557         0.029220      0.067704      0.004303
     11.36338     12.52063     10.00911        -0.089641     -0.012244      0.021603
      9.14478      1.25642     10.05079        -0.068347      0.001236      0.004179
      9.85006      0.00407     10.01793         0.077887     -0.016336      0.013732
     11.95525      1.25054     10.01674         0.083177     -0.007436      0.007920
     11.25462      2.51098     10.01743        -0.024050     -0.001308      0.001310
      9.08187      3.77410     10.07466        -0.067185     -0.112385     -0.006402
      9.82647      2.52135     10.04338        -0.000605     -0.006365      0.004656
     11.97901      3.75418     10.00014         0.057457     -0.046722     -0.011599
     11.27377      5.01128      9.97653        -0.138286     -0.040199     -0.000264
      9.17301      6.30262      9.90738        -0.298382      0.062290     -0.012698
      9.83735      5.02344      9.99395         0.141702      0.060696     -0.032081
     12.04213      6.24132      9.94047         0.166611      0.065137     -0.014672
     11.35126      7.50296      9.94694        -0.089956      0.019013     -0.006705
      9.25172      8.78785      9.94556        -0.081113     -0.005018      0.017447
      9.93155      7.52504      9.92424         0.102083      0.010338      0.017606
     12.06643      8.74876      9.96944         0.059684      0.040982     -0.007349
     11.37170     10.00985      9.98060        -0.079414     -0.029274      0.000759
      9.25652     11.27713     10.00154        -0.041778     -0.010617      0.009618
      9.95782     10.02631      9.97301         0.077791      0.033671      0.018625
     12.06267     11.26255     10.00200         0.097534      0.001795      0.006745
      2.89773      4.90221      9.82244        -0.302845     -0.548100      0.030415
      2.92797      7.53048      9.86565        -0.510168      0.529829     -0.065918
      7.65543      3.74860     10.18399         0.208670     -0.431657     -0.011741
      5.70943      7.51040      9.81511         0.551866      0.289732     -0.031119
      4.93601      3.63196     10.08806        -0.437281     -0.771796     -0.006574
      7.80983      6.37647      9.82349         0.299907      0.526155      0.208371
      4.14513      6.21627      9.25570        -0.244044      0.439112      0.252428
      6.15905      5.34033     10.41365         0.568095     -0.146388     -0.162976
 -----------------------------------------------------------------------------------
    total drift:                               -0.007761      0.001988      0.002215


--------------------------------------------------------------------------------------------------------



  FREE ENERGIE OF THE ION-ELECTRON SYSTEM (eV)
  ---------------------------------------------------
  free  energy   TOTEN  =      -607.16365446 eV

  energy  without entropy=     -607.16353898  energy(sigma->0) =     -607.16359672
 


--------------------------------------------------------------------------------------------------------


    POTLOK:  cpu time    3.4459: real time    3.4505


--------------------------------------------------------------------------------------------------------


 stress matrix after NEB project (eV)
    -22.77678      3.02652      0.38348
      3.02679    -47.00832     -0.66860
      0.38429     -0.66870     -0.59954
  FORCES: max atom, RMS     0.887090    0.278550
  FORCE total and by dimension    2.121377    0.771796
  Stress total and by dimension   52.425510   47.008325
 writing wavefunctions
     LOOP+:  cpu time31158.2521: real time31168.2826
    4ORBIT:  cpu time    0.0000: real time    0.0000
 


 total charge     
 
# of ion       s       p       d       tot
------------------------------------------
    1        0.870   1.789   0.000   2.660
    2        0.866   1.767   0.000   2.633
    3        0.867   1.770   0.000   2.637
    4        0.875   1.780   0.000   2.655
    5        0.871   1.790   0.000   2.662
    6        0.863   1.751   0.000   2.614
    7        0.866   1.771   0.000   2.637
    8        0.869   1.723   0.000   2.592
    9        0.862   1.735   0.000   2.597
   10        0.860   1.737   0.000   2.597
   11        0.864   1.750   0.000   2.614
   12        0.860   1.735   0.000   2.595
   13        0.875   1.766   0.000   2.641
   14        0.871   1.781   0.000   2.652
   15        0.868   1.773   0.000   2.641
   16        0.866   1.765   0.000   2.631
   17        0.870   1.780   0.000   2.650
   18        0.869   1.784   0.000   2.653
   19        0.871   1.802   0.000   2.673
   20        0.870   1.783   0.000   2.653
   21        0.870   1.777   0.000   2.647
   22        0.872   1.771   0.000   2.643
   23        0.874   1.742   0.000   2.616
   24        0.870   1.732   0.000   2.602
   25        0.871   1.748   0.000   2.619
   26        0.873   1.801   0.000   2.675
   27        0.872   1.787   0.000   2.659
   28        0.869   1.780   0.000   2.649
   29        0.870   1.784   0.000   2.654
   30        0.871   1.785   0.000   2.656
   31        0.867   1.768   0.000   2.635
   32        0.866   1.766   0.000   2.632
   33        0.867   1.772   0.000   2.639
   34        0.865   1.766   0.000   2.630
   35        0.863   1.750   0.000   2.613
   36        0.857   1.712   0.000   2.569
   37        0.863   1.741   0.000   2.604
   38        0.863   1.751   0.000   2.614
   39        0.859   1.737   0.000   2.596
   40        0.859   1.722   0.000   2.581
   41        0.856   1.739   0.000   2.595
   42        0.860   1.747   0.000   2.607
   43        0.864   1.761   0.000   2.625
   44        0.870   1.772   0.000   2.643
   45        0.865   1.772   0.000   2.636
   46        0.864   1.761   0.000   2.625
   47        0.867   1.768   0.000   2.634
   48        0.867   1.773   0.000   2.640
   49        0.868   1.780   0.000   2.647
   50        0.867   1.773   0.000   2.640
   51        0.871   1.684   0.000   2.556
   52        0.873   1.668   0.000   2.541
   53        0.874   1.647   0.000   2.521
   54        0.859   1.692   0.000   2.550
   55        1.238   2.672   0.000   3.910
   56        1.239   2.687   0.000   3.926
   57        0.518   0.473   6.368   7.358
   58        0.463   0.627   2.450   3.541
--------------------------------------------------
tot         50.277 101.320   8.818 160.415
 


 magnetization (x)
 
# of ion       s       p       d       tot
------------------------------------------
    1        0.000   0.007   0.000   0.007
    2        0.001   0.013   0.000   0.014
    3       -0.001  -0.009   0.000  -0.010
    4        0.000   0.006   0.000   0.006
    5        0.001   0.012   0.000   0.014
    6        0.001   0.013   0.000   0.014
    7       -0.001  -0.010   0.000  -0.011
    8        0.001  -0.013   0.000  -0.012
    9        0.003   0.052   0.000   0.055
   10       -0.003  -0.017   0.000  -0.020
   11        0.002   0.017   0.000   0.019
   12       -0.002  -0.023   0.000  -0.025
   13       -0.002  -0.019   0.000  -0.022
   14        0.002   0.018   0.000   0.020
   15        0.001   0.013   0.000   0.014
   16       -0.001  -0.014   0.000  -0.016
   17        0.000   0.004   0.000   0.005
   18        0.001   0.021   0.000   0.022
   19        0.000   0.008   0.000   0.008
   20       -0.001  -0.005   0.000  -0.006
   21       -0.001  -0.008   0.000  -0.009
   22        0.001   0.018   0.000   0.019
   23        0.001   0.018   0.000   0.019
   24        0.001   0.005   0.000   0.006
   25        0.002   0.030   0.000   0.033
   26       -0.001  -0.009   0.000  -0.010
   27        0.001   0.011   0.000   0.012
   28        0.001   0.013   0.000   0.014
   29       -0.001  -0.008   0.000  -0.009
   30       -0.001  -0.007   0.000  -0.008
   31        0.001   0.009   0.000   0.009
   32        0.001   0.007   0.000   0.008
   33       -0.001  -0.005   0.000  -0.006
   34       -0.001  -0.007   0.000  -0.008
   35        0.001   0.013   0.000   0.014
   36        0.000   0.005   0.000   0.006
   37       -0.001  -0.007   0.000  -0.008
   38       -0.001  -0.008   0.000  -0.009
   39        0.002   0.024   0.000   0.026
   40        0.002   0.036   0.000   0.038
   41       -0.001  -0.002   0.000  -0.002
   42       -0.002  -0.014   0.000  -0.016
   43        0.001   0.019   0.000   0.020
   44        0.001   0.020   0.000   0.021
   45       -0.002  -0.014   0.000  -0.016
   46       -0.001  -0.009   0.000  -0.010
   47        0.001   0.015   0.000   0.016
   48        0.001   0.011   0.000   0.012
   49       -0.001  -0.008   0.000  -0.009
   50       -0.001  -0.009   0.000  -0.010
   51        0.015   0.097   0.000   0.112
   52        0.027   0.152   0.000   0.178
   53       -0.004  -0.009   0.000  -0.013
   54       -0.003  -0.012   0.000  -0.016
   55       -0.001   0.031   0.000   0.030
   56       -0.003  -0.005   0.000  -0.008
   57       -0.018   0.032  -2.253  -2.239
   58        0.061   0.055   1.167   1.283
--------------------------------------------------
tot          0.084   0.552  -1.086  -0.450
 

 total amount of memory used by VASP MPI-rank0   191419. kBytes
=======================================================================

   base      :      30000. kBytes
   nonl-proj :       5326. kBytes
   fftplans  :      14250. kBytes
   grid      :      36827. kBytes
   one-center:         62. kBytes
   HF        :         23. kBytes
   nonlr-proj:      28938. kBytes
   wavefun   :      75993. kBytes
 
  
  
 General timing and accounting informations for this job:
 ========================================================
  
                  Total CPU time used (sec):    31249.605
                            User time (sec):    31206.639
                          System time (sec):       42.967
                         Elapsed time (sec):    31260.865
  
                   Maximum memory used (kb):      429852.
                   Average memory used (kb):           0.
  
                          Minor page faults:       244501
                          Major page faults:            0
                 Voluntary context switches:         1124
