 vasp.5.4.4.18Apr17-6-g9f103f2a35 (build Feb 25 2019 10:51:38) complex          
  
 executed on             LinuxIFC date 2021.06.15  21:19:24
 running on   48 total cores
 distrk:  each k-point on   24 cores,    2 groups
 distr:  one band on NCORES_PER_BAND=  24 cores,    1 groups


--------------------------------------------------------------------------------------------------------


 INCAR:
 POTCAR:    PAW_PBE C 08Apr2002                   
 POTCAR:    PAW_PBE N 08Apr2002                   
 POTCAR:    PAW_PBE Fe 06Sep2000                  
 POTCAR:    PAW_PBE Ti 08Apr2002                  

 ----------------------------------------------------------------------------- 
|                                                                             |
|           W    W    AA    RRRRR   N    N  II  N    N   GGGG   !!!           |
|           W    W   A  A   R    R  NN   N  II  NN   N  G    G  !!!           |
|           W    W  A    A  R    R  N N  N  II  N N  N  G       !!!           |
|           W WW W  AAAAAA  RRRRR   N  N N  II  N  N N  G  GGG   !            |
|           WW  WW  A    A  R   R   N   NN  II  N   NN  G    G                |
|           W    W  A    A  R    R  N    N  II  N    N   GGGG   !!!           |
|                                                                             |
|      For optimal performance we recommend to set                            |
|        NCORE= 4 - approx SQRT( number of cores)                             |
|      NCORE specifies how many cores store one orbital (NPAR=cpu/NCORE).     |
|      This setting can  greatly improve the performance of VASP for DFT.     |
|      The default,   NCORE=1            might be grossly inefficient         |
|      on modern multi-core architectures or massively parallel machines.     |
|      Do your own testing !!!!                                               |
|      Unfortunately you need to use the default for GW and RPA calculations. |
|      (for HF NCORE is supported but not extensively tested yet)             |
|                                                                             |
 ----------------------------------------------------------------------------- 


 ----------------------------------------------------------------------------- 
|                                                                             |
|           W    W    AA    RRRRR   N    N  II  N    N   GGGG   !!!           |
|           W    W   A  A   R    R  NN   N  II  NN   N  G    G  !!!           |
|           W    W  A    A  R    R  N N  N  II  N N  N  G       !!!           |
|           W WW W  AAAAAA  RRRRR   N  N N  II  N  N N  G  GGG   !            |
|           WW  WW  A    A  R   R   N   NN  II  N   NN  G    G                |
|           W    W  A    A  R    R  N    N  II  N    N   GGGG   !!!           |
|                                                                             |
|      You have enabled k-point parallelism (KPAR>1).                         |
|      This developmental code was originally  written by Paul Kent at ORNL,  |
|      and carefully double checked in Vienna.                                |
|      GW as well as linear response parallelism added by Martijn Marsman     |
|      and Georg Kresse.                                                      |
|      Carefully verify results versus KPAR=1.                                |
|      Report problems to Paul Kent and Vienna.                               |
|                                                                             |
 ----------------------------------------------------------------------------- 

 POTCAR:    PAW_PBE C 08Apr2002                   
   VRHFIN =C: s2p2                                                              
   LEXCH  = PE                                                                  
   EATOM  =   147.1560 eV,   10.8157 Ry                                         
                                                                                
   TITEL  = PAW_PBE C 08Apr2002                                                 
   LULTRA =        F    use ultrasoft PP ?                                      
   IUNSCR =        1    unscreen: 0-lin 1-nonlin 2-no                           
   RPACOR =    1.200    partial core radius                                     
   POMASS =   12.011; ZVAL   =    4.000    mass and valenz                      
   RCORE  =    1.500    outmost cutoff radius                                   
   RWIGS  =    1.630; RWIGS  =    0.863    wigner-seitz radius (au A)           
   ENMAX  =  400.000; ENMIN  =  300.000 eV                                      
   ICORE  =        2    local potential                                         
   LCOR   =        T    correct aug charges                                     
   LPAW   =        T    paw PP                                                  
   EAUG   =  644.873                                                            
   DEXC   =    0.000                                                            
   RMAX   =    1.529    core radius for proj-oper                               
   RAUG   =    1.300    factor for augmentation sphere                          
   RDEP   =    1.501    radius for radial grids                                 
   RDEPT  =    1.300    core radius for aug-charge                              
                                                                                
   Atomic configuration                                                         
    4 entries                                                                   
     n  l   j            E        occ.                                          
     1  0  0.50      -273.3789   2.0000                                         
     2  0  0.50       -13.7508   2.0000                                         
     2  1  0.50        -5.2854   2.0000                                         
     3  2  1.50        -5.4423   0.0000                                         
   Description                                                                  
     l       E           TYP  RCUT    TYP  RCUT                                 
     0    -13.7508458     23  1.200                                             
     0     -8.2022199     23  1.200                                             
     1     -5.2854383     23  1.500                                             
     1     34.0145650     23  1.500                                             
     2     -5.4423304      7  1.500                                             
  local pseudopotential read in
  partial core-charges read in
  partial kinetic energy density read in
  atomic valenz-charges read in
  non local Contribution for L=           0  read in
    real space projection operators read in
  non local Contribution for L=           0  read in
    real space projection operators read in
  non local Contribution for L=           1  read in
    real space projection operators read in
  non local Contribution for L=           1  read in
    real space projection operators read in
    PAW grid and wavefunctions read in
 
   number of l-projection  operators is LMAX  =           4
   number of lm-projection operators is LMMAX =           8
 
 POTCAR:    PAW_PBE N 08Apr2002                   
   VRHFIN =N: s2p3                                                              
   LEXCH  = PE                                                                  
   EATOM  =   264.5486 eV,   19.4438 Ry                                         
                                                                                
   TITEL  = PAW_PBE N 08Apr2002                                                 
   LULTRA =        F    use ultrasoft PP ?                                      
   IUNSCR =        1    unscreen: 0-lin 1-nonlin 2-no                           
   RPACOR =    1.200    partial core radius                                     
   POMASS =   14.001; ZVAL   =    5.000    mass and valenz                      
   RCORE  =    1.500    outmost cutoff radius                                   
   RWIGS  =    1.400; RWIGS  =    0.741    wigner-seitz radius (au A)           
   ENMAX  =  400.000; ENMIN  =  300.000 eV                                      
   ICORE  =        2    local potential                                         
   LCOR   =        T    correct aug charges                                     
   LPAW   =        T    paw PP                                                  
   EAUG   =  627.112                                                            
   DEXC   =    0.000                                                            
   RMAX   =    1.529    core radius for proj-oper                               
   RAUG   =    1.300    factor for augmentation sphere                          
   RDEP   =    1.514    radius for radial grids                                 
   RDEPT  =    1.338    core radius for aug-charge                              
                                                                                
   Atomic configuration                                                         
    4 entries                                                                   
     n  l   j            E        occ.                                          
     1  0  0.50      -384.7179   2.0000                                         
     2  0  0.50       -18.5828   2.0000                                         
     2  1  0.50        -7.0898   3.0000                                         
     3  2  1.50        -6.8029   0.0000                                         
   Description                                                                  
     l       E           TYP  RCUT    TYP  RCUT                                 
     0    -18.5828119     23  1.200                                             
     0    -13.5018863     23  1.200                                             
     1     -7.0897853     23  1.500                                             
     1      9.5240782     23  1.500                                             
     2     -6.8029130      7  1.500                                             
  local pseudopotential read in
  partial core-charges read in
  partial kinetic energy density read in
  atomic valenz-charges read in
  non local Contribution for L=           0  read in
    real space projection operators read in
  non local Contribution for L=           0  read in
    real space projection operators read in
  non local Contribution for L=           1  read in
    real space projection operators read in
  non local Contribution for L=           1  read in
    real space projection operators read in
    PAW grid and wavefunctions read in
 
   number of l-projection  operators is LMAX  =           4
   number of lm-projection operators is LMMAX =           8
 
 POTCAR:    PAW_PBE Fe 06Sep2000                  
   VRHFIN =Fe:  d7 s1                                                           
   LEXCH  = PE                                                                  
   EATOM  =   594.3153 eV,   43.6809 Ry                                         
                                                                                
   TITEL  = PAW_PBE Fe 06Sep2000                                                
   LULTRA =        F    use ultrasoft PP ?                                      
   IUNSCR =        1    unscreen: 0-lin 1-nonlin 2-no                           
   RPACOR =    2.000    partial core radius                                     
   POMASS =   55.847; ZVAL   =    8.000    mass and valenz                      
   RCORE  =    2.300    outmost cutoff radius                                   
   RWIGS  =    2.460; RWIGS  =    1.302    wigner-seitz radius (au A)           
   ENMAX  =  267.882; ENMIN  =  200.911 eV                                      
   RCLOC  =    1.701    cutoff for local pot                                    
   LCOR   =        T    correct aug charges                                     
   LPAW   =        T    paw PP                                                  
   EAUG   =  511.368                                                            
   DEXC   =    0.000                                                            
   RMAX   =    2.356    core radius for proj-oper                               
   RAUG   =    1.300    factor for augmentation sphere                          
   RDEP   =    2.442    radius for radial grids                                 
   RDEPT  =    1.890    core radius for aug-charge                              
                                                                                
   Atomic configuration                                                         
    9 entries                                                                   
     n  l   j            E        occ.                                          
     1  0  0.50     -6993.8440   2.0000                                         
     2  0  0.50      -814.6047   2.0000                                         
     2  1  1.50      -693.3689   6.0000                                         
     3  0  0.50       -89.4732   2.0000                                         
     3  1  1.50       -55.6373   6.0000                                         
     3  2  2.50        -3.8151   7.0000                                         
     4  0  0.50        -4.2551   1.0000                                         
     4  1  1.50        -3.4015   0.0000                                         
     4  3  2.50        -1.3606   0.0000                                         
   Description                                                                  
     l       E           TYP  RCUT    TYP  RCUT                                 
     2     -3.8151135     23  2.300                                             
     2     -5.1756961     23  2.300                                             
     0     -4.2550963     23  2.300                                             
     0      7.2035603     23  2.300                                             
     1     -2.7211652     23  2.300                                             
     1     18.4316424     23  2.300                                             
  local pseudopotential read in
  partial core-charges read in
  partial kinetic energy density read in
  atomic valenz-charges read in
  non local Contribution for L=           2  read in
    real space projection operators read in
  non local Contribution for L=           2  read in
    real space projection operators read in
  non local Contribution for L=           0  read in
    real space projection operators read in
  non local Contribution for L=           0  read in
    real space projection operators read in
  non local Contribution for L=           1  read in
    real space projection operators read in
  non local Contribution for L=           1  read in
    real space projection operators read in
    PAW grid and wavefunctions read in
 
   number of l-projection  operators is LMAX  =           6
   number of lm-projection operators is LMMAX =          18
 
 POTCAR:    PAW_PBE Ti 08Apr2002                  
   VRHFIN =Ti: d3 s1                                                            
   LEXCH  = PE                                                                  
   EATOM  =    94.7928 eV,    6.9671 Ry                                         
                                                                                
   TITEL  = PAW_PBE Ti 08Apr2002                                                
   LULTRA =        F    use ultrasoft PP ?                                      
   IUNSCR =        1    unscreen: 0-lin 1-nonlin 2-no                           
   RPACOR =    2.200    partial core radius                                     
   POMASS =   47.880; ZVAL   =    4.000    mass and valenz                      
   RCORE  =    2.800    outmost cutoff radius                                   
   RWIGS  =    2.500; RWIGS  =    1.323    wigner-seitz radius (au A)           
   ENMAX  =  178.330; ENMIN  =  133.747 eV                                      
   RCLOC  =    2.215    cutoff for local pot                                    
   LCOR   =        T    correct aug charges                                     
   LPAW   =        T    paw PP                                                  
   EAUG   =  328.883                                                            
   DEXC   =    0.000                                                            
   RMAX   =    2.868    core radius for proj-oper                               
   RAUG   =    1.300    factor for augmentation sphere                          
   RDEP   =    2.885    radius for radial grids                                 
   RDEPT  =    2.320    core radius for aug-charge                              
                                                                                
   Atomic configuration                                                         
    9 entries                                                                   
     n  l   j            E        occ.                                          
     1  0  0.50     -4865.3608   2.0000                                         
     2  0  0.50      -533.1367   2.0000                                         
     2  1  1.50      -440.5031   6.0000                                         
     3  0  0.50       -59.3186   2.0000                                         
     3  1  1.50       -35.7012   6.0000                                         
     3  2  2.50        -1.9157   3.0000                                         
     4  0  0.50        -3.7291   1.0000                                         
     4  1  1.50        -4.0817   0.0000                                         
     4  3  2.50        -1.3606   0.0000                                         
   Description                                                                  
     l       E           TYP  RCUT    TYP  RCUT                                 
     2     -1.9156924     23  2.800                                             
     2     -0.4062961     23  2.800                                             
     0     -3.7290832     23  2.800                                             
     0     20.4087390     23  2.800                                             
     1     -5.4423304     23  2.800                                             
  local pseudopotential read in
  partial core-charges read in
  partial kinetic energy density read in
  atomic valenz-charges read in
  non local Contribution for L=           2  read in
    real space projection operators read in
  non local Contribution for L=           2  read in
    real space projection operators read in
  non local Contribution for L=           0  read in
    real space projection operators read in
  non local Contribution for L=           0  read in
    real space projection operators read in
  non local Contribution for L=           1  read in
    real space projection operators read in
    PAW grid and wavefunctions read in
 
   number of l-projection  operators is LMAX  =           5
   number of lm-projection operators is LMMAX =          15
 

 ----------------------------------------------------------------------------- 
|                                                                             |
|  ADVICE TO THIS USER RUNNING 'VASP/VAMP'   (HEAR YOUR MASTER'S VOICE ...):  |
|                                                                             |
|      You have a (more or less) 'large supercell' and for larger cells       |
|      it might be more efficient to use real space projection opertators     |
|      So try LREAL= Auto  in the INCAR   file.                               |
|      Mind:          For very  accurate calculation you might also keep the  |
|      reciprocal projection scheme          (i.e. LREAL=.FALSE.)             |
|                                                                             |
 ----------------------------------------------------------------------------- 

  PAW_PBE C 08Apr2002                   :
 energy of atom  1       EATOM= -147.1560
 kinetic energy error for atom=    0.0076 (will be added to EATOM!!)
  PAW_PBE N 08Apr2002                   :
 energy of atom  2       EATOM= -264.5486
 kinetic energy error for atom=    0.0138 (will be added to EATOM!!)
  PAW_PBE Fe 06Sep2000                  :
 energy of atom  3       EATOM= -594.3153
 kinetic energy error for atom=    0.0026 (will be added to EATOM!!)
  PAW_PBE Ti 08Apr2002                  :
 energy of atom  4       EATOM=  -94.7928
 kinetic energy error for atom=    0.0002 (will be added to EATOM!!)
 
 
 POSCAR:  C  N Fe Ti                             
  positions in cartesian coordinates
  No initial velocities read in
 exchange correlation table for  LEXCH =        8
   RHO(1)=    0.500       N(1)  =     2000
   RHO(2)=  100.500       N(2)  =     4000

 VTST: version 3.2, (02/03/18)

 CHAIN: initializing optimizer
 
 OPT: Using VASP Conjugate-Gradient optimizer
 CHAIN: Read ICHAIN            0
 
 POSCAR:  C  N Fe Ti                             
  positions in cartesian coordinates
  No initial velocities read in
 


--------------------------------------------------------------------------------------------------------


 ion  position               nearest neighbor table
   1  0.221  0.004  0.500-  19 1.43   4 1.43   3 1.43
   2  0.056  0.102  0.499-   3 1.42   7 1.44  38 1.44
   3  0.110  0.003  0.499-   2 1.42  17 1.43   1 1.43
   4  0.278  0.104  0.500-   1 1.43  21 1.43   5 1.44
   5  0.225  0.206  0.500-   4 1.44   7 1.44   8 1.46
   6  0.058  0.302  0.500-   7 1.43  11 1.43  42 1.44
   7  0.114  0.203  0.500-   6 1.43   2 1.44   5 1.44
   8  0.282  0.309  0.501-  25 1.44   5 1.46   9 1.46
   9  0.225  0.410  0.501-  55 1.39  11 1.44   8 1.46
  10  0.055  0.502  0.499-  14 1.42  46 1.42  11 1.43
  11  0.113  0.404  0.500-   6 1.43  10 1.43   9 1.44
  12  0.216  0.605  0.501-  55 1.38  14 1.41  15 1.43
  13  0.052  0.703  0.498-  18 1.42  50 1.42  14 1.42
  14  0.107  0.604  0.499-  12 1.41  10 1.42  13 1.42
  15  0.272  0.706  0.501-  58 1.38  16 1.41  12 1.43
  16  0.218  0.804  0.499-  15 1.41  19 1.42  18 1.43
  17  0.053  0.903  0.498-  18 1.42   3 1.43  54 1.43
  18  0.107  0.803  0.498-  17 1.42  13 1.42  16 1.43
  19  0.275  0.903  0.500-  16 1.42   1 1.43  32 1.44
  20  0.554  0.996  0.500-  23 1.43  22 1.43  34 1.43
  21  0.389  0.101  0.500-  26 1.43   4 1.43  22 1.45
  22  0.443  0.999  0.500-  32 1.43  20 1.43  21 1.45
  23  0.611  0.097  0.499-  24 1.43  20 1.43  36 1.44
  24  0.557  0.197  0.500-  27 1.42  23 1.43  26 1.44
  25  0.394  0.303  0.500-  56 1.41  26 1.44   8 1.44
  26  0.446  0.201  0.500-  21 1.43  25 1.44  24 1.44
  27  0.616  0.295  0.499-  24 1.42  40 1.42  28 1.42
  28  0.561  0.395  0.498-  56 1.40  27 1.42  29 1.43  60 2.39
  29  0.617  0.495  0.497-  57 1.41  44 1.42  28 1.43  60 2.38
  30  0.609  0.694  0.499-  57 1.41  48 1.44  31 1.44
  31  0.550  0.792  0.500-  30 1.44  34 1.46  33 1.46
  32  0.386  0.899  0.500-  22 1.43  19 1.44  33 1.45
  33  0.438  0.795  0.501-  58 1.38  32 1.45  31 1.46
  34  0.607  0.895  0.499-  20 1.43  52 1.44  31 1.46
  35  0.888  1.000  0.498-  54 1.42  38 1.44  37 1.44
  36  0.722  0.098  0.499-  37 1.42  41 1.43  23 1.44
  37  0.776  0.998  0.498-  36 1.42  52 1.44  35 1.44
  38  0.945  0.100  0.499-  39 1.42  35 1.44   2 1.44
  39  0.891  0.199  0.499-  38 1.42  42 1.43  41 1.43
  40  0.725  0.297  0.499-  41 1.42  27 1.42  45 1.43
  41  0.780  0.198  0.499-  40 1.42  36 1.43  39 1.43
  42  0.947  0.300  0.499-  43 1.43  39 1.43   6 1.44
  43  0.891  0.399  0.499-  46 1.42  45 1.42  42 1.43
  44  0.727  0.496  0.498-  49 1.42  29 1.42  45 1.42
  45  0.781  0.397  0.498-  44 1.42  43 1.42  40 1.43
  46  0.945  0.501  0.499-  43 1.42  10 1.42  47 1.44
  47  0.888  0.600  0.498-  49 1.42  50 1.42  46 1.44
  48  0.720  0.697  0.498-  53 1.43  30 1.44  49 1.44
  49  0.779  0.598  0.498-  44 1.42  47 1.42  48 1.44
  50  0.942  0.701  0.498-  47 1.42  13 1.42  51 1.43
  51  0.886  0.800  0.497-  50 1.43  54 1.43  53 1.44
  52  0.719  0.897  0.498-  53 1.43  37 1.44  34 1.44
  53  0.775  0.798  0.498-  52 1.43  48 1.43  51 1.44
  54  0.942  0.901  0.498-  35 1.42  51 1.43  17 1.43
  55  0.273  0.511  0.504-  12 1.38   9 1.39  59 1.91
  56  0.453  0.399  0.500-  28 1.40  25 1.41  59 1.94  60 2.18
  57  0.559  0.591  0.498-  30 1.41  29 1.41  59 1.92  60 2.19
  58  0.378  0.701  0.503-  15 1.38  33 1.38  59 1.92
  59  0.416  0.551  0.504-  55 1.91  57 1.92  58 1.92  56 1.94  60 1.97
  60  0.497  0.512  0.584-  59 1.97  56 2.18  57 2.19  29 2.38  28 2.39
 
  LATTYP: Found a triclinic cell.
 ALAT       =    12.3365000000
 B/A-ratio  =     1.4377383492
 C/A-ratio  =     2.1843322463
 COS(alpha) =     0.0136789802
 COS(beta)  =     0.5004908227
 COS(gamma) =     0.6843897307
  
  Lattice vectors:
  
 A1 = (  -0.1885849109,  12.3350584912,   0.0000000000)
 A2 = (  12.7450150891,  12.3350584912,   0.0000000000)
 A3 = ( -12.3586024059,  13.2993648192, -19.9131475732)


Analysis of symmetry for initial positions (statically):
=====================================================================
 Subroutine PRICEL returns:
 Original cell was already a primitive cell.
 

 Routine SETGRP: Setting up the symmetry group for a 
 triclinic supercell.


 Subroutine GETGRP returns: Found  1 space group operations
 (whereof  1 operations were pure point group operations)
 out of a pool of  2 trial point group operations.


The static configuration has the point symmetry C_1 .


Analysis of symmetry for dynamics (positions and initial velocities):
=====================================================================
 Subroutine PRICEL returns:
 Original cell was already a primitive cell.
 

 Routine SETGRP: Setting up the symmetry group for a 
 triclinic supercell.


 Subroutine GETGRP returns: Found  1 space group operations
 (whereof  1 operations were pure point group operations)
 out of a pool of  2 trial point group operations.


The dynamic configuration has the point symmetry C_1 .


Analysis of structural, dynamic, and magnetic symmetry:
=====================================================================
 Subroutine PRICEL returns:
 Original cell was already a primitive cell.
 

 Routine SETGRP: Setting up the symmetry group for a 
 triclinic supercell.


 Subroutine GETGRP returns: Found  1 space group operations
 (whereof  1 operations were pure point group operations)
 out of a pool of  2 trial point group operations.


The magnetic configuration has the point symmetry C_1 .


 Subroutine INISYM returns: Found  1 space group operations
 (whereof  1 operations are pure point group operations),
 and found     1 'primitive' translations

 
 
 KPOINTS: KPOINTS created by Atomic Simulation Env

Automatic generation of k-mesh.
Space group operators:
 irot       det(A)        alpha          n_x          n_y          n_z        tau_x        tau_y        tau_z
    1     1.000000     0.000000     1.000000     0.000000     0.000000     0.000000     0.000000     0.000000
 
 Subroutine IBZKPT returns following result:
 ===========================================
 
 Found      2 irreducible k-points:
 
 Following reciprocal coordinates:
            Coordinates               Weight
  0.250000  0.250000 -0.000000      2.000000
 -0.250000  0.250000 -0.000000      2.000000
 
 Following cartesian coordinates:
            Coordinates               Weight
  0.019329  0.020563  0.001737      2.000000
 -0.019329  0.019972  0.000226      2.000000
 
 
 Subroutine IBZKPT_HF returns following result:
 ==============================================
 
 Found      4 k-points in 1st BZ
 the following      4 k-points will be used (e.g. in the exchange kernel)
 Following reciprocal coordinates:   # in IRBZ
  0.250000  0.250000 -0.000000    0.25000000   1 t-inv F
 -0.250000  0.250000 -0.000000    0.25000000   2 t-inv F
 -0.250000 -0.250000  0.000000    0.25000000   1 t-inv T
  0.250000 -0.250000  0.000000    0.25000000   2 t-inv T


--------------------------------------------------------------------------------------------------------




 Dimension of arrays:
   k-points           NKPTS =      2   k-points in BZ     NKDIM =      4   number of bands    NBANDS=    159
   number of dos      NEDOS =    301   number of ions     NIONS =     60
   non local maximal  LDIM  =      6   non local SUM 2l+1 LMDIM =     18
   total plane-waves  NPLWV = ******
   max r-space proj   IRMAX =      1   max aug-charges    IRDMAX=  28371
   dimension x,y,z NGX =    96 NGY =   90 NGZ =  150
   dimension x,y,z NGXF=   192 NGYF=  180 NGZF=  300
   support grid    NGXF=   192 NGYF=  180 NGZF=  300
   ions per type =              54   4   1   1
   NGX,Y,Z   is equivalent  to a cutoff of  12.34, 12.13, 12.50 a.u.
   NGXF,Y,Z  is equivalent  to a cutoff of  24.68, 24.26, 25.00 a.u.

 SYSTEM =  unknown system                          
 POSCAR =   C  N Fe Ti                             

 Startparameter for this run:
   NWRITE =      2    write-flag & timer
   PREC   = accura    normal or accurate (medium, high low for compatibility)
   ISTART =      1    job   : 0-new  1-cont  2-samecut
   ICHARG =      0    charge: 1-file 2-atom 10-const
   ISPIN  =      2    spin polarized calculation?
   LNONCOLLINEAR =      F non collinear calculations
   LSORBIT =      F    spin-orbit coupling
   INIWAV =      1    electr: 0-lowe 1-rand  2-diag
   LASPH  =      T    aspherical Exc in radial PAW
   METAGGA=      F    non-selfconsistent MetaGGA calc.

 Electronic Relaxation 1
   ENCUT  =  500.0 eV  36.75 Ry    6.06 a.u.  23.58 22.49 36.38*2*pi/ulx,y,z
   ENINI  =  500.0     initial cutoff
   ENAUG  =  644.9 eV  augmentation charge cutoff
   NELM   =    250;   NELMIN=  2; NELMDL=  0     # of ELM steps 
   EDIFF  = 0.1E-03   stopping-criterion for ELM
   LREAL  =      F    real-space projection
   NLSPLINE    = F    spline interpolate recip. space projectors
   LCOMPAT=      F    compatible to vasp.4.4
   GGA_COMPAT  = T    GGA compatible to vasp.4.4-vasp.4.6
   LMAXPAW     = -100 max onsite density
   LMAXMIX     =    2 max onsite mixed and CHGCAR
   VOSKOWN=      0    Vosko Wilk Nusair interpolation
   ROPT   =    0.00000   0.00000   0.00000   0.00000
 Ionic relaxation
   EDIFFG = -.3E-01   stopping-criterion for IOM
   NSW    =      0    number of steps for IOM
   NBLOCK =      1;   KBLOCK =      1    inner block; outer block 
   IBRION =     -1    ionic relax: 0-MD 1-quasi-New 2-CG
   NFREE  =      1    steps in history (QN), initial steepest desc. (CG)
   ISIF   =      2    stress and relaxation
   IWAVPR =     10    prediction:  0-non 1-charg 2-wave 3-comb
   ISYM   =      3    0-nonsym 1-usesym 2-fastsym
   LCORR  =      T    Harris-Foulkes like correction to forces

   POTIM  = 0.5000    time-step for ionic-motion
   TEIN   =    0.0    initial temperature
   TEBEG  =    0.0;   TEEND  =   0.0 temperature during run
   SMASS  =  -3.00    Nose mass-parameter (am)
   estimated Nose-frequenzy (Omega)   =  0.10E-29 period in steps =****** mass=  -0.382E-26a.u.
   SCALEE = 1.0000    scale energy and forces
   NPACO  =    256;   APACO  = 16.0  distance and # of slots for P.C.
   PSTRESS=    0.0 pullay stress

  Mass of Ions in am
   POMASS =  12.01 14.00 55.85 47.88
  Ionic Valenz
   ZVAL   =   4.00  5.00  8.00  4.00
  Atomic Wigner-Seitz radii
   RWIGS  =  -1.00 -1.00 -1.00 -1.00
  virtual crystal weights 
   VCA    =   1.00  1.00  1.00  1.00
   NELECT =     248.0000    total number of electrons
   NUPDOWN=      -1.0000    fix difference up-down

 DOS related values:
   EMIN   =  10.00;   EMAX   =-10.00  energy-range for DOS
   EFERMI =   0.00
   ISMEAR =     0;   SIGMA  =   0.10  broadening in eV -4-tet -1-fermi 0-gaus

 Electronic relaxation 2 (details)
   IALGO  =     53    algorithm
   LDIAG  =      T    sub-space diagonalisation (order eigenvalues)
   LSUBROT=      F    optimize rotation matrix (better conditioning)
   TURBO    =      0    0=normal 1=particle mesh
   IRESTART =      0    0=no restart 2=restart with 2 vectors
   NREBOOT  =      0    no. of reboots
   NMIN     =      0    reboot dimension
   EREF     =   0.00    reference energy to select bands
   IMIX   =      4    mixing-type and parameters
     AMIX     =   0.40;   BMIX     =  1.00
     AMIX_MAG =   1.60;   BMIX_MAG =  1.00
     AMIN     =   0.10
     WC   =   100.;   INIMIX=   1;  MIXPRE=   1;  MAXMIX= -45

 Intra band minimization:
   WEIMIN = 0.0000     energy-eigenvalue tresh-hold
   EBREAK =  0.16E-06  absolut break condition
   DEPER  =   0.30     relativ break condition  

   TIME   =   0.20     timestep for ELM

  volume/ion in A,a.u.               =      52.95       357.31
  Fermi-wavevector in a.u.,A,eV,Ry     =   0.699668  1.322180  6.660528  0.489535
  Thomas-Fermi vector in A             =   1.783610
 
 Write flags
   LWAVE        =      T    write WAVECAR
   LDOWNSAMPLE  =      F    k-point downsampling of WAVECAR
   LCHARG       =      T    write CHGCAR
   LVTOT        =      F    write LOCPOT, total local potential
   LVHAR        =      F    write LOCPOT, Hartree potential only
   LELF         =      F    write electronic localiz. function (ELF)
   LORBIT       =     11    0 simple, 1 ext, 2 COOP (PROOUT), +10 PAW based schemes


 Dipole corrections
   LMONO  =      F    monopole corrections only (constant potential shift)
   LDIPOL =      T    correct potential (dipole corrections)
   IDIPOL =      3    1-x, 2-y, 3-z, 4-all directions 
   EPSILON=  1.0000000 bulk dielectric constant

 Exchange correlation treatment:
   GGA     =    PE    GGA type
   LEXCH   =     8    internal setting for exchange type
   VOSKOWN=      0    Vosko Wilk Nusair interpolation
   EXXOEP  =     0    0=HF, 1=EXX-LHF (local Hartree Fock) 2=EXX OEP
   LHFCALC =     T    Hartree Fock is set to
   LSYMGRAD=     F    symmetrize gradient (conserves proper symmetry)
   PRECFOCK=normal    Normal, Fast or Accurate (Low or Medium for compatibility)
   LRHFCALC=     F    long range Hartree Fock
   LRSCOR  =     F    long range correlation only (use DFT for short range part)
   LTHOMAS =     F    Thomas Fermi screening in HF
   LMODELHF=     F    short range full HF, long range fraction AEXX
   ENCUT4O =  -1.0   cutoff for four orbital integrals eV
   LMAXFOCK=     4    L truncation for augmentation on plane wave grid
   LMAXFOCKAE=  -1    L truncation for all-electron charge restoration on plane wave grid
   NMAXFOCKAE=   1    number of basis functions for all-electron charge restoration
   LFOCKAEDFT=     F  apply the AE augmentation even for DFT
   NKREDX  =     1    reduce k-point grid by
   NKREDY  =     1    reduce k-point grid by
   NKREDZ  =     1    reduce k-point grid by
   SHIFTRED=     F    shift reduced grid of Gamma
   HFKIDENT=     F    idential grid for each k-point
   ODDONLY =     F    use only odd q-grid points
   EVENONLY=     F    use only even q-grid points
   HFALPHA =   -1.0000 decay constant for conv. correction
   MCALPHA =    0.0000 extent of test-charge in conv. correction in multipole expansion
   AEXX    =    0.2500 exact exchange contribution
   HFSCREEN=    0.2000 screening length (either q_TF or 0.3 A-1)
   HFSCREENC=   0.2000 screening length for correlation (either q_TF or 0.3 A-1)
   HFRCUT  =    0.0000 spherical cutoff for potential kernel
   ALDAX   =    0.7500 LDA exchange part
   AGGAX   =    0.7500 GGA exchange part
   ALDAC   =    1.0000 LDA correlation
   AGGAC   =    1.0000 GGA correlation
   ENCUTFOCK=  -1.0 apply spherical cutoff to Coloumb kernel
   NBANDSGWLOW=     1    first orbital included in HF term
   NBLOCK_FOCK=    64    blocking factor in FOCK_ACC
 Linear response parameters
   LEPSILON=     F    determine dielectric tensor
   LRPA    =     F    only Hartree local field effects (RPA)
   LNABLA  =     F    use nabla operator in PAW spheres
   LVEL    =     F    velocity operator in full k-point grid
   LINTERFAST=   F  fast interpolation
   KINTER  =     0    interpolate to denser k-point grid
   CSHIFT  =0.1000    complex shift for real part using Kramers Kronig
   OMEGAMAX=  -1.0    maximum frequency
   DEG_THRESHOLD= 0.2000000E-02 threshold for treating states as degnerate
   RTIME   =   -0.100 relaxation time in fs
  (WPLASMAI=    0.000 imaginary part of plasma frequency in eV, 0.658/RTIME)
   DFIELD  = 0.0000000 0.0000000 0.0000000 field for delta impulse in time
 
 Orbital magnetization related:
   ORBITALMAG=     F  switch on orbital magnetization
   LCHIMAG   =     F  perturbation theory with respect to B field
   DQ        =  0.001000  dq finite difference perturbation B field
   LLRAUG    =     F  two centre corrections for induced B field



--------------------------------------------------------------------------------------------------------


 Static calculation
 charge density and potential will be updated during run
 spin polarized calculation
 Conjugate gradient for all bands (Freysoldt, et al. PRB 79, 241103 (2009))
 perform sub-space diagonalisation
    before iterative eigenvector-optimisation
 modified Broyden-mixing scheme, WC =      100.0
 initial mixing is a Kerker type mixing with AMIX =  0.4000 and BMIX =      1.0000
 Hartree-type preconditioning will be used
 using additional bands           35
 reciprocal scheme for non local part
 use partial core corrections
 no Harris-corrections to forces 
 use gradient corrections 
 use of overlap-Matrix (Vanderbilt PP)
 Gauss-broadening in eV      SIGMA  =   0.10


--------------------------------------------------------------------------------------------------------


  energy-cutoff  :      500.00
  volume of cell :     3176.88
      direct lattice vectors                 reciprocal lattice vectors
    12.933600000  0.000000000  0.000000000     0.077317993  0.001182078  0.003022051
    -0.188584911 12.335058491  0.000000000     0.000000000  0.081069741  0.003925852
    -0.763582505 -0.964306328 19.913147573     0.000000000  0.000000000  0.050218078

  length of vectors
    12.933600000 12.336500000 19.951100000     0.077386060  0.081164741  0.050218078


 
 old parameters found on file WAVECAR:
  energy-cutoff  :      500.00
  volume of cell :     3176.88
      direct lattice vectors                 reciprocal lattice vectors
    12.933600000  0.000000000  0.000000000     0.077317993  0.001182078  0.003022051
    -0.188584911 12.335058491  0.000000000     0.000000000  0.081069741  0.003925852
    -0.763582505 -0.964306328 19.913147573     0.000000000  0.000000000  0.050218078

  length of vectors

 
 k-points in units of 2pi/SCALE and weight: KPOINTS created by Atomic Simulation Env
   0.01932950  0.02056295  0.00173698       0.500
  -0.01932950  0.01997192  0.00022595       0.500
 
 k-points in reciprocal lattice and weights: KPOINTS created by Atomic Simulation Env
   0.25000000  0.25000000 -0.00000000       0.500
  -0.25000000  0.25000000 -0.00000000       0.500
 
 position of ions in fractional coordinates (direct lattice) 
   0.22140419  0.00353107  0.49970607
   0.05649733  0.10234896  0.49909143
   0.11040962  0.00274295  0.49890238
   0.27838639  0.10418482  0.50026373
   0.22512093  0.20584706  0.50046608
   0.05810633  0.30243295  0.49969882
   0.11363180  0.20336167  0.49990224
   0.28227322  0.30855258  0.50093856
   0.22461497  0.40955019  0.50144154
   0.05454745  0.50211557  0.49948067
   0.11303302  0.40426768  0.50021298
   0.21611384  0.60468673  0.50112555
   0.05202865  0.70303039  0.49813212
   0.10709178  0.60395934  0.49927685
   0.27165238  0.70560711  0.50105079
   0.21761290  0.80415184  0.49944133
   0.05310360  0.90256168  0.49804007
   0.10733315  0.80337206  0.49828237
   0.27530578  0.90330675  0.49991109
   0.55416720  0.99610125  0.49981717
   0.38916209  0.10071386  0.50026805
   0.44334680  0.99901487  0.50018025
   0.61117329  0.09672957  0.49949243
   0.55741166  0.19685739  0.49965664
   0.39351742  0.30302384  0.50039949
   0.44599801  0.20103766  0.50003963
   0.61560539  0.29523535  0.49889719
   0.56147947  0.39465524  0.49753842
   0.61702235  0.49537665  0.49698259
   0.60897477  0.69359497  0.49857936
   0.55019631  0.79210856  0.49969460
   0.38618769  0.89884026  0.50033093
   0.43750165  0.79527350  0.50087579
   0.60730507  0.89482476  0.49930152
   0.88750211  0.99991795  0.49805899
   0.72222028  0.09761496  0.49886164
   0.77617319  0.99795589  0.49838382
   0.94507456  0.10038852  0.49857558
   0.89062031  0.19947682  0.49870833
   0.72541174  0.29670739  0.49850255
   0.77971851  0.19758854  0.49864845
   0.94700578  0.30038364  0.49899688
   0.89104636  0.39900115  0.49860405
   0.72676494  0.49648287  0.49799461
   0.78099791  0.39740080  0.49824072
   0.94454932  0.50051542  0.49862827
   0.88834124  0.59998034  0.49787414
   0.72004283  0.69684974  0.49762837
   0.77850328  0.59848972  0.49770332
   0.94202301  0.70141860  0.49761419
   0.88601226  0.80007322  0.49740772
   0.71889677  0.89712876  0.49836408
   0.77482687  0.79827211  0.49765089
   0.94221326  0.90084848  0.49764157
   0.27295609  0.51105712  0.50350467
   0.45338463  0.39925617  0.50006930
   0.55943433  0.59130419  0.49812666
   0.37814529  0.70123191  0.50297800
   0.41596565  0.55110197  0.50365290
   0.49680297  0.51221460  0.58413154
 
 position of ions in cartesian coordinates  (Angst):
   2.48132051 -0.43831377  9.95072068
   0.33031496  0.78120334  9.93848133
   1.04652339 -0.44726024  9.93471668
   3.19889795  0.80271834  9.96182545
   2.49065727  2.05653293  9.96585500
   0.31292845  3.24866541  9.95057642
   1.04960074  2.02641915  9.95462705
   3.21011270  3.32295592  9.97526350
   2.44495320  4.56828224  9.98527943
   0.22940875  5.71197257  9.94623226
   1.00373123  4.50430691  9.96081484
   2.29844446  6.97560765  9.97898699
   0.15997186  8.19156908  9.91937843
   0.88994557  6.96841794  9.94217367
   2.99778272  8.22053853  9.97749831
   2.28150263  9.43764555  9.94544898
   0.13631654 10.65288792  9.91754537
   0.85622043  9.42914451  9.92237042
   3.00862144 10.66027413  9.95480334
   6.59787564 11.80499027  9.95293298
   4.63227773  0.75989965  9.96191158
   5.16374215 11.84057987  9.96016313
   7.50502541  0.71150113  9.94646655
   6.79068599  1.94642536  9.94973648
   4.65035491  3.25527846  9.96452882
   5.34862562  1.99761990  9.95736293
   7.52536774  3.16065562  9.93461333
   6.80761320  4.38831599  9.90755592
   7.50741253  5.63125653  9.89648769
   7.36472811  8.07475128  9.92828441
   6.58508117  9.28884674  9.95049228
   4.44324542 10.60477493  9.96316358
   5.12603481  9.32674742  9.97401360
   7.30463248 10.55623616  9.94266480
  10.90971871 11.85376495  9.91792209
   8.94157753  0.72303080  9.93390548
   9.46995703 11.82924963  9.92439062
  11.82358099  0.75751862  9.92820918
  11.10050352  1.97965061  9.93085256
   8.94558289  3.17919384  9.92675475
   9.66654593  1.95641640  9.92966007
  11.81052088  3.22406398  9.93659857
  11.06846622  4.44089546  9.92877607
   8.92579786  5.64392594  9.91664021
   9.64572290  4.42150549  9.92154102
  11.74128964  5.69305653  9.92925841
  10.99613503  6.92068940  9.91424125
   8.80135025  8.11581617  9.90934713
   9.57594639  6.90246718  9.91083971
  11.67150231  8.17218690  9.90906480
  10.92863465  9.38929658  9.90495338
   8.74819619 10.58556015  9.92399754
   9.49076125  9.36684531  9.90979563
  11.63633264 10.63213974  9.90961000
   3.04945983  5.81838674 10.02636281
   5.40675759  4.44262824  9.95795377
   6.74362801  6.81342513  9.91926978
   4.37447297  8.16471170 10.01587513
   4.89142331  6.31219933 10.02931457
   5.88282234  5.75491528 11.63189753
 


--------------------------------------------------------------------------------------------------------


 k-point  1 :   0.2500 0.2500-0.0000  plane waves:   80636
 k-point  2 :  -0.2500 0.2500-0.0000  plane waves:   80684

 maximum and minimum number of plane-waves per node :      3398     3322

 maximum number of plane-waves:     80684
 maximum index in each direction: 
   IXMAX=   23   IYMAX=   22   IZMAX=   36
   IXMIN=  -23   IYMIN=  -22   IZMIN=  -36


 parallel 3D FFT for wavefunctions:
    minimum data exchange during FFTs selected (reduces bandwidth)
 parallel 3D FFT for charge:
    minimum data exchange during FFTs selected (reduces bandwidth)


 FFT grid for exact exchange (Hartree Fock) 
  NGX = 72; NGY = 70; NGZ =112

 
 Radii for the augmentation spheres in the non-local exchange
 for species   1 augmentation radius   0.874 (default was   0.699)
       energy cutoff for augmentation   2000.0
 for species   2 augmentation radius   0.886 (default was   0.709)
       energy cutoff for augmentation   2000.0
 for species   3 augmentation radius   1.263 (default was   1.010)
       energy cutoff for augmentation   2000.0
 for species   4 augmentation radius   1.575 (default was   1.260)
       energy cutoff for augmentation   2000.0

 real space projection operators:
  total allocation   :       2878.85 KBytes
  max/ min on nodes  :        184.22         51.48

 Maximum index for augmentation-charges in exchange           45
  SETUP_FOCK is finished

 total amount of memory used by VASP MPI-rank0   209054. kBytes
=======================================================================

   base      :      30000. kBytes
   nonl-proj :       7193. kBytes
   fftplans  :      17540. kBytes
   grid      :      46049. kBytes
   one-center:         93. kBytes
   HF        :         23. kBytes
   nonlr-proj:       3141. kBytes
   wavefun   :     105015. kBytes
 
     INWAV:  cpu time    3.6388: real time    6.2133
 Broyden mixing: mesh for mixing (old mesh)
   NGX = 47   NGY = 45   NGZ = 73
  (NGX  =192   NGY  =180   NGZ  =300)
  gives a total of 154395 points

 charge density for first step will be calculated from the start-wavefunctions


--------------------------------------------------------------------------------------------------------


 Maximum index for augmentation-charges         1095 (set IRDMAX)


--------------------------------------------------------------------------------------------------------


 initial charge from wavefunction
 First call to EWALD:  gamma=   0.121
 Maximum number of real-space cells 3x 3x 2
 Maximum number of reciprocal cells 2x 2x 4

    FEWALD:  cpu time    0.0026: real time    0.0026


--------------------------------------- Iteration      1(   1)  ---------------------------------------


    POTLOK:  cpu time    2.0900: real time    2.0913
    SETDIJ:  cpu time    2.0875: real time    2.0882
    TRIAL :  cpu time  350.5575: real time  350.8750
    CORREC:  cpu time    0.0011: real time    0.0011
    CHARGE:  cpu time    1.4059: real time    1.4066
    --------------------------------------------
      LOOP:  cpu time  356.1780: real time  356.4993

 eigenvalue-minimisations  :     0
 total energy-change (2. order) :-0.6292598E+03  (-0.4192172E+00)
 number of electron     247.9999999 magnetization       0.9479816
 augmentation part       11.4674535 magnetization       0.2902536

 DIPCOR: dipole corrections for dipol
 direction  3 min pos     1,
 dipolmoment           0.016678      0.021062     -0.434936 electrons x Angstroem
 Tr[quadrupol]     -6853.203736

 energy correction for charged system         0.000000 eV
 dipol+quadrupol energy correction           -0.005449 eV
 added-field ion interaction          0.097018 eV  (added to PSCEN)


 Free energy of the ion-electron system (eV)
  ---------------------------------------------------
  alpha Z        PSCENC =       107.01402867
  Ewald energy   TEWEN  =     40189.09381812
  -Hartree energ DENC   =    -48472.65794435
  -exchange      EXHF   =       557.48045764
  -V(xc)+E(xc)   XCENC  =       605.69761563
  PAW double counting   =     26839.32579762   -26844.53515745
  entropy T*S    EENTRO =        -0.02954469
  eigenvalues    EBANDS =     -3189.57469300
  atomic energy  EATOM  =      9578.92767896
  ---------------------------------------------------
  free energy    TOTEN  =      -629.25984369 eV

  energy without entropy =     -629.23029900  energy(sigma->0) =     -629.24507134
  exchange ACFDT corr.  =        -0.02189329  see jH, gK, PRB 81, 115126


--------------------------------------------------------------------------------------------------------




--------------------------------------- Iteration      1(   2)  ---------------------------------------


    POTLOK:  cpu time    2.1072: real time    2.1115
    SETDIJ:  cpu time    2.0810: real time    2.0827
    TRIAL :  cpu time  351.4555: real time  351.7621
    CORREC:  cpu time    0.0011: real time    0.0011
    CHARGE:  cpu time    1.4061: real time    1.4076
    --------------------------------------------
      LOOP:  cpu time  357.0516: real time  357.3682

 eigenvalue-minimisations  :     0
 total energy-change (2. order) :-0.3300011E+00  (-0.3444521E+00)
 number of electron     247.9999999 magnetization       0.9613677
 augmentation part       11.4081830 magnetization       0.2961339

 DIPCOR: dipole corrections for dipol
 direction  3 min pos     1,
 dipolmoment           0.019659      0.024827     -0.512674 electrons x Angstroem
 Tr[quadrupol]     -6853.146873

 energy correction for charged system         0.000000 eV
 dipol+quadrupol energy correction           -0.007571 eV
 added-field ion interaction          0.114359 eV  (added to PSCEN)


 Free energy of the ion-electron system (eV)
  ---------------------------------------------------
  alpha Z        PSCENC =       107.02924726
  Ewald energy   TEWEN  =     40189.09381812
  -Hartree energ DENC   =    -48462.69391657
  -exchange      EXHF   =       557.32078959
  -V(xc)+E(xc)   XCENC  =       605.36737893
  PAW double counting   =     26977.13394659   -26982.11042160
  entropy T*S    EENTRO =        -0.02779559
  eigenvalues    EBANDS =     -3199.62882134
  atomic energy  EATOM  =      9578.92767896
  ---------------------------------------------------
  free energy    TOTEN  =      -629.58984475 eV

  energy without entropy =     -629.56204916  energy(sigma->0) =     -629.57594696
  exchange ACFDT corr.  =        -0.01814662  see jH, gK, PRB 81, 115126


--------------------------------------------------------------------------------------------------------




--------------------------------------- Iteration      1(   3)  ---------------------------------------


    POTLOK:  cpu time    2.1249: real time    2.1265
    SETDIJ:  cpu time    2.0761: real time    2.0775
    TRIAL :  cpu time  351.0347: real time  351.3248
    CORREC:  cpu time    0.0011: real time    0.0011
    CHARGE:  cpu time    1.4029: real time    1.4036
    --------------------------------------------
      LOOP:  cpu time  356.6405: real time  356.9374

 eigenvalue-minimisations  :     0
 total energy-change (2. order) :-0.2563650E+00  (-0.1807419E+00)
 number of electron     247.9999999 magnetization       0.9688781
 augmentation part       11.3909418 magnetization       0.3037032

 DIPCOR: dipole corrections for dipol
 direction  3 min pos     1,
 dipolmoment           0.018492      0.023353     -0.482242 electrons x Angstroem
 Tr[quadrupol]     -6852.944602

 energy correction for charged system         0.000000 eV
 dipol+quadrupol energy correction           -0.006699 eV
 added-field ion interaction          0.107570 eV  (added to PSCEN)


 Free energy of the ion-electron system (eV)
  ---------------------------------------------------
  alpha Z        PSCENC =       107.02333112
  Ewald energy   TEWEN  =     40189.09381812
  -Hartree energ DENC   =    -48443.96740152
  -exchange      EXHF   =       557.10290700
  -V(xc)+E(xc)   XCENC  =       604.88133076
  PAW double counting   =     27145.69763118   -27149.99919353
  entropy T*S    EENTRO =        -0.02621509
  eigenvalues    EBANDS =     -3218.57851624
  atomic energy  EATOM  =      9578.92767896
  ---------------------------------------------------
  free energy    TOTEN  =      -629.84620974 eV

  energy without entropy =     -629.81999465  energy(sigma->0) =     -629.83310219
  exchange ACFDT corr.  =        -0.01531454  see jH, gK, PRB 81, 115126


--------------------------------------------------------------------------------------------------------




--------------------------------------- Iteration      1(   4)  ---------------------------------------


    POTLOK:  cpu time    2.1292: real time    2.1326
    SETDIJ:  cpu time    2.0833: real time    2.0851
    TRIAL :  cpu time  351.2509: real time  351.5472
    CORREC:  cpu time    0.0011: real time    0.0011
    CHARGE:  cpu time    1.4045: real time    1.4061
    --------------------------------------------
      LOOP:  cpu time  356.8709: real time  357.1770

 eigenvalue-minimisations  :     0
 total energy-change (2. order) :-0.1362846E+00  (-0.1062484E+00)
 number of electron     247.9999999 magnetization       0.9693991
 augmentation part       11.4049054 magnetization       0.3092872

 DIPCOR: dipole corrections for dipol
 direction  3 min pos     1,
 dipolmoment           0.017971      0.022695     -0.468665 electrons x Angstroem
 Tr[quadrupol]     -6852.910001

 energy correction for charged system         0.000000 eV
 dipol+quadrupol energy correction           -0.006327 eV
 added-field ion interaction          0.104542 eV  (added to PSCEN)


 Free energy of the ion-electron system (eV)
  ---------------------------------------------------
  alpha Z        PSCENC =       107.02067455
  Ewald energy   TEWEN  =     40189.09381812
  -Hartree energ DENC   =    -48436.23245177
  -exchange      EXHF   =       557.12496745
  -V(xc)+E(xc)   XCENC  =       604.65358822
  PAW double counting   =     27287.98862095   -27292.08976127
  entropy T*S    EENTRO =        -0.02454090
  eigenvalues    EBANDS =     -3226.44341445
  atomic energy  EATOM  =      9578.92767896
  ---------------------------------------------------
  free energy    TOTEN  =      -629.98249435 eV

  energy without entropy =     -629.95795344  energy(sigma->0) =     -629.97022390
  exchange ACFDT corr.  =        -0.01352453  see jH, gK, PRB 81, 115126


--------------------------------------------------------------------------------------------------------




--------------------------------------- Iteration      1(   5)  ---------------------------------------


    POTLOK:  cpu time    2.1261: real time    2.1282
    SETDIJ:  cpu time    2.0795: real time    2.0806
    TRIAL :  cpu time  351.7419: real time  352.0408
    CORREC:  cpu time    0.0011: real time    0.0011
    CHARGE:  cpu time    1.4011: real time    1.4021
    --------------------------------------------
      LOOP:  cpu time  357.3508: real time  357.6562

 eigenvalue-minimisations  :     0
 total energy-change (2. order) :-0.8426913E-01  (-0.6744374E-01)
 number of electron     247.9999999 magnetization       0.9687291
 augmentation part       11.4188789 magnetization       0.3132354

 DIPCOR: dipole corrections for dipol
 direction  3 min pos     1,
 dipolmoment           0.019327      0.024408     -0.504031 electrons x Angstroem
 Tr[quadrupol]     -6853.047313

 energy correction for charged system         0.000000 eV
 dipol+quadrupol energy correction           -0.007318 eV
 added-field ion interaction          0.112431 eV  (added to PSCEN)


 Free energy of the ion-electron system (eV)
  ---------------------------------------------------
  alpha Z        PSCENC =       107.02757243
  Ewald energy   TEWEN  =     40189.09381812
  -Hartree energ DENC   =    -48440.08900754
  -exchange      EXHF   =       557.36425627
  -V(xc)+E(xc)   XCENC  =       604.70203487
  PAW double counting   =     27388.86371557   -27393.15535045
  entropy T*S    EENTRO =        -0.02295049
  eigenvalues    EBANDS =     -3222.77694081
  atomic energy  EATOM  =      9578.92767896
  ---------------------------------------------------
  free energy    TOTEN  =      -630.06676348 eV

  energy without entropy =     -630.04381299  energy(sigma->0) =     -630.05528824
  exchange ACFDT corr.  =        -0.01199488  see jH, gK, PRB 81, 115126


--------------------------------------------------------------------------------------------------------




--------------------------------------- Iteration      1(   6)  ---------------------------------------


    POTLOK:  cpu time    2.1206: real time    2.1222
    SETDIJ:  cpu time    2.0754: real time    2.0778
    TRIAL :  cpu time  351.0853: real time  351.3958
    CORREC:  cpu time    0.0011: real time    0.0011
    CHARGE:  cpu time    1.4013: real time    1.4019
    --------------------------------------------
      LOOP:  cpu time  356.6845: real time  357.0030

 eigenvalue-minimisations  :     0
 total energy-change (2. order) :-0.5604663E-01  (-0.4597701E-01)
 number of electron     247.9999999 magnetization       0.9687814
 augmentation part       11.4257100 magnetization       0.3153095

 DIPCOR: dipole corrections for dipol
 direction  3 min pos     1,
 dipolmoment           0.020604      0.026020     -0.537326 electrons x Angstroem
 Tr[quadrupol]     -6853.203146

 energy correction for charged system         0.000000 eV
 dipol+quadrupol energy correction           -0.008317 eV
 added-field ion interaction          0.119858 eV  (added to PSCEN)


 Free energy of the ion-electron system (eV)
  ---------------------------------------------------
  alpha Z        PSCENC =       107.03400051
  Ewald energy   TEWEN  =     40189.09381812
  -Hartree energ DENC   =    -48446.22619753
  -exchange      EXHF   =       557.63990204
  -V(xc)+E(xc)   XCENC  =       604.83541889
  PAW double counting   =     27452.01479588   -27456.41630392
  entropy T*S    EENTRO =        -0.02161233
  eigenvalues    EBANDS =     -3217.00297256
  atomic energy  EATOM  =      9578.92767896
  ---------------------------------------------------
  free energy    TOTEN  =      -630.12281011 eV

  energy without entropy =     -630.10119778  energy(sigma->0) =     -630.11200394
  exchange ACFDT corr.  =        -0.01073637  see jH, gK, PRB 81, 115126


--------------------------------------------------------------------------------------------------------




--------------------------------------- Iteration      1(   7)  ---------------------------------------


    POTLOK:  cpu time    2.1140: real time    2.1157
    SETDIJ:  cpu time    2.0751: real time    2.0764
    TRIAL :  cpu time  351.1181: real time  351.4450
    CORREC:  cpu time    0.0010: real time    0.0010
    CHARGE:  cpu time    1.3937: real time    1.3958
    --------------------------------------------
      LOOP:  cpu time  356.7027: real time  357.0378

 eigenvalue-minimisations  :     0
 total energy-change (2. order) :-0.3897417E-01  (-0.3151423E-01)
 number of electron     247.9999999 magnetization       0.9694543
 augmentation part       11.4312928 magnetization       0.3156116

 DIPCOR: dipole corrections for dipol
 direction  3 min pos     1,
 dipolmoment           0.021293      0.026890     -0.555293 electrons x Angstroem
 Tr[quadrupol]     -6853.319561

 energy correction for charged system         0.000000 eV
 dipol+quadrupol energy correction           -0.008882 eV
 added-field ion interaction          0.123865 eV  (added to PSCEN)


 Free energy of the ion-electron system (eV)
  ---------------------------------------------------
  alpha Z        PSCENC =       107.03744281
  Ewald energy   TEWEN  =     40189.09381812
  -Hartree energ DENC   =    -48450.87603505
  -exchange      EXHF   =       557.86134085
  -V(xc)+E(xc)   XCENC  =       604.95461863
  PAW double counting   =     27488.16435880   -27492.55109586
  entropy T*S    EENTRO =        -0.02057744
  eigenvalues    EBANDS =     -3212.75229921
  atomic energy  EATOM  =      9578.92767896
  ---------------------------------------------------
  free energy    TOTEN  =      -630.16178428 eV

  energy without entropy =     -630.14120684  energy(sigma->0) =     -630.15149556
  exchange ACFDT corr.  =        -0.00977867  see jH, gK, PRB 81, 115126


--------------------------------------------------------------------------------------------------------




--------------------------------------- Iteration      1(   8)  ---------------------------------------


    POTLOK:  cpu time    2.1084: real time    2.1095
    SETDIJ:  cpu time    2.0750: real time    2.0762
    TRIAL :  cpu time  350.5492: real time  351.4307
    CORREC:  cpu time    0.0010: real time    0.0010
    CHARGE:  cpu time    1.3938: real time    1.3944
    --------------------------------------------
      LOOP:  cpu time  356.1281: real time  357.0157

 eigenvalue-minimisations  :     0
 total energy-change (2. order) :-0.2767743E-01  (-0.2346878E-01)
 number of electron     247.9999999 magnetization       0.9708011
 augmentation part       11.4369669 magnetization       0.3148705

 DIPCOR: dipole corrections for dipol
 direction  3 min pos     1,
 dipolmoment           0.021770      0.027492     -0.567721 electrons x Angstroem
 Tr[quadrupol]     -6853.403362

 energy correction for charged system         0.000000 eV
 dipol+quadrupol energy correction           -0.009284 eV
 added-field ion interaction          0.126638 eV  (added to PSCEN)


 Free energy of the ion-electron system (eV)
  ---------------------------------------------------
  alpha Z        PSCENC =       107.03981296
  Ewald energy   TEWEN  =     40189.09381812
  -Hartree energ DENC   =    -48454.24503433
  -exchange      EXHF   =       558.01917452
  -V(xc)+E(xc)   XCENC  =       605.04406293
  PAW double counting   =     27507.77631127   -27512.17361178
  entropy T*S    EENTRO =        -0.01981952
  eigenvalues    EBANDS =     -3209.65109692
  atomic energy  EATOM  =      9578.92767896
  ---------------------------------------------------
  free energy    TOTEN  =      -630.18946170 eV

  energy without entropy =     -630.16964218  energy(sigma->0) =     -630.17955194
  exchange ACFDT corr.  =        -0.00908551  see jH, gK, PRB 81, 115126


--------------------------------------------------------------------------------------------------------




--------------------------------------- Iteration      1(   9)  ---------------------------------------


    POTLOK:  cpu time    2.1021: real time    2.1053
    SETDIJ:  cpu time    2.0748: real time    2.0760
    TRIAL :  cpu time  350.3475: real time  350.6467
    CORREC:  cpu time    0.0011: real time    0.0011
    CHARGE:  cpu time    1.3952: real time    1.3960
    --------------------------------------------
      LOOP:  cpu time  355.9216: real time  356.2293

 eigenvalue-minimisations  :     0
 total energy-change (2. order) :-0.2104667E-01  (-0.1806334E-01)
 number of electron     247.9999999 magnetization       0.9726917
 augmentation part       11.4408691 magnetization       0.3134141

 DIPCOR: dipole corrections for dipol
 direction  3 min pos     1,
 dipolmoment           0.022046      0.027841     -0.574933 electrons x Angstroem
 Tr[quadrupol]     -6853.458105

 energy correction for charged system         0.000000 eV
 dipol+quadrupol energy correction           -0.009522 eV
 added-field ion interaction          0.128246 eV  (added to PSCEN)


 Free energy of the ion-electron system (eV)
  ---------------------------------------------------
  alpha Z        PSCENC =       107.04118431
  Ewald energy   TEWEN  =     40189.09381812
  -Hartree energ DENC   =    -48456.32374435
  -exchange      EXHF   =       558.12060764
  -V(xc)+E(xc)   XCENC  =       605.09980914
  PAW double counting   =     27517.69630095   -27522.14131526
  entropy T*S    EENTRO =        -0.01926740
  eigenvalues    EBANDS =     -3207.70502836
  atomic energy  EATOM  =      9578.92767896
  ---------------------------------------------------
  free energy    TOTEN  =      -630.21050837 eV

  energy without entropy =     -630.19124097  energy(sigma->0) =     -630.20087467
  exchange ACFDT corr.  =        -0.00860155  see jH, gK, PRB 81, 115126


--------------------------------------------------------------------------------------------------------




--------------------------------------- Iteration      1(  10)  ---------------------------------------


    POTLOK:  cpu time    2.1003: real time    2.1013
    SETDIJ:  cpu time    2.0768: real time    2.0778
    TRIAL :  cpu time  350.3149: real time  350.6088
    CORREC:  cpu time    0.0010: real time    0.0010
    CHARGE:  cpu time    1.3970: real time    1.3987
    --------------------------------------------
      LOOP:  cpu time  355.8910: real time  356.1922

 eigenvalue-minimisations  :     0
 total energy-change (2. order) :-0.1650608E-01  (-0.1443577E-01)
 number of electron     247.9999999 magnetization       0.9746033
 augmentation part       11.4431052 magnetization       0.3112279

 DIPCOR: dipole corrections for dipol
 direction  3 min pos     1,
 dipolmoment           0.022073      0.027875     -0.575623 electrons x Angstroem
 Tr[quadrupol]     -6853.487011

 energy correction for charged system         0.000000 eV
 dipol+quadrupol energy correction           -0.009545 eV
 added-field ion interaction          0.128400 eV  (added to PSCEN)


 Free energy of the ion-electron system (eV)
  ---------------------------------------------------
  alpha Z        PSCENC =       107.04131535
  Ewald energy   TEWEN  =     40189.09381812
  -Hartree energ DENC   =    -48457.06753685
  -exchange      EXHF   =       558.17918426
  -V(xc)+E(xc)   XCENC  =       605.12462705
  PAW double counting   =     27521.86724197   -27526.34268624
  entropy T*S    EENTRO =        -0.01884200
  eigenvalues    EBANDS =     -3207.03138968
  atomic energy  EATOM  =      9578.92767896
  ---------------------------------------------------
  free energy    TOTEN  =      -630.22701445 eV

  energy without entropy =     -630.20817245  energy(sigma->0) =     -630.21759345
  exchange ACFDT corr.  =        -0.00826279  see jH, gK, PRB 81, 115126


--------------------------------------------------------------------------------------------------------




--------------------------------------- Iteration      1(  11)  ---------------------------------------


    POTLOK:  cpu time    2.0963: real time    2.0984
    SETDIJ:  cpu time    2.0894: real time    2.0914
    TRIAL :  cpu time  349.4100: real time  349.7038
    CORREC:  cpu time    0.0010: real time    0.0010
    CHARGE:  cpu time    1.3955: real time    1.3969
    --------------------------------------------
      LOOP:  cpu time  354.9938: real time  355.2956

 eigenvalue-minimisations  :     0
 total energy-change (2. order) :-0.1337965E-01  (-0.1185657E-01)
 number of electron     247.9999999 magnetization       0.9761016
 augmentation part       11.4451679 magnetization       0.3084045

 DIPCOR: dipole corrections for dipol
 direction  3 min pos     1,
 dipolmoment           0.022062      0.027862     -0.575348 electrons x Angstroem
 Tr[quadrupol]     -6853.504273

 energy correction for charged system         0.000000 eV
 dipol+quadrupol energy correction           -0.009535 eV
 added-field ion interaction          0.128339 eV  (added to PSCEN)


 Free energy of the ion-electron system (eV)
  ---------------------------------------------------
  alpha Z        PSCENC =       107.04126309
  Ewald energy   TEWEN  =     40189.09381812
  -Hartree energ DENC   =    -48457.17988864
  -exchange      EXHF   =       558.21671437
  -V(xc)+E(xc)   XCENC  =       605.13505265
  PAW double counting   =     27523.02755084   -27527.51152031
  entropy T*S    EENTRO =        -0.01848930
  eigenvalues    EBANDS =     -3206.97222120
  atomic energy  EATOM  =      9578.92767896
  ---------------------------------------------------
  free energy    TOTEN  =      -630.24039410 eV

  energy without entropy =     -630.22190480  energy(sigma->0) =     -630.23114945
  exchange ACFDT corr.  =        -0.00801014  see jH, gK, PRB 81, 115126


--------------------------------------------------------------------------------------------------------




--------------------------------------- Iteration      1(  12)  ---------------------------------------


    POTLOK:  cpu time    2.0981: real time    2.1001
    SETDIJ:  cpu time    2.0716: real time    2.0751
    TRIAL :  cpu time  349.5077: real time  349.8087
    CORREC:  cpu time    0.0009: real time    0.0009
    CHARGE:  cpu time    1.3931: real time    1.3948
    --------------------------------------------
      LOOP:  cpu time  355.0725: real time  355.3834

 eigenvalue-minimisations  :     0
 total energy-change (2. order) :-0.1116372E-01  (-0.1010679E-01)
 number of electron     247.9999999 magnetization       0.9771738
 augmentation part       11.4474379 magnetization       0.3051138

 DIPCOR: dipole corrections for dipol
 direction  3 min pos     1,
 dipolmoment           0.022215      0.028054     -0.579325 electrons x Angstroem
 Tr[quadrupol]     -6853.523113

 energy correction for charged system         0.000000 eV
 dipol+quadrupol energy correction           -0.009668 eV
 added-field ion interaction          0.129226 eV  (added to PSCEN)


 Free energy of the ion-electron system (eV)
  ---------------------------------------------------
  alpha Z        PSCENC =       107.04201806
  Ewald energy   TEWEN  =     40189.09381812
  -Hartree energ DENC   =    -48457.42111460
  -exchange      EXHF   =       558.25052797
  -V(xc)+E(xc)   XCENC  =       605.14685169
  PAW double counting   =     27523.31123600   -27527.80882472
  entropy T*S    EENTRO =        -0.01818972
  eigenvalues    EBANDS =     -3206.77525999
  atomic energy  EATOM  =      9578.92767896
  ---------------------------------------------------
  free energy    TOTEN  =      -630.25155781 eV

  energy without entropy =     -630.23336810  energy(sigma->0) =     -630.24246296
  exchange ACFDT corr.  =        -0.00780526  see jH, gK, PRB 81, 115126


--------------------------------------------------------------------------------------------------------




--------------------------------------- Iteration      1(  13)  ---------------------------------------


    POTLOK:  cpu time    2.0934: real time    2.0943
    SETDIJ:  cpu time    2.0754: real time    2.0789
    TRIAL :  cpu time  349.0641: real time  349.3542
    CORREC:  cpu time    0.0010: real time    0.0010
    CHARGE:  cpu time    1.3944: real time    1.3955
    --------------------------------------------
      LOOP:  cpu time  354.6305: real time  354.9283

 eigenvalue-minimisations  :     0
 total energy-change (2. order) :-0.9634376E-02  (-0.8863825E-02)
 number of electron     247.9999999 magnetization       0.9780187
 augmentation part       11.4494024 magnetization       0.3013845

 DIPCOR: dipole corrections for dipol
 direction  3 min pos     1,
 dipolmoment           0.022458      0.028361     -0.585669 electrons x Angstroem
 Tr[quadrupol]     -6853.545109

 energy correction for charged system         0.000000 eV
 dipol+quadrupol energy correction           -0.009881 eV
 added-field ion interaction          0.130641 eV  (added to PSCEN)


 Free energy of the ion-electron system (eV)
  ---------------------------------------------------
  alpha Z        PSCENC =       107.04322016
  Ewald energy   TEWEN  =     40189.09381812
  -Hartree energ DENC   =    -48457.90456429
  -exchange      EXHF   =       558.28473905
  -V(xc)+E(xc)   XCENC  =       605.16284118
  PAW double counting   =     27523.71412722   -27528.23398010
  entropy T*S    EENTRO =        -0.01794145
  eigenvalues    EBANDS =     -3206.33088277
  atomic energy  EATOM  =      9578.92767896
  ---------------------------------------------------
  free energy    TOTEN  =      -630.26119219 eV

  energy without entropy =     -630.24325074  energy(sigma->0) =     -630.25222147
  exchange ACFDT corr.  =        -0.00763416  see jH, gK, PRB 81, 115126


--------------------------------------------------------------------------------------------------------




--------------------------------------- Iteration      1(  14)  ---------------------------------------


    POTLOK:  cpu time    2.0915: real time    2.0931
    SETDIJ:  cpu time    2.0754: real time    2.0779
    TRIAL :  cpu time  349.1659: real time  349.4476
    CORREC:  cpu time    0.0010: real time    0.0010
    CHARGE:  cpu time    1.3939: real time    1.3956
    --------------------------------------------
      LOOP:  cpu time  354.7290: real time  355.0191

 eigenvalue-minimisations  :     0
 total energy-change (2. order) :-0.8532118E-02  (-0.7971938E-02)
 number of electron     247.9999999 magnetization       0.9787503
 augmentation part       11.4509426 magnetization       0.2972538

 DIPCOR: dipole corrections for dipol
 direction  3 min pos     1,
 dipolmoment           0.022638      0.028588     -0.590356 electrons x Angstroem
 Tr[quadrupol]     -6853.565674

 energy correction for charged system         0.000000 eV
 dipol+quadrupol energy correction           -0.010039 eV
 added-field ion interaction          0.131687 eV  (added to PSCEN)


 Free energy of the ion-electron system (eV)
  ---------------------------------------------------
  alpha Z        PSCENC =       107.04410688
  Ewald energy   TEWEN  =     40189.09381812
  -Hartree energ DENC   =    -48458.37332762
  -exchange      EXHF   =       558.31642145
  -V(xc)+E(xc)   XCENC  =       605.17856896
  PAW double counting   =     27524.40914168   -27528.94624736
  entropy T*S    EENTRO =        -0.01774155
  eigenvalues    EBANDS =     -3205.90194393
  atomic energy  EATOM  =      9578.92767896
  ---------------------------------------------------
  free energy    TOTEN  =      -630.26972431 eV

  energy without entropy =     -630.25198276  energy(sigma->0) =     -630.26085353
  exchange ACFDT corr.  =        -0.00749503  see jH, gK, PRB 81, 115126


--------------------------------------------------------------------------------------------------------




--------------------------------------- Iteration      1(  15)  ---------------------------------------


    POTLOK:  cpu time    2.0897: real time    2.0911
    SETDIJ:  cpu time    2.0772: real time    2.0780
    TRIAL :  cpu time  349.3396: real time  349.6516
    CORREC:  cpu time    0.0016: real time    0.0016
    CHARGE:  cpu time    1.3895: real time    1.3903
    --------------------------------------------
      LOOP:  cpu time  354.8986: real time  355.2167

 eigenvalue-minimisations  :     0
 total energy-change (2. order) :-0.7728857E-02  (-0.7305954E-02)
 number of electron     247.9999999 magnetization       0.9793684
 augmentation part       11.4523758 magnetization       0.2928613

 DIPCOR: dipole corrections for dipol
 direction  3 min pos     1,
 dipolmoment           0.022720      0.028693     -0.592511 electrons x Angstroem
 Tr[quadrupol]     -6853.582762

 energy correction for charged system         0.000000 eV
 dipol+quadrupol energy correction           -0.010113 eV
 added-field ion interaction          0.132167 eV  (added to PSCEN)


 Free energy of the ion-electron system (eV)
  ---------------------------------------------------
  alpha Z        PSCENC =       107.04451425
  Ewald energy   TEWEN  =     40189.09381812
  -Hartree energ DENC   =    -48458.71206389
  -exchange      EXHF   =       558.34408801
  -V(xc)+E(xc)   XCENC  =       605.19180243
  PAW double counting   =     27525.40029410   -27529.94685323
  entropy T*S    EENTRO =        -0.01758143
  eigenvalues    EBANDS =     -3205.60299035
  atomic energy  EATOM  =      9578.92767896
  ---------------------------------------------------
  free energy    TOTEN  =      -630.27745317 eV

  energy without entropy =     -630.25987174  energy(sigma->0) =     -630.26866245
  exchange ACFDT corr.  =        -0.00738544  see jH, gK, PRB 81, 115126


--------------------------------------------------------------------------------------------------------




--------------------------------------- Iteration      1(  16)  ---------------------------------------


    POTLOK:  cpu time    2.0892: real time    2.0901
    SETDIJ:  cpu time    2.0734: real time    2.0766
    TRIAL :  cpu time  349.1923: real time  349.4691
    CORREC:  cpu time    0.0010: real time    0.0010
    CHARGE:  cpu time    1.3856: real time    1.3868
    --------------------------------------------
      LOOP:  cpu time  354.7431: real time  355.0277

 eigenvalue-minimisations  :     0
 total energy-change (2. order) :-0.7122356E-02  (-0.6801010E-02)
 number of electron     247.9999999 magnetization       0.9798673
 augmentation part       11.4537853 magnetization       0.2882721

 DIPCOR: dipole corrections for dipol
 direction  3 min pos     1,
 dipolmoment           0.022773      0.028759     -0.593875 electrons x Angstroem
 Tr[quadrupol]     -6853.597542

 energy correction for charged system         0.000000 eV
 dipol+quadrupol energy correction           -0.010160 eV
 added-field ion interaction          0.132472 eV  (added to PSCEN)


 Free energy of the ion-electron system (eV)
  ---------------------------------------------------
  alpha Z        PSCENC =       107.04477193
  Ewald energy   TEWEN  =     40189.09381812
  -Hartree energ DENC   =    -48458.99068584
  -exchange      EXHF   =       558.36897461
  -V(xc)+E(xc)   XCENC  =       605.20368893
  PAW double counting   =     27526.66056201   -27531.21658122
  entropy T*S    EENTRO =        -0.01745143
  eigenvalues    EBANDS =     -3205.35922160
  atomic energy  EATOM  =      9578.92767896
  ---------------------------------------------------
  free energy    TOTEN  =      -630.28457552 eV

  energy without entropy =     -630.26712409  energy(sigma->0) =     -630.27584981
  exchange ACFDT corr.  =        -0.00729957  see jH, gK, PRB 81, 115126


--------------------------------------------------------------------------------------------------------




--------------------------------------- Iteration      1(  17)  ---------------------------------------


    POTLOK:  cpu time    2.0945: real time    2.0984
    SETDIJ:  cpu time    2.0716: real time    2.0735
    TRIAL :  cpu time  348.7845: real time  349.0640
    CORREC:  cpu time    0.0010: real time    0.0010
    CHARGE:  cpu time    1.3855: real time    1.3864
    --------------------------------------------
      LOOP:  cpu time  354.3395: real time  354.6284

 eigenvalue-minimisations  :     0
 total energy-change (2. order) :-0.6658752E-02  (-0.6407031E-02)
 number of electron     247.9999999 magnetization       0.9802718
 augmentation part       11.4549949 magnetization       0.2834331

 DIPCOR: dipole corrections for dipol
 direction  3 min pos     1,
 dipolmoment           0.022843      0.028848     -0.595709 electrons x Angstroem
 Tr[quadrupol]     -6853.610935

 energy correction for charged system         0.000000 eV
 dipol+quadrupol energy correction           -0.010222 eV
 added-field ion interaction          0.132881 eV  (added to PSCEN)


 Free energy of the ion-electron system (eV)
  ---------------------------------------------------
  alpha Z        PSCENC =       107.04511809
  Ewald energy   TEWEN  =     40189.09381812
  -Hartree energ DENC   =    -48459.25455100
  -exchange      EXHF   =       558.39227055
  -V(xc)+E(xc)   XCENC  =       605.21526636
  PAW double counting   =     27528.06164788   -27532.62952204
  entropy T*S    EENTRO =        -0.01734433
  eigenvalues    EBANDS =     -3205.12550976
  atomic energy  EATOM  =      9578.92767896
  ---------------------------------------------------
  free energy    TOTEN  =      -630.29123427 eV

  energy without entropy =     -630.27388994  energy(sigma->0) =     -630.28256211
  exchange ACFDT corr.  =        -0.00723135  see jH, gK, PRB 81, 115126


[...]


 VOLUME and BASIS-vectors are now :
 -----------------------------------------------------------------------------
  energy-cutoff  :      500.00
  volume of cell :     3176.88
      direct lattice vectors                 reciprocal lattice vectors
    12.933600000  0.000000000  0.000000000     0.077317993  0.001182078  0.003022051
    -0.188584911 12.335058491  0.000000000     0.000000000  0.081069741  0.003925852
    -0.763582505 -0.964306328 19.913147573     0.000000000  0.000000000  0.050218078

  length of vectors
    12.933600000 12.336500000 19.951100000     0.077386060  0.081164741  0.050218078


 FORCES acting on ions:
    Electron-Ion                     Ewald-Force                    Non-Local-Force
 -----------------------------------------------------------------------------------------------
   0.338E+01 -.658E+01 0.136E+01   -.362E+01 0.680E+01 -.141E+01   0.235E+00 -.297E+00 0.356E-01
   0.297E+01 -.301E+01 0.248E+01   -.292E+01 0.290E+01 -.252E+01   -.140E-01 0.190E-01 0.364E-01
   0.800E+00 -.275E+01 0.373E+01   -.829E+00 0.290E+01 -.375E+01   0.202E-01 -.480E-01 0.229E-01
   0.476E+01 -.436E+00 -.353E+00   -.492E+01 0.482E+00 0.314E+00   0.165E+00 0.159E-01 0.280E-01
   0.442E+01 0.397E+01 -.499E+00   -.452E+01 -.405E+01 0.439E+00   0.101E+00 0.176E-01 0.512E-01
   0.307E+01 0.671E+01 0.135E+01   -.308E+01 -.711E+01 -.140E+01   -.480E-02 0.306E+00 0.473E-01
   -.339E+00 0.667E+01 -.139E+00   0.279E+00 -.672E+01 0.123E+00   0.504E-01 0.124E+00 0.677E-02
   0.166E+02 0.155E+02 0.168E+01   -.168E+02 -.156E+02 -.187E+01   0.294E+00 0.578E-01 0.178E+00
   0.196E+02 0.486E+02 0.118E+01   -.213E+02 -.518E+02 -.145E+01   0.156E+01 0.333E+01 0.268E+00
   0.114E+02 0.900E+01 0.249E+01   -.117E+02 -.927E+01 -.251E+01   0.297E+00 0.190E+00 0.613E-02
   0.102E+02 0.151E+02 0.137E+01   -.105E+02 -.154E+02 -.142E+01   0.259E+00 0.396E+00 0.409E-01
   0.419E+02 -.245E+02 0.275E+01   -.439E+02 0.271E+02 -.288E+01   0.197E+01 -.282E+01 0.164E+00
   0.950E+01 -.519E+01 0.884E+01   -.969E+01 0.558E+01 -.886E+01   0.167E+00 -.372E+00 0.324E-01
   0.228E+02 -.565E+01 0.673E+01   -.234E+02 0.611E+01 -.678E+01   0.644E+00 -.334E+00 0.752E-01
   0.435E+02 -.259E+02 0.292E+01   -.468E+02 0.264E+02 -.302E+01   0.339E+01 -.270E+00 0.138E+00
   0.157E+02 -.198E+02 0.641E+01   -.164E+02 0.201E+02 -.645E+01   0.576E+00 -.448E+00 0.682E-01
   0.610E+01 -.865E+01 0.764E+01   -.615E+01 0.872E+01 -.767E+01   0.440E-01 -.144E+00 0.464E-01
   0.755E+01 -.989E+01 0.851E+01   -.801E+01 0.100E+02 -.854E+01   0.402E+00 -.570E-01 0.323E-01
   0.189E+01 -.182E+02 0.175E+01   -.203E+01 0.188E+02 -.176E+01   0.153E+00 -.483E+00 0.127E-01
   -.261E+01 0.114E+01 0.341E+00   0.270E+01 -.130E+01 -.366E+00   -.857E-01 0.627E-01 0.148E-01
   0.187E+01 0.938E+01 0.391E+00   -.218E+01 -.973E+01 -.440E+00   0.266E+00 0.289E+00 0.340E-01
   -.404E+00 -.596E+01 0.366E+00   0.756E+00 0.617E+01 -.432E+00   -.306E+00 -.131E+00 0.509E-01
   -.359E+01 0.978E+01 0.163E+01   0.372E+01 -.101E+02 -.170E+01   -.156E+00 0.438E+00 0.775E-01
   0.727E+00 0.221E+02 0.323E+01   -.612E+00 -.230E+02 -.330E+01   -.521E-01 0.674E+00 0.513E-01
   0.310E+02 0.432E+02 0.893E+01   -.337E+02 -.469E+02 -.920E+01   0.265E+01 0.357E+01 0.281E+00
   0.424E+01 0.201E+02 0.453E+01   -.438E+01 -.206E+02 -.463E+01   0.678E-01 0.630E+00 0.102E+00
   -.165E+02 0.244E+02 0.945E+01   0.174E+02 -.254E+02 -.956E+01   -.842E+00 0.117E+01 0.673E-01
   -.439E+02 0.397E+02 0.437E+02   0.476E+02 -.412E+02 -.461E+02   -.358E+01 0.132E+01 0.232E+01
   -.536E+02 0.183E+02 0.446E+02   0.568E+02 -.209E+02 -.469E+02   -.301E+01 0.252E+01 0.222E+01
   -.189E+02 -.499E+02 0.146E+02   0.208E+02 0.541E+02 -.148E+02   -.180E+01 -.416E+01 0.225E+00
   -.565E+01 -.217E+02 0.526E+01   0.563E+01 0.220E+02 -.543E+01   0.906E-01 -.339E+00 0.173E+00
   -.505E+01 -.152E+02 0.129E+01   0.514E+01 0.156E+02 -.132E+01   -.945E-01 -.428E+00 0.287E-01
   -.293E+02 -.449E+02 0.304E+01   0.312E+02 0.479E+02 -.329E+01   -.208E+01 -.297E+01 0.245E+00
   -.286E+01 -.379E+01 0.305E+01   0.287E+01 0.399E+01 -.310E+01   0.785E-03 -.922E-01 0.558E-01
   0.238E+01 -.370E+01 0.586E+01   -.238E+01 0.371E+01 -.589E+01   -.342E-02 -.568E-01 0.419E-01
   -.144E+01 0.441E+01 0.305E+01   0.155E+01 -.456E+01 -.309E+01   -.457E-01 0.999E-01 0.377E-01
   -.373E+01 0.335E+01 0.452E+01   0.380E+01 -.327E+01 -.455E+01   -.542E-01 0.302E-01 0.306E-01
   -.396E+01 0.438E+01 0.384E+01   0.398E+01 -.441E+01 -.387E+01   -.441E-01 0.110E+00 0.277E-01
   -.211E+01 0.262E+01 0.356E+01   0.226E+01 -.282E+01 -.359E+01   -.156E+00 0.919E-01 0.364E-01
   -.129E+02 0.114E+02 0.759E+01   0.135E+02 -.116E+02 -.769E+01   -.577E+00 0.185E+00 0.102E+00
   -.874E+01 0.103E+02 0.441E+01   0.892E+01 -.106E+02 -.446E+01   -.162E+00 0.240E+00 0.568E-01
   -.470E+01 0.729E+01 0.291E+01   0.485E+01 -.733E+01 -.294E+01   -.129E+00 0.141E+00 0.358E-01
   -.640E+01 0.658E+01 0.473E+01   0.668E+01 -.674E+01 -.477E+01   -.196E+00 0.122E+00 0.437E-01
   -.277E+02 0.391E+01 0.119E+02   0.291E+02 -.430E+01 -.120E+02   -.139E+01 0.175E+00 0.699E-01
   -.147E+02 0.868E+01 0.838E+01   0.151E+02 -.904E+01 -.849E+01   -.409E+00 0.443E+00 0.111E+00
   0.689E+00 -.650E+00 0.455E+01   -.855E+00 0.607E+00 -.460E+01   0.183E+00 0.344E-01 0.437E-01
   -.588E+01 -.650E+00 0.767E+01   0.611E+01 0.675E+00 -.772E+01   -.302E+00 -.671E-01 0.571E-01
   -.139E+02 -.156E+02 0.130E+02   0.144E+02 0.161E+02 -.132E+02   -.546E+00 -.434E+00 0.147E+00
   -.149E+02 -.124E+02 0.107E+02   0.155E+02 0.128E+02 -.108E+02   -.462E+00 -.370E+00 0.906E-01
   0.262E+01 -.626E+01 0.881E+01   -.257E+01 0.653E+01 -.885E+01   -.321E-01 -.143E+00 0.378E-01
   0.265E+01 -.690E+01 0.917E+01   -.260E+01 0.697E+01 -.920E+01   -.189E-01 -.143E+00 0.457E-01
   0.547E+00 -.750E+01 0.549E+01   -.566E+00 0.758E+01 -.554E+01   0.270E-01 -.150E+00 0.466E-01
   -.619E+01 -.916E+01 0.892E+01   0.625E+01 0.962E+01 -.896E+01   -.769E-01 -.351E+00 0.479E-01
   0.436E-01 -.293E+01 0.805E+01   -.862E-01 0.312E+01 -.807E+01   0.580E-01 -.106E+00 0.338E-01
   0.680E+01 0.344E+02 -.146E+02   0.118E+02 -.339E+02 0.157E+02   -.177E+02 -.526E+00 -.113E+01
   0.441E+02 0.373E+02 0.412E+02   -.544E+02 -.231E+02 -.455E+02   0.989E+01 -.133E+02 0.394E+01
   -.106E+02 -.547E+02 0.564E+02   -.661E+01 0.560E+02 -.613E+02   0.163E+02 -.139E+01 0.449E+01
   -.265E+02 -.210E+02 -.111E+02   0.357E+02 0.441E+01 0.121E+02   -.874E+01 0.158E+02 -.968E+00
   0.419E+02 -.230E+02 0.426E+02   -.500E+02 0.275E+02 -.509E+02   0.618E+01 -.350E+01 0.537E+01
   -.220E+02 0.102E+02 -.478E+03   0.230E+02 -.107E+02 0.480E+03   0.538E+00 -.335E+00 0.159E+01
 -----------------------------------------------------------------------------------------------
   -.329E+01 0.204E+01 -.227E+02   -.391E-13 -.455E-12 0.114E-12   0.352E+01 -.163E+01 0.217E+02
 
 
 POSITION                                       TOTAL-FORCE (eV/Angst)
 -----------------------------------------------------------------------------------
      2.48132     -0.43831      9.95072         0.004835     -0.098222     -0.005990
      0.33031      0.78120      9.93848         0.028635     -0.105027      0.000448
      1.04652     -0.44726      9.93472        -0.016339      0.093484      0.007499
      3.19890      0.80272      9.96183         0.017904      0.052058     -0.011178
      2.49066      2.05653      9.96586        -0.005593     -0.075715     -0.007305
      0.31293      3.24867      9.95058        -0.022263     -0.092040     -0.008401
      1.04960      2.02642      9.95463        -0.016476      0.072123     -0.010167
      3.21011      3.32296      9.97526         0.089971     -0.069818      0.002544
      2.44495      4.56828      9.98528         0.012019      0.327112      0.007151
      0.22941      5.71197      9.94623         0.004330     -0.073410     -0.012541
      1.00373      4.50431      9.96081        -0.006080      0.068089     -0.003148
      2.29844      6.97561      9.97899         0.019876     -0.368366      0.049060
      0.15997      8.19157      9.91938        -0.013228     -0.007814      0.005059
      0.88995      6.96842      9.94217         0.076279      0.100441      0.029981
      2.99778      8.22054      9.97750         0.275334      0.208502      0.045560
      2.28150      9.43765      9.94545        -0.002702     -0.178558      0.029903
      0.13632     10.65289      9.91755        -0.008020     -0.096867      0.013347
      0.85622      9.42914      9.92237        -0.044472      0.042556      0.010030
      3.00862     10.66027      9.95480         0.011076      0.089951     -0.004294
      6.59788     11.80499      9.95293        -0.010332     -0.102734     -0.010894
      4.63228      0.75990      9.96191        -0.038757     -0.046396     -0.014634
      5.16374     11.84058      9.96016         0.027657      0.057808     -0.012812
      7.50503      0.71150      9.94647        -0.039474      0.181904      0.000838
      6.79069      1.94643      9.94974         0.061554     -0.180377     -0.020029
      4.65035      3.25528      9.96453         0.122526      0.061702      0.016988
      5.34863      1.99762      9.95736        -0.075433      0.117163      0.007064
      7.52537      3.16066      9.93461         0.060154      0.230384     -0.040684
      6.80761      4.38832      9.90756        -0.054510     -0.140782      0.059170
      7.50741      5.63126      9.89649         0.041657      0.110635      0.055019
      7.36473      8.07475      9.92828        -0.077194     -0.200141      0.015266
      6.58508      9.28885      9.95049         0.073844     -0.042066      0.004271
      4.44325     10.60477      9.96316        -0.017735     -0.044787     -0.001886
      5.12603      9.32675      9.97401        -0.258053     -0.174900      0.003214
      7.30463     10.55624      9.94266         0.009472      0.108113      0.001808
     10.90972     11.85376      9.91792        -0.000286     -0.066533      0.008202
      8.94158      0.72303      9.93391         0.060214     -0.050362     -0.001394
      9.46996     11.82925      9.92439         0.010453      0.104882      0.000731
     11.82358      0.75752      9.92821        -0.036222      0.089845      0.003798
     11.10050      1.97965      9.93085        -0.010012     -0.120040      0.000945
      8.94558      3.17919      9.92675        -0.043567     -0.052986      0.001969
      9.66655      1.95642      9.92966        -0.003591      0.024855      0.006998
     11.81052      3.22406      9.93660         0.011945      0.106705     -0.001349
     11.06847      4.44090      9.92878         0.065848     -0.038583      0.005227
      8.92580      5.64393      9.91664        -0.079333     -0.206489     -0.037063
      9.64572      4.42151      9.92154        -0.042253      0.105394      0.004486
     11.74129      5.69306      9.92926         0.023663     -0.019053     -0.008848
     10.99614      6.92069      9.91424        -0.100344     -0.046623      0.009518
      8.80135      8.11582      9.90935        -0.044479     -0.014713      0.023427
      9.57595      6.90247      9.91084         0.116573      0.066414     -0.002293
     11.67150      8.17219      9.90906         0.011451      0.105867      0.002313
     10.92863      9.38930      9.90495         0.028665     -0.091147      0.011941
      8.74820     10.58556      9.92400         0.009493     -0.087450      0.003645
      9.49076      9.36685      9.90980        -0.028500      0.078471      0.008667
     11.63633     10.63214      9.90961         0.009450      0.072830      0.015303
      3.04946      5.81839     10.02636        -0.608466     -0.021295     -0.095372
      5.40676      4.44263      9.95795         0.405361     -0.212460     -0.018989
      6.74363      6.81343      9.91927         0.434197     -0.175552      0.014195
      4.37447      8.16471     10.01588        -0.258385      0.515446     -0.078425
      4.89142      6.31220     10.02931        -0.606556      0.358650     -0.915274
      5.88282      5.75492     11.63190         0.444217     -0.250077      0.837386
 -----------------------------------------------------------------------------------
    total drift:                                0.309035      0.397123      0.062721


--------------------------------------------------------------------------------------------------------



  FREE ENERGIE OF THE ION-ELECTRON SYSTEM (eV)
  ---------------------------------------------------
  free  energy   TOTEN  =      -630.43713136 eV

  energy  without entropy=     -630.42202061  energy(sigma->0) =     -630.42957598
 


--------------------------------------------------------------------------------------------------------


    POTLOK:  cpu time    4.1850: real time    4.1874


--------------------------------------------------------------------------------------------------------


 stress matrix after NEB project (eV)
    -44.51392      1.27958      0.63123
      1.27960    -45.28912     -0.35054
      0.63109     -0.35049      0.91061
  FORCES: max atom, RMS     1.155104    0.275719
  FORCE total and by dimension    2.135711    0.915274
  Stress total and by dimension   63.543213   45.289123
 writing wavefunctions
     LOOP+:  cpu time35472.7073: real time35513.0567
    4ORBIT:  cpu time    0.0000: real time    0.0000
 


 total charge     
 
# of ion       s       p       d       tot
------------------------------------------
    1        0.862   1.766   0.000   2.628
    2        0.863   1.758   0.000   2.621
    3        0.865   1.770   0.000   2.635
    4        0.861   1.755   0.000   2.616
    5        0.857   1.730   0.000   2.587
    6        0.863   1.764   0.000   2.626
    7        0.861   1.757   0.000   2.618
    8        0.847   1.740   0.000   2.587
    9        0.848   1.701   0.000   2.549
   10        0.869   1.771   0.000   2.639
   11        0.861   1.759   0.000   2.620
   12        0.866   1.765   0.000   2.631
   13        0.866   1.788   0.000   2.654
   14        0.872   1.795   0.000   2.666
   15        0.866   1.764   0.000   2.630
   16        0.870   1.790   0.000   2.660
   17        0.866   1.768   0.000   2.635
   18        0.868   1.786   0.000   2.654
   19        0.867   1.763   0.000   2.630
   20        0.860   1.761   0.000   2.622
   21        0.861   1.752   0.000   2.613
   22        0.860   1.752   0.000   2.612
   23        0.863   1.762   0.000   2.624
   24        0.864   1.767   0.000   2.631
   25        0.849   1.707   0.000   2.556
   26        0.860   1.757   0.000   2.617
   27        0.869   1.789   0.000   2.658
   28        0.861   1.758   0.000   2.619
   29        0.860   1.762   0.000   2.622
   30        0.850   1.704   0.000   2.554
   31        0.847   1.741   0.000   2.588
   32        0.861   1.754   0.000   2.615
   33        0.849   1.700   0.000   2.549
   34        0.857   1.731   0.000   2.588
   35        0.863   1.764   0.000   2.627
   36        0.865   1.767   0.000   2.632
   37        0.863   1.759   0.000   2.622
   38        0.863   1.764   0.000   2.627
   39        0.866   1.768   0.000   2.633
   40        0.867   1.786   0.000   2.653
   41        0.866   1.770   0.000   2.636
   42        0.864   1.764   0.000   2.628
   43        0.869   1.779   0.000   2.647
   44        0.870   1.794   0.000   2.664
   45        0.866   1.786   0.000   2.653
   46        0.865   1.778   0.000   2.643
   47        0.866   1.776   0.000   2.642
   48        0.860   1.766   0.000   2.626
   49        0.867   1.775   0.000   2.641
   50        0.869   1.778   0.000   2.646
   51        0.864   1.764   0.000   2.628
   52        0.861   1.755   0.000   2.616
   53        0.864   1.764   0.000   2.627
   54        0.866   1.769   0.000   2.635
   55        1.228   2.667   0.000   3.894
   56        1.223   2.672   0.000   3.895
   57        1.223   2.669   0.000   3.893
   58        1.229   2.669   0.000   3.898
   59        0.500   0.655   6.609   7.764
   60        0.369   0.361   2.921   3.651
--------------------------------------------------
tot         52.341 106.805   9.530 168.677
 


 magnetization (x)
 
# of ion       s       p       d       tot
------------------------------------------
    1        0.000  -0.000   0.000  -0.000
    2        0.000  -0.000   0.000  -0.000
    3        0.000   0.000   0.000   0.000
    4       -0.000  -0.004   0.000  -0.004
    5        0.000   0.003   0.000   0.003
    6        0.000   0.001   0.000   0.001
    7       -0.000  -0.001   0.000  -0.001
    8       -0.001  -0.006   0.000  -0.006
    9        0.001   0.007   0.000   0.008
   10        0.000   0.005   0.000   0.005
   11       -0.000  -0.001   0.000  -0.001
   12        0.000   0.006   0.000   0.006
   13        0.000  -0.000   0.000  -0.000
   14       -0.000  -0.001   0.000  -0.002
   15        0.000   0.004   0.000   0.004
   16       -0.000  -0.001   0.000  -0.001
   17        0.000   0.001   0.000   0.001
   18       -0.000  -0.001   0.000  -0.001
   19        0.000   0.002   0.000   0.002
   20       -0.000  -0.001   0.000  -0.001
   21        0.000   0.001   0.000   0.002
   22        0.000   0.003   0.000   0.004
   23        0.000   0.001   0.000   0.001
   24       -0.000  -0.000   0.000  -0.000
   25        0.002   0.013   0.000   0.015
   26       -0.000  -0.004   0.000  -0.004
   27        0.001   0.009   0.000   0.010
   28        0.000  -0.005   0.000  -0.005
   29       -0.000  -0.006   0.000  -0.006
   30        0.002   0.014   0.000   0.016
   31       -0.001  -0.007   0.000  -0.007
   32       -0.000  -0.002   0.000  -0.002
   33        0.001   0.009   0.000   0.010
   34        0.000   0.001   0.000   0.001
   35       -0.000  -0.000   0.000  -0.000
   36       -0.000  -0.001   0.000  -0.001
   37        0.000   0.002   0.000   0.002
   38       -0.000  -0.000   0.000  -0.000
   39        0.000   0.001   0.000   0.001
   40        0.000   0.003   0.000   0.003
   41       -0.000  -0.002   0.000  -0.002
   42        0.000   0.001   0.000   0.001
   43       -0.000  -0.001   0.000  -0.001
   44        0.001   0.008   0.000   0.009
   45        0.000   0.004   0.000   0.004
   46       -0.000  -0.001   0.000  -0.001
   47        0.000   0.002   0.000   0.002
   48       -0.000  -0.005   0.000  -0.005
   49        0.000   0.001   0.000   0.001
   50        0.000   0.002   0.000   0.002
   51       -0.000  -0.000   0.000  -0.000
   52       -0.000  -0.004   0.000  -0.004
   53        0.000   0.002   0.000   0.003
   54       -0.000  -0.001   0.000  -0.001
   55        0.003   0.009   0.000   0.012
   56        0.000  -0.023   0.000  -0.023
   57        0.000  -0.019   0.000  -0.018
   58        0.003   0.008   0.000   0.011
   59        0.000   0.018  -1.156  -1.138
   60        0.079   0.033   1.714   1.826
--------------------------------------------------
tot          0.092   0.079   0.558   0.730
 

 total amount of memory used by VASP MPI-rank0   236675. kBytes
=======================================================================

   base      :      30000. kBytes
   nonl-proj :       7193. kBytes
   fftplans  :      17540. kBytes
   grid      :      46049. kBytes
   one-center:         93. kBytes
   HF        :         23. kBytes
   nonlr-proj:      30762. kBytes
   wavefun   :     105015. kBytes
 
  
  
 General timing and accounting informations for this job:
 ========================================================
  
                  Total CPU time used (sec):    35522.023
                            User time (sec):    35482.418
                          System time (sec):       39.605
                         Elapsed time (sec):    35568.794
  
                   Maximum memory used (kb):      499472.
                   Average memory used (kb):           0.
  
                          Minor page faults:      1818699
                          Major page faults:          208
                 Voluntary context switches:       388730
