 vasp.5.4.4.18Apr17-6-g9f103f2a35 (build Feb 25 2019 10:51:38) complex          
  
 executed on             LinuxIFC date 2021.03.09  15:34:21
 running on   80 total cores
 distrk:  each k-point on   40 cores,    2 groups
 distr:  one band on NCORES_PER_BAND=  40 cores,    1 groups


--------------------------------------------------------------------------------------------------------


 INCAR:
 POTCAR:    PAW_PBE C 08Apr2002                   
 POTCAR:    PAW_PBE N 08Apr2002                   
 POTCAR:    PAW_PBE Co 02Aug2007                  
 POTCAR:    PAW_PBE Fe 06Sep2000                  

 ----------------------------------------------------------------------------- 
|                                                                             |
|           W    W    AA    RRRRR   N    N  II  N    N   GGGG   !!!           |
|           W    W   A  A   R    R  NN   N  II  NN   N  G    G  !!!           |
|           W    W  A    A  R    R  N N  N  II  N N  N  G       !!!           |
|           W WW W  AAAAAA  RRRRR   N  N N  II  N  N N  G  GGG   !            |
|           WW  WW  A    A  R   R   N   NN  II  N   NN  G    G                |
|           W    W  A    A  R    R  N    N  II  N    N   GGGG   !!!           |
|                                                                             |
|      For optimal performance we recommend to set                            |
|        NCORE= 4 - approx SQRT( number of cores)                             |
|      NCORE specifies how many cores store one orbital (NPAR=cpu/NCORE).     |
|      This setting can  greatly improve the performance of VASP for DFT.     |
|      The default,   NCORE=1            might be grossly inefficient         |
|      on modern multi-core architectures or massively parallel machines.     |
|      Do your own testing !!!!                                               |
|      Unfortunately you need to use the default for GW and RPA calculations. |
|      (for HF NCORE is supported but not extensively tested yet)             |
|                                                                             |
 ----------------------------------------------------------------------------- 


 ----------------------------------------------------------------------------- 
|                                                                             |
|           W    W    AA    RRRRR   N    N  II  N    N   GGGG   !!!           |
|           W    W   A  A   R    R  NN   N  II  NN   N  G    G  !!!           |
|           W    W  A    A  R    R  N N  N  II  N N  N  G       !!!           |
|           W WW W  AAAAAA  RRRRR   N  N N  II  N  N N  G  GGG   !            |
|           WW  WW  A    A  R   R   N   NN  II  N   NN  G    G                |
|           W    W  A    A  R    R  N    N  II  N    N   GGGG   !!!           |
|                                                                             |
|      You have enabled k-point parallelism (KPAR>1).                         |
|      This developmental code was originally  written by Paul Kent at ORNL,  |
|      and carefully double checked in Vienna.                                |
|      GW as well as linear response parallelism added by Martijn Marsman     |
|      and Georg Kresse.                                                      |
|      Carefully verify results versus KPAR=1.                                |
|      Report problems to Paul Kent and Vienna.                               |
|                                                                             |
 ----------------------------------------------------------------------------- 

 POTCAR:    PAW_PBE C 08Apr2002                   
   VRHFIN =C: s2p2                                                              
   LEXCH  = PE                                                                  
   EATOM  =   147.1560 eV,   10.8157 Ry                                         
                                                                                
   TITEL  = PAW_PBE C 08Apr2002                                                 
   LULTRA =        F    use ultrasoft PP ?                                      
   IUNSCR =        1    unscreen: 0-lin 1-nonlin 2-no                           
   RPACOR =    1.200    partial core radius                                     
   POMASS =   12.011; ZVAL   =    4.000    mass and valenz                      
   RCORE  =    1.500    outmost cutoff radius                                   
   RWIGS  =    1.630; RWIGS  =    0.863    wigner-seitz radius (au A)           
   ENMAX  =  400.000; ENMIN  =  300.000 eV                                      
   ICORE  =        2    local potential                                         
   LCOR   =        T    correct aug charges                                     
   LPAW   =        T    paw PP                                                  
   EAUG   =  644.873                                                            
   DEXC   =    0.000                                                            
   RMAX   =    1.529    core radius for proj-oper                               
   RAUG   =    1.300    factor for augmentation sphere                          
   RDEP   =    1.501    radius for radial grids                                 
   RDEPT  =    1.300    core radius for aug-charge                              
                                                                                
   Atomic configuration                                                         
    4 entries                                                                   
     n  l   j            E        occ.                                          
     1  0  0.50      -273.3789   2.0000                                         
     2  0  0.50       -13.7508   2.0000                                         
     2  1  0.50        -5.2854   2.0000                                         
     3  2  1.50        -5.4423   0.0000                                         
   Description                                                                  
     l       E           TYP  RCUT    TYP  RCUT                                 
     0    -13.7508458     23  1.200                                             
     0     -8.2022199     23  1.200                                             
     1     -5.2854383     23  1.500                                             
     1     34.0145650     23  1.500                                             
     2     -5.4423304      7  1.500                                             
  local pseudopotential read in
  partial core-charges read in
  partial kinetic energy density read in
  atomic valenz-charges read in
  non local Contribution for L=           0  read in
    real space projection operators read in
  non local Contribution for L=           0  read in
    real space projection operators read in
  non local Contribution for L=           1  read in
    real space projection operators read in
  non local Contribution for L=           1  read in
    real space projection operators read in
    PAW grid and wavefunctions read in
 
   number of l-projection  operators is LMAX  =           4
   number of lm-projection operators is LMMAX =           8
 
 POTCAR:    PAW_PBE N 08Apr2002                   
   VRHFIN =N: s2p3                                                              
   LEXCH  = PE                                                                  
   EATOM  =   264.5486 eV,   19.4438 Ry                                         
                                                                                
   TITEL  = PAW_PBE N 08Apr2002                                                 
   LULTRA =        F    use ultrasoft PP ?                                      
   IUNSCR =        1    unscreen: 0-lin 1-nonlin 2-no                           
   RPACOR =    1.200    partial core radius                                     
   POMASS =   14.001; ZVAL   =    5.000    mass and valenz                      
   RCORE  =    1.500    outmost cutoff radius                                   
   RWIGS  =    1.400; RWIGS  =    0.741    wigner-seitz radius (au A)           
   ENMAX  =  400.000; ENMIN  =  300.000 eV                                      
   ICORE  =        2    local potential                                         
   LCOR   =        T    correct aug charges                                     
   LPAW   =        T    paw PP                                                  
   EAUG   =  627.112                                                            
   DEXC   =    0.000                                                            
   RMAX   =    1.529    core radius for proj-oper                               
   RAUG   =    1.300    factor for augmentation sphere                          
   RDEP   =    1.514    radius for radial grids                                 
   RDEPT  =    1.338    core radius for aug-charge                              
                                                                                
   Atomic configuration                                                         
    4 entries                                                                   
     n  l   j            E        occ.                                          
     1  0  0.50      -384.7179   2.0000                                         
     2  0  0.50       -18.5828   2.0000                                         
     2  1  0.50        -7.0898   3.0000                                         
     3  2  1.50        -6.8029   0.0000                                         
   Description                                                                  
     l       E           TYP  RCUT    TYP  RCUT                                 
     0    -18.5828119     23  1.200                                             
     0    -13.5018863     23  1.200                                             
     1     -7.0897853     23  1.500                                             
     1      9.5240782     23  1.500                                             
     2     -6.8029130      7  1.500                                             
  local pseudopotential read in
  partial core-charges read in
  partial kinetic energy density read in
  atomic valenz-charges read in
  non local Contribution for L=           0  read in
    real space projection operators read in
  non local Contribution for L=           0  read in
    real space projection operators read in
  non local Contribution for L=           1  read in
    real space projection operators read in
  non local Contribution for L=           1  read in
    real space projection operators read in
    PAW grid and wavefunctions read in
 
   number of l-projection  operators is LMAX  =           4
   number of lm-projection operators is LMMAX =           8
 
 POTCAR:    PAW_PBE Co 02Aug2007                  
   VRHFIN =Co: d8 s1                                                            
   LEXCH  = PE                                                                  
   EATOM  =   813.3670 eV,   59.7808 Ry                                         
                                                                                
   TITEL  = PAW_PBE Co 02Aug2007                                                
   LULTRA =        F    use ultrasoft PP ?                                      
   IUNSCR =        1    unscreen: 0-lin 1-nonlin 2-no                           
   RPACOR =    2.000    partial core radius                                     
   POMASS =   58.933; ZVAL   =    9.000    mass and valenz                      
   RCORE  =    2.300    outmost cutoff radius                                   
   RWIGS  =    2.460; RWIGS  =    1.302    wigner-seitz radius (au A)           
   ENMAX  =  267.968; ENMIN  =  200.976 eV                                      
   RCLOC  =    1.203    cutoff for local pot                                    
   LCOR   =        T    correct aug charges                                     
   LPAW   =        T    paw PP                                                  
   EAUG   =  477.818                                                            
   DEXC   =    0.000                                                            
   RMAX   =    2.360    core radius for proj-oper                               
   RAUG   =    1.300    factor for augmentation sphere                          
   RDEP   =    2.393    radius for radial grids                                 
   RDEPT  =    1.864    core radius for aug-charge                              
                                                                                
   Atomic configuration                                                         
    9 entries                                                                   
     n  l   j            E        occ.                                          
     1  0  0.50     -7587.6674   2.0000                                         
     2  0  0.50      -893.6084   2.0000                                         
     2  1  1.50      -764.5805   6.0000                                         
     3  0  0.50       -97.5973   2.0000                                         
     3  1  1.50       -60.9648   6.0000                                         
     3  2  2.50        -4.2382   8.0000                                         
     4  0  0.50        -4.3746   1.0000                                         
     4  1  1.50        -4.0817   0.0000                                         
     4  3  2.50        -1.3606   0.0000                                         
   Description                                                                  
     l       E           TYP  RCUT    TYP  RCUT                                 
     2     -4.2382362     23  2.300                                             
     2     -5.5988188     23  2.300                                             
     0     -4.3745797     23  2.300                                             
     0      5.7660125     23  2.300                                             
     1     -2.7211652     23  2.300                                             
     1     16.9860234     23  2.300                                             
  local pseudopotential read in
  partial core-charges read in
  partial kinetic energy density read in
  atomic valenz-charges read in
  non local Contribution for L=           2  read in
    real space projection operators read in
  non local Contribution for L=           2  read in
    real space projection operators read in
  non local Contribution for L=           0  read in
    real space projection operators read in
  non local Contribution for L=           0  read in
    real space projection operators read in
  non local Contribution for L=           1  read in
    real space projection operators read in
  non local Contribution for L=           1  read in
    real space projection operators read in
    PAW grid and wavefunctions read in
 
   number of l-projection  operators is LMAX  =           6
   number of lm-projection operators is LMMAX =          18
 
 POTCAR:    PAW_PBE Fe 06Sep2000                  
   VRHFIN =Fe:  d7 s1                                                           
   LEXCH  = PE                                                                  
   EATOM  =   594.3153 eV,   43.6809 Ry                                         
                                                                                
   TITEL  = PAW_PBE Fe 06Sep2000                                                
   LULTRA =        F    use ultrasoft PP ?                                      
   IUNSCR =        1    unscreen: 0-lin 1-nonlin 2-no                           
   RPACOR =    2.000    partial core radius                                     
   POMASS =   55.847; ZVAL   =    8.000    mass and valenz                      
   RCORE  =    2.300    outmost cutoff radius                                   
   RWIGS  =    2.460; RWIGS  =    1.302    wigner-seitz radius (au A)           
   ENMAX  =  267.882; ENMIN  =  200.911 eV                                      
   RCLOC  =    1.701    cutoff for local pot                                    
   LCOR   =        T    correct aug charges                                     
   LPAW   =        T    paw PP                                                  
   EAUG   =  511.368                                                            
   DEXC   =    0.000                                                            
   RMAX   =    2.356    core radius for proj-oper                               
   RAUG   =    1.300    factor for augmentation sphere                          
   RDEP   =    2.442    radius for radial grids                                 
   RDEPT  =    1.890    core radius for aug-charge                              
                                                                                
   Atomic configuration                                                         
    9 entries                                                                   
     n  l   j            E        occ.                                          
     1  0  0.50     -6993.8440   2.0000                                         
     2  0  0.50      -814.6047   2.0000                                         
     2  1  1.50      -693.3689   6.0000                                         
     3  0  0.50       -89.4732   2.0000                                         
     3  1  1.50       -55.6373   6.0000                                         
     3  2  2.50        -3.8151   7.0000                                         
     4  0  0.50        -4.2551   1.0000                                         
     4  1  1.50        -3.4015   0.0000                                         
     4  3  2.50        -1.3606   0.0000                                         
   Description                                                                  
     l       E           TYP  RCUT    TYP  RCUT                                 
     2     -3.8151135     23  2.300                                             
     2     -5.1756961     23  2.300                                             
     0     -4.2550963     23  2.300                                             
     0      7.2035603     23  2.300                                             
     1     -2.7211652     23  2.300                                             
     1     18.4316424     23  2.300                                             
  local pseudopotential read in
  partial core-charges read in
  partial kinetic energy density read in
  atomic valenz-charges read in
  non local Contribution for L=           2  read in
    real space projection operators read in
  non local Contribution for L=           2  read in
    real space projection operators read in
  non local Contribution for L=           0  read in
    real space projection operators read in
  non local Contribution for L=           0  read in
    real space projection operators read in
  non local Contribution for L=           1  read in
    real space projection operators read in
  non local Contribution for L=           1  read in
    real space projection operators read in
    PAW grid and wavefunctions read in
 
   number of l-projection  operators is LMAX  =           6
   number of lm-projection operators is LMMAX =          18
 

 ----------------------------------------------------------------------------- 
|                                                                             |
|  ADVICE TO THIS USER RUNNING 'VASP/VAMP'   (HEAR YOUR MASTER'S VOICE ...):  |
|                                                                             |
|      You have a (more or less) 'large supercell' and for larger cells       |
|      it might be more efficient to use real space projection opertators     |
|      So try LREAL= Auto  in the INCAR   file.                               |
|      Mind:          For very  accurate calculation you might also keep the  |
|      reciprocal projection scheme          (i.e. LREAL=.FALSE.)             |
|                                                                             |
 ----------------------------------------------------------------------------- 

  PAW_PBE C 08Apr2002                   :
 energy of atom  1       EATOM= -147.1560
 kinetic energy error for atom=    0.0076 (will be added to EATOM!!)
  PAW_PBE N 08Apr2002                   :
 energy of atom  2       EATOM= -264.5486
 kinetic energy error for atom=    0.0138 (will be added to EATOM!!)
  PAW_PBE Co 02Aug2007                  :
 energy of atom  3       EATOM= -813.3670
 kinetic energy error for atom=    0.0028 (will be added to EATOM!!)
  PAW_PBE Fe 06Sep2000                  :
 energy of atom  4       EATOM= -594.3153
 kinetic energy error for atom=    0.0026 (will be added to EATOM!!)
 
 
 POSCAR:  C  N Co Fe                             
  positions in cartesian coordinates
  No initial velocities read in
 exchange correlation table for  LEXCH =        8
   RHO(1)=    0.500       N(1)  =     2000
   RHO(2)=  100.500       N(2)  =     4000

 VTST: version 3.2, (02/03/18)

 CHAIN: initializing optimizer
 
 OPT: Using VASP Conjugate-Gradient optimizer
 CHAIN: Read ICHAIN            0
 
 POSCAR:  C  N Co Fe                             
  positions in cartesian coordinates
  No initial velocities read in
 


--------------------------------------------------------------------------------------------------------


 ion  position               nearest neighbor table
   1  0.222  0.001  0.491-  19 1.42   3 1.43   4 1.44
   2  0.057  0.101  0.488-   3 1.43  37 1.43   7 1.44
   3  0.111  0.000  0.488-   1 1.43   2 1.43  17 1.44
   4  0.278  0.102  0.491-  21 1.42   5 1.44   1 1.44
   5  0.224  0.204  0.495-   7 1.44   4 1.44   8 1.45
   6  0.056  0.301  0.493-   7 1.43  41 1.43  11 1.43
   7  0.113  0.202  0.492-   6 1.43   5 1.44   2 1.44
   8  0.281  0.304  0.504-  25 1.45   5 1.45   9 1.47
   9  0.222  0.405  0.508-  54 1.38  11 1.44   8 1.47
  10  0.053  0.501  0.499-  14 1.43  45 1.43  11 1.43
  11  0.110  0.401  0.499-  10 1.43   6 1.43   9 1.44
  12  0.218  0.600  0.513-  54 1.39  14 1.43  15 1.45
  13  0.053  0.700  0.496-  14 1.43  49 1.43  18 1.43
  14  0.108  0.601  0.502-  13 1.43  10 1.43  12 1.43
  15  0.273  0.703  0.515-  16 1.42  12 1.45  29 1.46
  16  0.220  0.800  0.499-  15 1.42  18 1.43  19 1.45
  17  0.055  0.900  0.489-  18 1.43  53 1.43   3 1.44
  18  0.109  0.800  0.493-  17 1.43  16 1.43  13 1.43
  19  0.276  0.901  0.496-   1 1.42  31 1.43  16 1.45
  20  0.555  0.999  0.487-  33 1.42  22 1.42  23 1.42
  21  0.388  0.100  0.488-   4 1.42  26 1.43  22 1.43
  22  0.444  0.000  0.488-  20 1.42  21 1.43  31 1.43
  23  0.611  0.097  0.483-  24 1.42  20 1.42  35 1.42
  24  0.556  0.196  0.486-  23 1.42  27 1.42  26 1.42
  25  0.394  0.298  0.505-  55 1.38  26 1.43   8 1.45
  26  0.445  0.199  0.491-  24 1.42  21 1.43  25 1.43
  27  0.614  0.294  0.491-  28 1.40  39 1.42  24 1.42
  28  0.560  0.387  0.511-  55 1.37  56 1.38  27 1.40
  29  0.381  0.715  0.537-  57 1.32  32 1.46  15 1.46
  30  0.556  0.803  0.509-  58 1.38  33 1.43  32 1.44
  31  0.388  0.901  0.497-  32 1.42  22 1.43  19 1.43
  32  0.444  0.805  0.513-  31 1.42  30 1.44  29 1.46
  33  0.610  0.900  0.493-  20 1.42  51 1.42  30 1.43
  34  0.889  0.999  0.485-  53 1.42  36 1.43  37 1.44
  35  0.723  0.098  0.482-  36 1.42  23 1.42  40 1.43
  36  0.778  0.999  0.485-  35 1.42  34 1.43  51 1.43
  37  0.945  0.100  0.485-  38 1.42   2 1.43  34 1.44
  38  0.890  0.199  0.485-  37 1.42  40 1.42  41 1.43
  39  0.724  0.296  0.489-  27 1.42  40 1.42  44 1.43
  40  0.779  0.198  0.484-  39 1.42  38 1.42  35 1.43
  41  0.945  0.300  0.489-   6 1.43  42 1.43  38 1.43
  42  0.889  0.399  0.493-  44 1.42  45 1.43  41 1.43
  43  0.719  0.493  0.508-  56 1.38  44 1.43  48 1.46
  44  0.778  0.397  0.495-  42 1.42  43 1.43  39 1.43
  45  0.942  0.500  0.497-  42 1.43  10 1.43  46 1.44
  46  0.883  0.599  0.500-  45 1.44  49 1.44  48 1.45
  47  0.717  0.702  0.508-  58 1.38  52 1.44  48 1.46
  48  0.771  0.598  0.507-  46 1.45  43 1.46  47 1.46
  49  0.941  0.699  0.496-  50 1.42  13 1.43  46 1.44
  50  0.887  0.799  0.492-  49 1.42  52 1.43  53 1.44
  51  0.721  0.900  0.491-  33 1.42  52 1.43  36 1.43
  52  0.775  0.799  0.496-  50 1.43  51 1.43  47 1.44
  53  0.943  0.899  0.488-  34 1.42  17 1.43  50 1.44
  54  0.269  0.502  0.521-   9 1.38  12 1.39  59 1.89
  55  0.455  0.387  0.522-  28 1.37  25 1.38  59 1.84
  56  0.615  0.481  0.523-  28 1.38  43 1.38  60 1.90
  57  0.418  0.647  0.582-  29 1.32  59 1.77  60 1.86
  58  0.612  0.709  0.521-  47 1.38  30 1.38  60 1.98
  59  0.402  0.509  0.562-  57 1.77  55 1.84  54 1.89  60 2.21
  60  0.553  0.592  0.576-  57 1.86  56 1.90  58 1.98  59 2.21
 
  LATTYP: Found a simple orthorhombic cell.
 ALAT       =    12.4000000000
 B/A-ratio  =     1.0330645161
 C/A-ratio  =     1.6129032258
  
  Lattice vectors:
  
 A1 = (   0.0000000000, -12.4000000000,   0.0000000000)
 A2 = ( -12.8100000000,   0.0000000000,   0.0000000000)
 A3 = (   0.0000000000,   0.0000000000, -20.0000000000)


Analysis of symmetry for initial positions (statically):
=====================================================================
 Subroutine PRICEL returns:
 Original cell was already a primitive cell.
 

 Routine SETGRP: Setting up the symmetry group for a 
 simple orthorhombic supercell.


 Subroutine GETGRP returns: Found  1 space group operations
 (whereof  1 operations were pure point group operations)
 out of a pool of  8 trial point group operations.


The static configuration has the point symmetry C_1 .


Analysis of symmetry for dynamics (positions and initial velocities):
=====================================================================
 Subroutine PRICEL returns:
 Original cell was already a primitive cell.
 

 Routine SETGRP: Setting up the symmetry group for a 
 simple orthorhombic supercell.


 Subroutine GETGRP returns: Found  1 space group operations
 (whereof  1 operations were pure point group operations)
 out of a pool of  8 trial point group operations.


The dynamic configuration has the point symmetry C_1 .


Analysis of structural, dynamic, and magnetic symmetry:
=====================================================================
 Subroutine PRICEL returns:
 Original cell was already a primitive cell.
 

 Routine SETGRP: Setting up the symmetry group for a 
 simple orthorhombic supercell.


 Subroutine GETGRP returns: Found  1 space group operations
 (whereof  1 operations were pure point group operations)
 out of a pool of  8 trial point group operations.


The magnetic configuration has the point symmetry C_1 .


 Subroutine INISYM returns: Found  1 space group operations
 (whereof  1 operations are pure point group operations),
 and found     1 'primitive' translations

 
 
 KPOINTS: KPOINTS created by Atomic Simulation Env

Automatic generation of k-mesh.
Space group operators:
 irot       det(A)        alpha          n_x          n_y          n_z        tau_x        tau_y        tau_z
    1     1.000000     0.000000     1.000000     0.000000     0.000000     0.000000     0.000000     0.000000
 
 Subroutine IBZKPT returns following result:
 ===========================================
 
 Found      2 irreducible k-points:
 
 Following reciprocal coordinates:
            Coordinates               Weight
  0.250000  0.250000  0.000000      2.000000
 -0.250000  0.250000  0.000000      2.000000
 
 Following cartesian coordinates:
            Coordinates               Weight
  0.019516  0.020161  0.000000      2.000000
 -0.019516  0.020161  0.000000      2.000000
 
 
 Subroutine IBZKPT_HF returns following result:
 ==============================================
 
 Found      4 k-points in 1st BZ
 the following      4 k-points will be used (e.g. in the exchange kernel)
 Following reciprocal coordinates:   # in IRBZ
  0.250000  0.250000  0.000000    0.25000000   1 t-inv F
 -0.250000  0.250000  0.000000    0.25000000   2 t-inv F
 -0.250000 -0.250000  0.000000    0.25000000   1 t-inv T
  0.250000 -0.250000  0.000000    0.25000000   2 t-inv T


--------------------------------------------------------------------------------------------------------




 Dimension of arrays:
   k-points           NKPTS =      2   k-points in BZ     NKDIM =      4   number of bands    NBANDS=    160
   number of dos      NEDOS =    301   number of ions     NIONS =     60
   non local maximal  LDIM  =      6   non local SUM 2l+1 LMDIM =     18
   total plane-waves  NPLWV = ******
   max r-space proj   IRMAX =      1   max aug-charges    IRDMAX=  16287
   dimension x,y,z NGX =    96 NGY =   90 NGZ =  150
   dimension x,y,z NGXF=   192 NGYF=  180 NGZF=  300
   support grid    NGXF=   192 NGYF=  180 NGZF=  300
   ions per type =              53   5   1   1
   NGX,Y,Z   is equivalent  to a cutoff of  12.46, 12.07, 12.47 a.u.
   NGXF,Y,Z  is equivalent  to a cutoff of  24.92, 24.13, 24.94 a.u.

 SYSTEM =  unknown system                          
 POSCAR =   C  N Co Fe                             

 Startparameter for this run:
   NWRITE =      2    write-flag & timer
   PREC   = accura    normal or accurate (medium, high low for compatibility)
   ISTART =      1    job   : 0-new  1-cont  2-samecut
   ICHARG =      0    charge: 1-file 2-atom 10-const
   ISPIN  =      2    spin polarized calculation?
   LNONCOLLINEAR =      F non collinear calculations
   LSORBIT =      F    spin-orbit coupling
   INIWAV =      1    electr: 0-lowe 1-rand  2-diag
   LASPH  =      T    aspherical Exc in radial PAW
   METAGGA=      F    non-selfconsistent MetaGGA calc.

 Electronic Relaxation 1
   ENCUT  =  500.0 eV  36.75 Ry    6.06 a.u.  23.36 22.61 36.46*2*pi/ulx,y,z
   ENINI  =  500.0     initial cutoff
   ENAUG  =  644.9 eV  augmentation charge cutoff
   NELM   =    250;   NELMIN=  2; NELMDL=  0     # of ELM steps 
   EDIFF  = 0.1E-03   stopping-criterion for ELM
   LREAL  =      F    real-space projection
   NLSPLINE    = F    spline interpolate recip. space projectors
   LCOMPAT=      F    compatible to vasp.4.4
   GGA_COMPAT  = T    GGA compatible to vasp.4.4-vasp.4.6
   LMAXPAW     = -100 max onsite density
   LMAXMIX     =    2 max onsite mixed and CHGCAR
   VOSKOWN=      0    Vosko Wilk Nusair interpolation
   ROPT   =    0.00000   0.00000   0.00000   0.00000
 Ionic relaxation
   EDIFFG = -.3E-01   stopping-criterion for IOM
   NSW    =      0    number of steps for IOM
   NBLOCK =      1;   KBLOCK =      1    inner block; outer block 
   IBRION =     -1    ionic relax: 0-MD 1-quasi-New 2-CG
   NFREE  =      1    steps in history (QN), initial steepest desc. (CG)
   ISIF   =      2    stress and relaxation
   IWAVPR =     10    prediction:  0-non 1-charg 2-wave 3-comb
   ISYM   =      3    0-nonsym 1-usesym 2-fastsym
   LCORR  =      T    Harris-Foulkes like correction to forces

   POTIM  = 0.5000    time-step for ionic-motion
   TEIN   =    0.0    initial temperature
   TEBEG  =    0.0;   TEEND  =   0.0 temperature during run
   SMASS  =  -3.00    Nose mass-parameter (am)
   estimated Nose-frequenzy (Omega)   =  0.10E-29 period in steps =****** mass=  -0.375E-26a.u.
   SCALEE = 1.0000    scale energy and forces
   NPACO  =    256;   APACO  = 16.0  distance and # of slots for P.C.
   PSTRESS=    0.0 pullay stress

  Mass of Ions in am
   POMASS =  12.01 14.00 58.93 55.85
  Ionic Valenz
   ZVAL   =   4.00  5.00  9.00  8.00
  Atomic Wigner-Seitz radii
   RWIGS  =  -1.00 -1.00 -1.00 -1.00
  virtual crystal weights 
   VCA    =   1.00  1.00  1.00  1.00
   NELECT =     254.0000    total number of electrons
   NUPDOWN=      -1.0000    fix difference up-down

 DOS related values:
   EMIN   =  10.00;   EMAX   =-10.00  energy-range for DOS
   EFERMI =   0.00
   ISMEAR =     0;   SIGMA  =   0.10  broadening in eV -4-tet -1-fermi 0-gaus

 Electronic relaxation 2 (details)
   IALGO  =     53    algorithm
   LDIAG  =      T    sub-space diagonalisation (order eigenvalues)
   LSUBROT=      F    optimize rotation matrix (better conditioning)
   TURBO    =      0    0=normal 1=particle mesh
   IRESTART =      0    0=no restart 2=restart with 2 vectors
   NREBOOT  =      0    no. of reboots
   NMIN     =      0    reboot dimension
   EREF     =   0.00    reference energy to select bands
   IMIX   =      4    mixing-type and parameters
     AMIX     =   0.40;   BMIX     =  1.00
     AMIX_MAG =   1.60;   BMIX_MAG =  1.00
     AMIN     =   0.10
     WC   =   100.;   INIMIX=   1;  MIXPRE=   1;  MAXMIX= -45

 Intra band minimization:
   WEIMIN = 0.0000     energy-eigenvalue tresh-hold
   EBREAK =  0.16E-06  absolut break condition
   DEPER  =   0.30     relativ break condition  

   TIME   =   0.20     timestep for ELM

  volume/ion in A,a.u.               =      52.95       357.31
  Fermi-wavevector in a.u.,A,eV,Ry     =   0.705265  1.332758  6.767525  0.497399
  Thomas-Fermi vector in A             =   1.790730
 
 Write flags
   LWAVE        =      T    write WAVECAR
   LDOWNSAMPLE  =      F    k-point downsampling of WAVECAR
   LCHARG       =      T    write CHGCAR
   LVTOT        =      F    write LOCPOT, total local potential
   LVHAR        =      T    write LOCPOT, Hartree potential only
   LELF         =      F    write electronic localiz. function (ELF)
   LORBIT       =     11    0 simple, 1 ext, 2 COOP (PROOUT), +10 PAW based schemes


 Dipole corrections
   LMONO  =      F    monopole corrections only (constant potential shift)
   LDIPOL =      T    correct potential (dipole corrections)
   IDIPOL =      3    1-x, 2-y, 3-z, 4-all directions 
   EPSILON=  1.0000000 bulk dielectric constant

 Exchange correlation treatment:
   GGA     =    PE    GGA type
   LEXCH   =     8    internal setting for exchange type
   VOSKOWN=      0    Vosko Wilk Nusair interpolation
   EXXOEP  =     0    0=HF, 1=EXX-LHF (local Hartree Fock) 2=EXX OEP
   LHFCALC =     T    Hartree Fock is set to
   LSYMGRAD=     F    symmetrize gradient (conserves proper symmetry)
   PRECFOCK=normal    Normal, Fast or Accurate (Low or Medium for compatibility)
   LRHFCALC=     F    long range Hartree Fock
   LRSCOR  =     F    long range correlation only (use DFT for short range part)
   LTHOMAS =     F    Thomas Fermi screening in HF
   LMODELHF=     F    short range full HF, long range fraction AEXX
   ENCUT4O =  -1.0   cutoff for four orbital integrals eV
   LMAXFOCK=     4    L truncation for augmentation on plane wave grid
   LMAXFOCKAE=  -1    L truncation for all-electron charge restoration on plane wave grid
   NMAXFOCKAE=   1    number of basis functions for all-electron charge restoration
   LFOCKAEDFT=     F  apply the AE augmentation even for DFT
   NKREDX  =     1    reduce k-point grid by
   NKREDY  =     1    reduce k-point grid by
   NKREDZ  =     1    reduce k-point grid by
   SHIFTRED=     F    shift reduced grid of Gamma
   HFKIDENT=     F    idential grid for each k-point
   ODDONLY =     F    use only odd q-grid points
   EVENONLY=     F    use only even q-grid points
   HFALPHA =   -1.0000 decay constant for conv. correction
   MCALPHA =    0.0000 extent of test-charge in conv. correction in multipole expansion
   AEXX    =    0.2500 exact exchange contribution
   HFSCREEN=    0.2000 screening length (either q_TF or 0.3 A-1)
   HFSCREENC=   0.2000 screening length for correlation (either q_TF or 0.3 A-1)
   HFRCUT  =    0.0000 spherical cutoff for potential kernel
   ALDAX   =    0.7500 LDA exchange part
   AGGAX   =    0.7500 GGA exchange part
   ALDAC   =    1.0000 LDA correlation
   AGGAC   =    1.0000 GGA correlation
   ENCUTFOCK=  -1.0 apply spherical cutoff to Coloumb kernel
   NBANDSGWLOW=     1    first orbital included in HF term
   NBLOCK_FOCK=    64    blocking factor in FOCK_ACC
 Linear response parameters
   LEPSILON=     F    determine dielectric tensor
   LRPA    =     F    only Hartree local field effects (RPA)
   LNABLA  =     F    use nabla operator in PAW spheres
   LVEL    =     F    velocity operator in full k-point grid
   LINTERFAST=   F  fast interpolation
   KINTER  =     0    interpolate to denser k-point grid
   CSHIFT  =0.1000    complex shift for real part using Kramers Kronig
   OMEGAMAX=  -1.0    maximum frequency
   DEG_THRESHOLD= 0.2000000E-02 threshold for treating states as degnerate
   RTIME   =   -0.100 relaxation time in fs
  (WPLASMAI=    0.000 imaginary part of plasma frequency in eV, 0.658/RTIME)
   DFIELD  = 0.0000000 0.0000000 0.0000000 field for delta impulse in time
 
 Orbital magnetization related:
   ORBITALMAG=     F  switch on orbital magnetization
   LCHIMAG   =     F  perturbation theory with respect to B field
   DQ        =  0.001000  dq finite difference perturbation B field
   LLRAUG    =     F  two centre corrections for induced B field



--------------------------------------------------------------------------------------------------------


 Static calculation
 charge density and potential will be updated during run
 spin polarized calculation
 Conjugate gradient for all bands (Freysoldt, et al. PRB 79, 241103 (2009))
 perform sub-space diagonalisation
    before iterative eigenvector-optimisation
 modified Broyden-mixing scheme, WC =      100.0
 initial mixing is a Kerker type mixing with AMIX =  0.4000 and BMIX =      1.0000
 Hartree-type preconditioning will be used
 using additional bands           33
 reciprocal scheme for non local part
 use partial core corrections
 no Harris-corrections to forces 
 use gradient corrections 
 use of overlap-Matrix (Vanderbilt PP)
 Gauss-broadening in eV      SIGMA  =   0.10


--------------------------------------------------------------------------------------------------------


  energy-cutoff  :      500.00
  volume of cell :     3176.88
      direct lattice vectors                 reciprocal lattice vectors
    12.810000000  0.000000000  0.000000000     0.078064012  0.000000000  0.000000000
     0.000000000 12.400000000  0.000000000     0.000000000  0.080645161  0.000000000
     0.000000000  0.000000000 20.000000000     0.000000000  0.000000000  0.050000000

  length of vectors
    12.810000000 12.400000000 20.000000000     0.078064012  0.080645161  0.050000000


 
 old parameters found on file WAVECAR:
  energy-cutoff  :      500.00
  volume of cell :     3176.88
      direct lattice vectors                 reciprocal lattice vectors
    12.810000000  0.000000000  0.000000000     0.078064012  0.000000000  0.000000000
     0.000000000 12.400000000  0.000000000     0.000000000  0.080645161  0.000000000
     0.000000000  0.000000000 20.000000000     0.000000000  0.000000000  0.050000000

  length of vectors

 
 k-points in units of 2pi/SCALE and weight: KPOINTS created by Atomic Simulation Env
   0.01951600  0.02016129  0.00000000       0.500
  -0.01951600  0.02016129  0.00000000       0.500
 
 k-points in reciprocal lattice and weights: KPOINTS created by Atomic Simulation Env
   0.25000000  0.25000000  0.00000000       0.500
  -0.25000000  0.25000000  0.00000000       0.500
 
 position of ions in fractional coordinates (direct lattice) 
   0.22196011  0.00074738  0.49052342
   0.05689774  0.10081696  0.48775325
   0.11072849  0.00017271  0.48842855
   0.27758940  0.10183977  0.49101029
   0.22441298  0.20363457  0.49531039
   0.05634757  0.30079509  0.49307147
   0.11251961  0.20150592  0.49194047
   0.28101470  0.30398039  0.50434265
   0.22161825  0.40489558  0.50841321
   0.05318828  0.50080092  0.49910338
   0.11034364  0.40149081  0.49925421
   0.21839393  0.60041076  0.51300946
   0.05253962  0.69992157  0.49601922
   0.10824228  0.60080225  0.50153737
   0.27321175  0.70267281  0.51488025
   0.21980628  0.80026961  0.49939949
   0.05455556  0.89998321  0.48861976
   0.10874378  0.79983040  0.49319364
   0.27639907  0.90090611  0.49550358
   0.55460687  0.99880333  0.48659708
   0.38828175  0.10007619  0.48820120
   0.44361821  0.00015043  0.48839200
   0.61137723  0.09742952  0.48278774
   0.55618068  0.19621137  0.48641871
   0.39398763  0.29847659  0.50479137
   0.44525653  0.19871648  0.49085306
   0.61359000  0.29357606  0.49136278
   0.56037129  0.38749645  0.51050934
   0.38092442  0.71537801  0.53713163
   0.55556772  0.80286643  0.50927855
   0.38827958  0.90124861  0.49732474
   0.44354721  0.80547897  0.51329875
   0.61006335  0.90001383  0.49324248
   0.88905125  0.99929693  0.48504266
   0.72260786  0.09814729  0.48235664
   0.77766211  0.99857348  0.48463308
   0.94544436  0.09956650  0.48508416
   0.89021661  0.19920045  0.48525231
   0.72398466  0.29640409  0.48869175
   0.77908016  0.19773558  0.48360711
   0.94493986  0.29980371  0.48938417
   0.88859662  0.39920106  0.49282720
   0.71946769  0.49281493  0.50801228
   0.77762085  0.39704035  0.49482993
   0.94153972  0.50010302  0.49700321
   0.88332649  0.59914504  0.49963027
   0.71703109  0.70215858  0.50791147
   0.77073113  0.59801974  0.50669565
   0.94069049  0.69875358  0.49563671
   0.88668072  0.79897277  0.49223679
   0.72118624  0.89950732  0.49066272
   0.77541483  0.79923621  0.49591265
   0.94313585  0.89899081  0.48775268
   0.26901557  0.50236927  0.52134376
   0.45468502  0.38661123  0.52183639
   0.61466479  0.48114490  0.52332410
   0.41802500  0.64701189  0.58179593
   0.61156167  0.70949803  0.52089932
   0.40182047  0.50884144  0.56194270
   0.55261339  0.59170271  0.57581087
 
 position of ions in cartesian coordinates  (Angst):
   2.84330907  0.00926750  9.81046836
   0.72886010  1.25013031  9.75506501
   1.41843199  0.00214164  9.76857100
   3.55592022  1.26281310  9.82020589
   2.87473027  2.52506870  9.90620779
   0.72181239  3.72985917  9.86142940
   1.44137620  2.49867338  9.83880936
   3.59979831  3.76935689 10.08685306
   2.83892977  5.02070516 10.16826420
   0.68134188  6.20993138  9.98206764
   1.41350199  4.97848608  9.98508418
   2.79762630  7.44509338 10.26018916
   0.67303256  8.67902750  9.92038446
   1.38658363  7.44994794 10.03074746
   3.49984248  8.71314279 10.29760495
   2.81571851  9.92334312  9.98798980
   0.69885668 11.15979184  9.77239512
   1.39300788  9.91789694  9.86387283
   3.54067212 11.17123577  9.91007170
   7.10451395 12.38516127  9.73194154
   4.97388917  1.24094470  9.76402390
   5.68274926  0.00186538  9.76784004
   7.83174225  1.20812609  9.65575490
   7.12467454  2.43302102  9.72837426
   5.04698149  3.70110974 10.09582735
   5.70373620  2.46408438  9.81706124
   7.86008789  3.64034316  9.82725558
   7.17835617  4.80495594 10.21018680
   4.87964176  8.87068729 10.74263262
   7.11682247  9.95554371 10.18557104
   4.97386145 11.17548272  9.94649489
   5.68183972  9.98793929 10.26597494
   7.81491154 11.16017149  9.86484966
  11.38874654 12.39128198  9.70085329
   9.25660665  1.21702635  9.64713275
   9.96185161 12.38231111  9.69266166
  12.11114222  1.23462465  9.70168315
  11.40367483  2.47008558  9.70504625
   9.27424346  3.67541071  9.77383495
   9.98001679  2.45192115  9.67214219
  12.10467966  3.71756604  9.78768343
  11.38292271  4.95009312  9.85654395
   9.21638109  6.11090515 10.16024555
   9.96132307  4.92330037  9.89659865
  12.06112382  6.20127746  9.94006421
  11.31541231  7.42939850  9.99260541
   9.18516830  8.70676639 10.15822940
   9.87306573  7.41544483 10.13391295
  12.05024515  8.66454439  9.91273417
  11.35838002  9.90726232  9.84473578
   9.23839568 11.15389075  9.81325448
   9.93306402  9.91052902  9.91825299
  12.08157024 11.14748605  9.75505357
   3.44608946  6.22937900 10.42687515
   5.82451511  4.79397920 10.43672770
   7.87385592  5.96619672 10.46648192
   5.35490026  8.02294742 11.63591853
   7.83410497  8.79777561 10.41798644
   5.14732025  6.30963381 11.23885397
   7.07897751  7.33711358 11.51621738
 


--------------------------------------------------------------------------------------------------------


 k-point  1 :   0.2500 0.2500 0.0000  plane waves:   80679
 k-point  2 :  -0.2500 0.2500 0.0000  plane waves:   80679

 maximum and minimum number of plane-waves per node :      2047     1989

 maximum number of plane-waves:     80679
 maximum index in each direction: 
   IXMAX=   23   IYMAX=   22   IZMAX=   36
   IXMIN=  -23   IYMIN=  -22   IZMIN=  -36


 parallel 3D FFT for wavefunctions:
    minimum data exchange during FFTs selected (reduces bandwidth)
 parallel 3D FFT for charge:
    minimum data exchange during FFTs selected (reduces bandwidth)


 FFT grid for exact exchange (Hartree Fock) 
  NGX = 72; NGY = 70; NGZ =112

 
 Radii for the augmentation spheres in the non-local exchange
 for species   1 augmentation radius   0.874 (default was   0.699)
       energy cutoff for augmentation   2000.0
 for species   2 augmentation radius   0.886 (default was   0.709)
       energy cutoff for augmentation   2000.0
 for species   3 augmentation radius   1.307 (default was   1.045)
       energy cutoff for augmentation   2000.0
 for species   4 augmentation radius   1.263 (default was   1.010)
       energy cutoff for augmentation   2000.0

 real space projection operators:
  total allocation   :       2631.62 KBytes
  max/ min on nodes  :         98.38         39.66

 Maximum index for augmentation-charges in exchange          160
  SETUP_FOCK is finished

 total amount of memory used by VASP MPI-rank0   140700. kBytes
=======================================================================

   base      :      30000. kBytes
   nonl-proj :       4340. kBytes
   fftplans  :      11188. kBytes
   grid      :      29312. kBytes
   one-center:         62. kBytes
   HF        :         23. kBytes
   nonlr-proj:       1848. kBytes
   wavefun   :      63927. kBytes
 
     INWAV:  cpu time    4.1935: real time    4.2049
 Broyden mixing: mesh for mixing (old mesh)
   NGX = 47   NGY = 45   NGZ = 73
  (NGX  =192   NGY  =180   NGZ  =300)
  gives a total of 154395 points

 charge density for first step will be calculated from the start-wavefunctions


--------------------------------------------------------------------------------------------------------


 Maximum index for augmentation-charges          721 (set IRDMAX)


--------------------------------------------------------------------------------------------------------


 initial charge from wavefunction
 First call to EWALD:  gamma=   0.121
 Maximum number of real-space cells 3x 3x 2
 Maximum number of reciprocal cells 2x 2x 4

    FEWALD:  cpu time    0.0028: real time    0.0028


--------------------------------------- Iteration      1(   1)  ---------------------------------------


    POTLOK:  cpu time    0.8493: real time    0.8529
    SETDIJ:  cpu time    1.0140: real time    1.0169
    TRIAL :  cpu time  175.8583: real time  176.3485
    CORREC:  cpu time    0.0008: real time    0.0008
    CHARGE:  cpu time    0.7658: real time    0.7680
    --------------------------------------------
      LOOP:  cpu time  178.5088: real time  179.0101

 eigenvalue-minimisations  :     0
 total energy-change (2. order) :-0.6273942E+03  (-0.5090739E+00)
 number of electron     254.0000007 magnetization       4.0001048
 augmentation part       15.4285963 magnetization       2.9099432

 DIPCOR: dipole corrections for dipol
 direction  3 min pos     1,
 dipolmoment           0.000000      0.000000     -0.053965 electrons x Angstroem
 Tr[quadrupol]     -7062.110623

 energy correction for charged system         0.000000 eV
 dipol+quadrupol energy correction           -0.000083 eV
 added-field ion interaction          0.070886 eV  (added to PSCEN)


 Free energy of the ion-electron system (eV)
  ---------------------------------------------------
  alpha Z        PSCENC =       106.37955713
  Ewald energy   TEWEN  =     41537.09807426
  -Hartree energ DENC   =    -50533.29432685
  -exchange      EXHF   =       576.84904060
  -V(xc)+E(xc)   XCENC  =       652.46455315
  PAW double counting   =     27636.40197538   -27726.21826575
  entropy T*S    EENTRO =        -0.00175299
  eigenvalues    EBANDS =     -3288.96428359
  atomic energy  EATOM  =     10411.89422592
  ---------------------------------------------------
  free energy    TOTEN  =      -627.39416052 eV

  energy without entropy =     -627.39240752  energy(sigma->0) =     -627.39328402
  exchange ACFDT corr.  =        -0.00920663  see jH, gK, PRB 81, 115126


--------------------------------------------------------------------------------------------------------




--------------------------------------- Iteration      1(   2)  ---------------------------------------


    POTLOK:  cpu time    0.8609: real time    0.8653
    SETDIJ:  cpu time    1.0193: real time    1.0229
    TRIAL :  cpu time  173.6224: real time  174.1018
    CORREC:  cpu time    0.0009: real time    0.0009
    CHARGE:  cpu time    0.7640: real time    0.7661
    --------------------------------------------
      LOOP:  cpu time  176.2689: real time  176.7613

 eigenvalue-minimisations  :     0
 total energy-change (2. order) :-0.3984118E+00  (-0.5145941E+00)
 number of electron     254.0000007 magnetization       4.0001206
 augmentation part       15.3858997 magnetization       2.9847778

 DIPCOR: dipole corrections for dipol
 direction  3 min pos     1,
 dipolmoment           0.000000      0.000000     -0.032972 electrons x Angstroem
 Tr[quadrupol]     -7061.957377

 energy correction for charged system         0.000000 eV
 dipol+quadrupol energy correction           -0.000031 eV
 added-field ion interaction          0.043311 eV  (added to PSCEN)


 Free energy of the ion-electron system (eV)
  ---------------------------------------------------
  alpha Z        PSCENC =       106.35203453
  Ewald energy   TEWEN  =     41537.09807426
  -Hartree energ DENC   =    -50522.12114798
  -exchange      EXHF   =       576.78537942
  -V(xc)+E(xc)   XCENC  =       652.14507735
  PAW double counting   =     27772.69821590   -27862.84950417
  entropy T*S    EENTRO =        -0.00061671
  eigenvalues    EBANDS =     -3299.79317459
  atomic energy  EATOM  =     10411.89422592
  ---------------------------------------------------
  free energy    TOTEN  =      -627.79257235 eV

  energy without entropy =     -627.79195564  energy(sigma->0) =     -627.79226400
  exchange ACFDT corr.  =        -0.00427974  see jH, gK, PRB 81, 115126


--------------------------------------------------------------------------------------------------------




--------------------------------------- Iteration      1(   3)  ---------------------------------------


    POTLOK:  cpu time    0.8718: real time    0.8751
    SETDIJ:  cpu time    1.0145: real time    1.0175
    TRIAL :  cpu time  173.9567: real time  174.4278
    CORREC:  cpu time    0.0007: real time    0.0007
    CHARGE:  cpu time    0.7618: real time    0.7638
    --------------------------------------------
      LOOP:  cpu time  176.6067: real time  177.0900

 eigenvalue-minimisations  :     0
 total energy-change (2. order) :-0.3515368E+00  (-0.3438315E+00)
 number of electron     254.0000007 magnetization       4.0000651
 augmentation part       15.3902830 magnetization       3.0319107

 DIPCOR: dipole corrections for dipol
 direction  3 min pos     1,
 dipolmoment           0.000000      0.000000     -0.037615 electrons x Angstroem
 Tr[quadrupol]     -7061.767626

 energy correction for charged system         0.000000 eV
 dipol+quadrupol energy correction           -0.000040 eV
 added-field ion interaction          0.049410 eV  (added to PSCEN)


 Free energy of the ion-electron system (eV)
  ---------------------------------------------------
  alpha Z        PSCENC =       106.35812398
  Ewald energy   TEWEN  =     41537.09807426
  -Hartree energ DENC   =    -50503.12174858
  -exchange      EXHF   =       576.72105029
  -V(xc)+E(xc)   XCENC  =       651.69213256
  PAW double counting   =     27940.84787730   -28029.59523010
  entropy T*S    EENTRO =        -0.00015101
  eigenvalues    EBANDS =     -3320.03799812
  atomic energy  EATOM  =     10411.89422592
  ---------------------------------------------------
  free energy    TOTEN  =      -628.14410920 eV

  energy without entropy =     -628.14395818  energy(sigma->0) =     -628.14403369
  exchange ACFDT corr.  =        -0.00102292  see jH, gK, PRB 81, 115126


--------------------------------------------------------------------------------------------------------




--------------------------------------- Iteration      1(   4)  ---------------------------------------


    POTLOK:  cpu time    0.9437: real time    0.9461
    SETDIJ:  cpu time    1.0186: real time    1.0213
    TRIAL :  cpu time  172.5651: real time  173.0361
    CORREC:  cpu time    0.0009: real time    0.0009
    CHARGE:  cpu time    0.7587: real time    0.7608
    --------------------------------------------
      LOOP:  cpu time  175.2881: real time  175.7702

 eigenvalue-minimisations  :     0
 total energy-change (2. order) :-0.2378081E+00  (-0.1910772E+00)
 number of electron     254.0000007 magnetization       4.0000472
 augmentation part       15.3915193 magnetization       3.0666896

 DIPCOR: dipole corrections for dipol
 direction  3 min pos     1,
 dipolmoment           0.000000      0.000000     -0.048034 electrons x Angstroem
 Tr[quadrupol]     -7061.749580

 energy correction for charged system         0.000000 eV
 dipol+quadrupol energy correction           -0.000066 eV
 added-field ion interaction          0.063094 eV  (added to PSCEN)


 Free energy of the ion-electron system (eV)
  ---------------------------------------------------
  alpha Z        PSCENC =       106.37178314
  Ewald energy   TEWEN  =     41537.09807426
  -Hartree energ DENC   =    -50499.43258983
  -exchange      EXHF   =       576.94583229
  -V(xc)+E(xc)   XCENC  =       651.60156588
  PAW double counting   =     28090.07790672   -28179.38935831
  entropy T*S    EENTRO =        -0.00005959
  eigenvalues    EBANDS =     -3323.54920635
  atomic energy  EATOM  =     10411.89422592
  ---------------------------------------------------
  free energy    TOTEN  =      -628.38191729 eV

  energy without entropy =     -628.38185770  energy(sigma->0) =     -628.38188750
  exchange ACFDT corr.  =        -0.00021339  see jH, gK, PRB 81, 115126


--------------------------------------------------------------------------------------------------------




--------------------------------------- Iteration      1(   5)  ---------------------------------------


    POTLOK:  cpu time    0.8729: real time    0.8774
    SETDIJ:  cpu time    0.9973: real time    1.0038
    TRIAL :  cpu time  172.5729: real time  173.0425
    CORREC:  cpu time    0.0007: real time    0.0007
    CHARGE:  cpu time    0.7590: real time    0.7612
    --------------------------------------------
      LOOP:  cpu time  175.2035: real time  175.6901

 eigenvalue-minimisations  :     0
 total energy-change (2. order) :-0.1577428E+00  (-0.1388298E+00)
 number of electron     254.0000007 magnetization       4.0000307
 augmentation part       15.3987366 magnetization       3.0843060

 DIPCOR: dipole corrections for dipol
 direction  3 min pos     1,
 dipolmoment           0.000000      0.000000     -0.063332 electrons x Angstroem
 Tr[quadrupol]     -7061.792816

 energy correction for charged system         0.000000 eV
 dipol+quadrupol energy correction           -0.000115 eV
 added-field ion interaction          0.083189 eV  (added to PSCEN)


 Free energy of the ion-electron system (eV)
  ---------------------------------------------------
  alpha Z        PSCENC =       106.39182964
  Ewald energy   TEWEN  =     41537.09807426
  -Hartree energ DENC   =    -50499.56134865
  -exchange      EXHF   =       577.27326376
  -V(xc)+E(xc)   XCENC  =       651.64381095
  PAW double counting   =     28195.33078027   -28284.53700652
  entropy T*S    EENTRO =        -0.00002764
  eigenvalues    EBANDS =     -3324.07323018
  atomic energy  EATOM  =     10411.89422592
  ---------------------------------------------------
  free energy    TOTEN  =      -628.53966013 eV

  energy without entropy =     -628.53963249  energy(sigma->0) =     -628.53964631
  exchange ACFDT corr.  =        -0.00006619  see jH, gK, PRB 81, 115126


--------------------------------------------------------------------------------------------------------




--------------------------------------- Iteration      1(   6)  ---------------------------------------


    POTLOK:  cpu time    0.8761: real time    0.8905
    SETDIJ:  cpu time    1.0239: real time    1.0268
    TRIAL :  cpu time  172.8373: real time  173.3147
    CORREC:  cpu time    0.0006: real time    0.0006
    CHARGE:  cpu time    0.7580: real time    0.7600
    --------------------------------------------
      LOOP:  cpu time  175.4973: real time  175.9975

 eigenvalue-minimisations  :     0
 total energy-change (2. order) :-0.1177292E+00  (-0.1102259E+00)
 number of electron     254.0000007 magnetization       4.0000155
 augmentation part       15.4103620 magnetization       3.0886777

 DIPCOR: dipole corrections for dipol
 direction  3 min pos     1,
 dipolmoment           0.000000      0.000000     -0.071755 electrons x Angstroem
 Tr[quadrupol]     -7061.861127

 energy correction for charged system         0.000000 eV
 dipol+quadrupol energy correction           -0.000147 eV
 added-field ion interaction          0.094253 eV  (added to PSCEN)


 Free energy of the ion-electron system (eV)
  ---------------------------------------------------
  alpha Z        PSCENC =       106.40286074
  Ewald energy   TEWEN  =     41537.09807426
  -Hartree energ DENC   =    -50503.00999911
  -exchange      EXHF   =       577.62699339
  -V(xc)+E(xc)   XCENC  =       651.77214131
  PAW double counting   =     28262.36300845   -28351.56321460
  entropy T*S    EENTRO =        -0.00001214
  eigenvalues    EBANDS =     -3321.24145201
  atomic energy  EATOM  =     10411.89422592
  ---------------------------------------------------
  free energy    TOTEN  =      -628.65738928 eV

  energy without entropy =     -628.65737714  energy(sigma->0) =     -628.65738321
  exchange ACFDT corr.  =        -0.00003145  see jH, gK, PRB 81, 115126


--------------------------------------------------------------------------------------------------------




--------------------------------------- Iteration      1(   7)  ---------------------------------------


    POTLOK:  cpu time    0.8694: real time    0.8733
    SETDIJ:  cpu time    1.0184: real time    1.0213
    TRIAL :  cpu time  172.8842: real time  173.3555
    CORREC:  cpu time    0.0007: real time    0.0007
    CHARGE:  cpu time    0.7577: real time    0.7596
    --------------------------------------------
      LOOP:  cpu time  175.5315: real time  176.0150

 eigenvalue-minimisations  :     0
 total energy-change (2. order) :-0.9543357E-01  (-0.8557892E-01)
 number of electron     254.0000007 magnetization       4.0000076
 augmentation part       15.4169907 magnetization       3.0889752

 DIPCOR: dipole corrections for dipol
 direction  3 min pos     1,
 dipolmoment           0.000000      0.000000     -0.071505 electrons x Angstroem
 Tr[quadrupol]     -7061.918593

 energy correction for charged system         0.000000 eV
 dipol+quadrupol energy correction           -0.000146 eV
 added-field ion interaction          0.093925 eV  (added to PSCEN)


 Free energy of the ion-electron system (eV)
  ---------------------------------------------------
  alpha Z        PSCENC =       106.40253377
  Ewald energy   TEWEN  =     41537.09807426
  -Hartree energ DENC   =    -50507.44836819
  -exchange      EXHF   =       577.93524656
  -V(xc)+E(xc)   XCENC  =       651.91385178
  PAW double counting   =     28301.96534398   -28391.41830038
  entropy T*S    EENTRO =        -0.00000548
  eigenvalues    EBANDS =     -3317.09541842
  atomic energy  EATOM  =     10411.89422592
  ---------------------------------------------------
  free energy    TOTEN  =      -628.75282284 eV

  energy without entropy =     -628.75281737  energy(sigma->0) =     -628.75282011
  exchange ACFDT corr.  =        -0.00001310  see jH, gK, PRB 81, 115126


--------------------------------------------------------------------------------------------------------




--------------------------------------- Iteration      1(   8)  ---------------------------------------


    POTLOK:  cpu time    0.8681: real time    0.8716
    SETDIJ:  cpu time    1.0129: real time    1.0160
    TRIAL :  cpu time  173.7447: real time  174.2469
    CORREC:  cpu time    0.0007: real time    0.0007
    CHARGE:  cpu time    0.7578: real time    0.7598
    --------------------------------------------
      LOOP:  cpu time  176.3852: real time  176.8995

 eigenvalue-minimisations  :     0
 total energy-change (2. order) :-0.7648539E-01  (-0.7100139E-01)
 number of electron     254.0000007 magnetization       4.0000038
 augmentation part       15.4204513 magnetization       3.0884299

 DIPCOR: dipole corrections for dipol
 direction  3 min pos     1,
 dipolmoment           0.000000      0.000000     -0.068023 electrons x Angstroem
 Tr[quadrupol]     -7061.942040

 energy correction for charged system         0.000000 eV
 dipol+quadrupol energy correction           -0.000132 eV
 added-field ion interaction          0.089351 eV  (added to PSCEN)


 Free energy of the ion-electron system (eV)
  ---------------------------------------------------
  alpha Z        PSCENC =       106.39797344
  Ewald energy   TEWEN  =     41537.09807426
  -Hartree energ DENC   =    -50509.92482626
  -exchange      EXHF   =       578.16367624
  -V(xc)+E(xc)   XCENC  =       652.00495647
  PAW double counting   =     28323.30960598   -28412.85804102
  entropy T*S    EENTRO =        -0.00000248
  eigenvalues    EBANDS =     -3314.91494780
  atomic energy  EATOM  =     10411.89422592
  ---------------------------------------------------
  free energy    TOTEN  =      -628.82930823 eV

  energy without entropy =     -628.82930575  energy(sigma->0) =     -628.82930699
  exchange ACFDT corr.  =        -0.00000565  see jH, gK, PRB 81, 115126


--------------------------------------------------------------------------------------------------------




--------------------------------------- Iteration      1(   9)  ---------------------------------------


    POTLOK:  cpu time    0.8707: real time    0.8741
    SETDIJ:  cpu time    1.0172: real time    1.0211
    TRIAL :  cpu time  172.7019: real time  173.1937
    CORREC:  cpu time    0.0007: real time    0.0007
    CHARGE:  cpu time    0.7586: real time    0.7608
    --------------------------------------------
      LOOP:  cpu time  175.3499: real time  175.8552

 eigenvalue-minimisations  :     0
 total energy-change (2. order) :-0.6419389E-01  (-0.5926466E-01)
 number of electron     254.0000007 magnetization       4.0000019
 augmentation part       15.4247529 magnetization       3.0871138

 DIPCOR: dipole corrections for dipol
 direction  3 min pos     1,
 dipolmoment           0.000000      0.000000     -0.063809 electrons x Angstroem
 Tr[quadrupol]     -7061.939540

 energy correction for charged system         0.000000 eV
 dipol+quadrupol energy correction           -0.000116 eV
 added-field ion interaction          0.083816 eV  (added to PSCEN)


 Free energy of the ion-electron system (eV)
  ---------------------------------------------------
  alpha Z        PSCENC =       106.39245468
  Ewald energy   TEWEN  =     41537.09807426
  -Hartree energ DENC   =    -50510.66452873
  -exchange      EXHF   =       578.32704467
  -V(xc)+E(xc)   XCENC  =       652.05042158
  PAW double counting   =     28334.16629492   -28423.70200878
  entropy T*S    EENTRO =        -0.00000108
  eigenvalues    EBANDS =     -3314.45547816
  atomic energy  EATOM  =     10411.89422592
  ---------------------------------------------------
  free energy    TOTEN  =      -628.89350213 eV

  energy without entropy =     -628.89350105  energy(sigma->0) =     -628.89350159
  exchange ACFDT corr.  =        -0.00000246  see jH, gK, PRB 81, 115126


--------------------------------------------------------------------------------------------------------




--------------------------------------- Iteration      1(  10)  ---------------------------------------


    POTLOK:  cpu time    0.8629: real time    0.8662
    SETDIJ:  cpu time    1.0227: real time    1.0258
    TRIAL :  cpu time  172.5152: real time  173.6815
    CORREC:  cpu time    0.0006: real time    0.0006
    CHARGE:  cpu time    0.7591: real time    0.7610
    --------------------------------------------
      LOOP:  cpu time  175.1616: real time  176.3397

 eigenvalue-minimisations  :     0
 total energy-change (2. order) :-0.5432841E-01  (-0.5043162E-01)
 number of electron     254.0000007 magnetization       4.0000011
 augmentation part       15.4288005 magnetization       3.0850635

 DIPCOR: dipole corrections for dipol
 direction  3 min pos     1,
 dipolmoment           0.000000      0.000000     -0.059605 electrons x Angstroem
 Tr[quadrupol]     -7061.927408

 energy correction for charged system         0.000000 eV
 dipol+quadrupol energy correction           -0.000102 eV
 added-field ion interaction          0.078294 eV  (added to PSCEN)


 Free energy of the ion-electron system (eV)
  ---------------------------------------------------
  alpha Z        PSCENC =       106.38694705
  Ewald energy   TEWEN  =     41537.09807426
  -Hartree energ DENC   =    -50510.87962207
  -exchange      EXHF   =       578.45108612
  -V(xc)+E(xc)   XCENC  =       652.07606476
  PAW double counting   =     28339.63183232   -28429.22947936
  entropy T*S    EENTRO =        -0.00000046
  eigenvalues    EBANDS =     -3314.37695847
  atomic energy  EATOM  =     10411.89422592
  ---------------------------------------------------
  free energy    TOTEN  =      -628.94783054 eV

  energy without entropy =     -628.94783008  energy(sigma->0) =     -628.94783031
  exchange ACFDT corr.  =        -0.00000103  see jH, gK, PRB 81, 115126


--------------------------------------------------------------------------------------------------------




--------------------------------------- Iteration      1(  11)  ---------------------------------------


    POTLOK:  cpu time    0.8603: real time    0.8642
    SETDIJ:  cpu time    1.0119: real time    1.0151
    TRIAL :  cpu time  172.6474: real time  173.1182
    CORREC:  cpu time    0.0006: real time    0.0006
    CHARGE:  cpu time    0.7570: real time    0.7591
    --------------------------------------------
      LOOP:  cpu time  175.2779: real time  175.7620

 eigenvalue-minimisations  :     0
 total energy-change (2. order) :-0.4650023E-01  (-0.4297065E-01)
 number of electron     254.0000007 magnetization       4.0000008
 augmentation part       15.4312487 magnetization       3.0825612

 DIPCOR: dipole corrections for dipol
 direction  3 min pos     1,
 dipolmoment           0.000000      0.000000     -0.056139 electrons x Angstroem
 Tr[quadrupol]     -7061.914005

 energy correction for charged system         0.000000 eV
 dipol+quadrupol energy correction           -0.000090 eV
 added-field ion interaction          0.073741 eV  (added to PSCEN)


 Free energy of the ion-electron system (eV)
  ---------------------------------------------------
  alpha Z        PSCENC =       106.38240573
  Ewald energy   TEWEN  =     41537.09807426
  -Hartree energ DENC   =    -50510.92004368
  -exchange      EXHF   =       578.55200730
  -V(xc)+E(xc)   XCENC  =       652.09236902
  PAW double counting   =     28342.25289086   -28431.94801626
  entropy T*S    EENTRO =        -0.00000020
  eigenvalues    EBANDS =     -3314.39824347
  atomic energy  EATOM  =     10411.89422592
  ---------------------------------------------------
  free energy    TOTEN  =      -628.99433077 eV

  energy without entropy =     -628.99433057  energy(sigma->0) =     -628.99433067
  exchange ACFDT corr.  =        -0.00000044  see jH, gK, PRB 81, 115126


--------------------------------------------------------------------------------------------------------




--------------------------------------- Iteration      1(  12)  ---------------------------------------


    POTLOK:  cpu time    0.8609: real time    0.8649
    SETDIJ:  cpu time    1.0137: real time    1.0163
    TRIAL :  cpu time  172.8757: real time  173.3466
    CORREC:  cpu time    0.0006: real time    0.0006
    CHARGE:  cpu time    0.7580: real time    0.7602
    --------------------------------------------
      LOOP:  cpu time  175.5099: real time  175.9934

 eigenvalue-minimisations  :     0
 total energy-change (2. order) :-0.3986440E-01  (-0.3680853E-01)
 number of electron     254.0000007 magnetization       4.0000007
 augmentation part       15.4328284 magnetization       3.0796190

 DIPCOR: dipole corrections for dipol
 direction  3 min pos     1,
 dipolmoment           0.000000      0.000000     -0.053376 electrons x Angstroem
 Tr[quadrupol]     -7061.901797

 energy correction for charged system         0.000000 eV
 dipol+quadrupol energy correction           -0.000081 eV
 added-field ion interaction          0.070112 eV  (added to PSCEN)


 Free energy of the ion-electron system (eV)
  ---------------------------------------------------
  alpha Z        PSCENC =       106.37878502
  Ewald energy   TEWEN  =     41537.09807426
  -Hartree energ DENC   =    -50510.80101088
  -exchange      EXHF   =       578.63935270
  -V(xc)+E(xc)   XCENC  =       652.10294025
  PAW double counting   =     28343.60898605   -28433.35955487
  entropy T*S    EENTRO =        -0.00000009
  eigenvalues    EBANDS =     -3314.59599343
  atomic energy  EATOM  =     10411.89422592
  ---------------------------------------------------
  free energy    TOTEN  =      -629.03419517 eV

  energy without entropy =     -629.03419508  energy(sigma->0) =     -629.03419512
  exchange ACFDT corr.  =        -0.00000019  see jH, gK, PRB 81, 115126


--------------------------------------------------------------------------------------------------------




--------------------------------------- Iteration      1(  13)  ---------------------------------------


    POTLOK:  cpu time    0.8580: real time    0.8614
    SETDIJ:  cpu time    1.0198: real time    1.0227
    TRIAL :  cpu time  172.3129: real time  172.7907
    CORREC:  cpu time    0.0006: real time    0.0006
    CHARGE:  cpu time    0.7577: real time    0.7596
    --------------------------------------------
      LOOP:  cpu time  174.9495: real time  175.4401

 eigenvalue-minimisations  :     0
 total energy-change (2. order) :-0.3426238E-01  (-0.3142670E-01)
 number of electron     254.0000007 magnetization       4.0000006
 augmentation part       15.4346135 magnetization       3.0762093

 DIPCOR: dipole corrections for dipol
 direction  3 min pos     1,
 dipolmoment           0.000000      0.000000     -0.050561 electrons x Angstroem
 Tr[quadrupol]     -7061.891285

 energy correction for charged system         0.000000 eV
 dipol+quadrupol energy correction           -0.000073 eV
 added-field ion interaction          0.066414 eV  (added to PSCEN)


 Free energy of the ion-electron system (eV)
  ---------------------------------------------------
  alpha Z        PSCENC =       106.37509595
  Ewald energy   TEWEN  =     41537.09807426
  -Hartree energ DENC   =    -50510.66493048
  -exchange      EXHF   =       578.71801109
  -V(xc)+E(xc)   XCENC  =       652.11159619
  PAW double counting   =     28344.75776007   -28434.53357729
  entropy T*S    EENTRO =        -0.00000004
  eigenvalues    EBANDS =     -3314.82471318
  atomic energy  EATOM  =     10411.89422592
  ---------------------------------------------------
  free energy    TOTEN  =      -629.06845755 eV

  energy without entropy =     -629.06845751  energy(sigma->0) =     -629.06845753
  exchange ACFDT corr.  =        -0.00000008  see jH, gK, PRB 81, 115126


--------------------------------------------------------------------------------------------------------




--------------------------------------- Iteration      1(  14)  ---------------------------------------


    POTLOK:  cpu time    0.8576: real time    0.8623
    SETDIJ:  cpu time    1.0075: real time    1.0104
    TRIAL :  cpu time  172.9398: real time  173.4105
    CORREC:  cpu time    0.0007: real time    0.0007
    CHARGE:  cpu time    0.7593: real time    0.7613
    --------------------------------------------
      LOOP:  cpu time  175.5660: real time  176.0496

 eigenvalue-minimisations  :     0
 total energy-change (2. order) :-0.2935054E-01  (-0.2679052E-01)
 number of electron     254.0000007 magnetization       4.0000006
 augmentation part       15.4364627 magnetization       3.0724292

 DIPCOR: dipole corrections for dipol
 direction  3 min pos     1,
 dipolmoment           0.000000      0.000000     -0.047356 electrons x Angstroem
 Tr[quadrupol]     -7061.882076

 energy correction for charged system         0.000000 eV
 dipol+quadrupol energy correction           -0.000064 eV
 added-field ion interaction          0.062205 eV  (added to PSCEN)


 Free energy of the ion-electron system (eV)
  ---------------------------------------------------
  alpha Z        PSCENC =       106.37089533
  Ewald energy   TEWEN  =     41537.09807426
  -Hartree energ DENC   =    -50510.63773912
  -exchange      EXHF   =       578.78951132
  -V(xc)+E(xc)   XCENC  =       652.12056047
  PAW double counting   =     28346.15851322   -28435.97191082
  entropy T*S    EENTRO =        -0.00000002
  eigenvalues    EBANDS =     -3314.91993863
  atomic energy  EATOM  =     10411.89422592
  ---------------------------------------------------
  free energy    TOTEN  =      -629.09780809 eV

  energy without entropy =     -629.09780807  energy(sigma->0) =     -629.09780808
  exchange ACFDT corr.  =        -0.00000003  see jH, gK, PRB 81, 115126


--------------------------------------------------------------------------------------------------------




--------------------------------------- Iteration      1(  15)  ---------------------------------------


    POTLOK:  cpu time    0.8665: real time    0.8703
    SETDIJ:  cpu time    1.0067: real time    1.0100
    TRIAL :  cpu time  172.2801: real time  172.7492
    CORREC:  cpu time    0.0006: real time    0.0006
    CHARGE:  cpu time    0.7580: real time    0.7600
    --------------------------------------------
      LOOP:  cpu time  174.9130: real time  175.3949

 eigenvalue-minimisations  :     0
 total energy-change (2. order) :-0.2507252E-01  (-0.2276492E-01)
 number of electron     254.0000007 magnetization       4.0000006
 augmentation part       15.4378047 magnetization       3.0683942

 DIPCOR: dipole corrections for dipol
 direction  3 min pos     1,
 dipolmoment           0.000000      0.000000     -0.044127 electrons x Angstroem
 Tr[quadrupol]     -7061.873236

 energy correction for charged system         0.000000 eV
 dipol+quadrupol energy correction           -0.000056 eV
 added-field ion interaction          0.057963 eV  (added to PSCEN)


 Free energy of the ion-electron system (eV)
  ---------------------------------------------------
  alpha Z        PSCENC =       106.36666210
  Ewald energy   TEWEN  =     41537.09807426
  -Hartree energ DENC   =    -50510.66268194
  -exchange      EXHF   =       578.85368266
  -V(xc)+E(xc)   XCENC  =       652.12888072
  PAW double counting   =     28347.91950722   -28437.78065505
  entropy T*S    EENTRO =        -0.00000001
  eigenvalues    EBANDS =     -3314.94057648
  atomic energy  EATOM  =     10411.89422592
  ---------------------------------------------------
  free energy    TOTEN  =      -629.12288062 eV

  energy without entropy =     -629.12288061  energy(sigma->0) =     -629.12288061
  exchange ACFDT corr.  =        -0.00000001  see jH, gK, PRB 81, 115126


--------------------------------------------------------------------------------------------------------




--------------------------------------- Iteration      1(  16)  ---------------------------------------


    POTLOK:  cpu time    0.8561: real time    0.8604
    SETDIJ:  cpu time    1.0145: real time    1.0172
    TRIAL :  cpu time  172.2717: real time  172.7496
    CORREC:  cpu time    0.0006: real time    0.0006
    CHARGE:  cpu time    0.7583: real time    0.7604
    --------------------------------------------
      LOOP:  cpu time  174.9021: real time  175.3925

 eigenvalue-minimisations  :     0
 total energy-change (2. order) :-0.2134172E-01  (-0.1928501E-01)
 number of electron     254.0000007 magnetization       4.0000006
 augmentation part       15.4386500 magnetization       3.0642385

 DIPCOR: dipole corrections for dipol
 direction  3 min pos     1,
 dipolmoment           0.000000      0.000000     -0.041209 electrons x Angstroem
 Tr[quadrupol]     -7061.864167

 energy correction for charged system         0.000000 eV
 dipol+quadrupol energy correction           -0.000049 eV
 added-field ion interaction          0.054129 eV  (added to PSCEN)


 Free energy of the ion-electron system (eV)
  ---------------------------------------------------
  alpha Z        PSCENC =       106.36283556
  Ewald energy   TEWEN  =     41537.09807426
  -Hartree energ DENC   =    -50510.64120179
  -exchange      EXHF   =       578.91058366
  -V(xc)+E(xc)   XCENC  =       652.13528007
  PAW double counting   =     28349.92151897   -28439.81814138
  entropy T*S    EENTRO =        -0.00000000
  eigenvalues    EBANDS =     -3315.00739761
  atomic energy  EATOM  =     10411.89422592
  ---------------------------------------------------
  free energy    TOTEN  =      -629.14422234 eV

  energy without entropy =     -629.14422233  energy(sigma->0) =     -629.14422234
  exchange ACFDT corr.  =        -0.00000001  see jH, gK, PRB 81, 115126


--------------------------------------------------------------------------------------------------------




--------------------------------------- Iteration      1(  17)  ---------------------------------------


    POTLOK:  cpu time    0.8562: real time    0.8617
    SETDIJ:  cpu time    1.0191: real time    1.0221
    TRIAL :  cpu time  172.2963: real time  172.7696
    CORREC:  cpu time    0.0005: real time    0.0005
    CHARGE:  cpu time    0.7567: real time    0.7588
    --------------------------------------------
      LOOP:  cpu time  174.9303: real time  175.4177

 eigenvalue-minimisations  :     0
 total energy-change (2. order) :-0.1810616E-01  (-0.1629209E-01)
 number of electron     254.0000007 magnetization       4.0000006
 augmentation part       15.4394199 magnetization       3.0601627

 DIPCOR: dipole corrections for dipol
 direction  3 min pos     1,
 dipolmoment           0.000000      0.000000     -0.038528 electrons x Angstroem
 Tr[quadrupol]     -7061.855019

 energy correction for charged system         0.000000 eV
 dipol+quadrupol energy correction           -0.000042 eV
 added-field ion interaction          0.050608 eV  (added to PSCEN)


 Free energy of the ion-electron system (eV)
  ---------------------------------------------------
  alpha Z        PSCENC =       106.35932065
  Ewald energy   TEWEN  =     41537.09807426
  -Hartree energ DENC   =    -50510.57185876
  -exchange      EXHF   =       578.96094669
  -V(xc)+E(xc)   XCENC  =       652.14014181
  PAW double counting   =     28351.93525209   -28441.85552773
  entropy T*S    EENTRO =        -0.00000000
  eigenvalues    EBANDS =     -3315.12290343
  atomic energy  EATOM  =     10411.89422592
  ---------------------------------------------------
  free energy    TOTEN  =      -629.16232850 eV

  energy without entropy =     -629.16232850  energy(sigma->0) =     -629.16232850
[...]
  energy-cutoff  :      500.00
  volume of cell :     3176.88
      direct lattice vectors                 reciprocal lattice vectors
    12.810000000  0.000000000  0.000000000     0.078064012  0.000000000  0.000000000
     0.000000000 12.400000000  0.000000000     0.000000000  0.080645161  0.000000000
     0.000000000  0.000000000 20.000000000     0.000000000  0.000000000  0.050000000

  length of vectors
    12.810000000 12.400000000 20.000000000     0.078064012  0.080645161  0.050000000


 FORCES acting on ions:
    Electron-Ion                     Ewald-Force                    Non-Local-Force
 -----------------------------------------------------------------------------------------------
   0.572E+01 -.621E+01 0.409E+02   -.562E+01 0.594E+01 -.410E+02   -.587E-01 0.178E+00 0.913E-01
   -.354E+00 -.223E+01 0.380E+02   0.617E+00 0.211E+01 -.380E+02   -.275E+00 0.419E-01 0.518E-01
   0.582E+01 -.122E+00 0.400E+02   -.575E+01 0.110E+00 -.399E+02   -.116E+00 0.543E-01 -.816E-01
   0.146E+02 0.277E+01 0.378E+02   -.148E+02 -.287E+01 -.376E+02   0.242E+00 0.933E-01 -.197E+00
   0.850E+01 0.448E+01 0.221E+02   -.848E+01 -.449E+01 -.221E+02   -.321E-01 -.139E-01 0.649E-01
   0.324E+01 0.589E+01 0.292E+02   -.312E+01 -.626E+01 -.292E+02   -.115E+00 0.321E+00 0.384E-01
   0.432E+01 0.793E+01 0.268E+02   -.425E+01 -.803E+01 -.267E+02   -.772E-01 0.141E+00 -.666E-01
   0.225E+02 0.200E+02 0.282E+01   -.226E+02 -.201E+02 -.254E+01   0.813E-01 0.135E-01 -.269E+00
   0.317E+02 0.531E+02 0.902E+01   -.332E+02 -.559E+02 -.979E+01   0.147E+01 0.297E+01 0.764E+00
   0.151E+02 0.351E+01 0.211E+02   -.152E+02 -.340E+01 -.210E+02   0.150E+00 -.682E-01 -.117E+00
   0.165E+02 0.145E+02 0.241E+02   -.167E+02 -.147E+02 -.243E+02   0.221E+00 0.224E+00 0.129E+00
   0.384E+02 -.381E+02 0.316E+01   -.397E+02 0.413E+02 -.360E+01   0.130E+01 -.327E+01 0.482E+00
   0.911E+01 -.750E+01 0.330E+02   -.913E+01 0.778E+01 -.329E+02   0.150E-01 -.226E+00 -.811E-01
   0.205E+02 -.797E+01 0.253E+02   -.206E+02 0.829E+01 -.255E+02   0.758E-01 -.325E+00 0.195E+00
   0.258E+02 -.173E+02 0.360E+01   -.252E+02 0.171E+02 -.367E+01   -.841E+00 0.227E+00 -.537E-01
   0.124E+02 -.154E+02 0.388E+02   -.121E+02 0.152E+02 -.389E+02   -.202E+00 0.738E-01 0.247E+00
   0.182E+01 -.600E+01 0.457E+02   -.165E+01 0.607E+01 -.458E+02   -.198E+00 -.686E-01 0.716E-01
   0.884E+01 -.521E+01 0.452E+02   -.878E+01 0.527E+01 -.452E+02   -.107E+00 -.606E-01 0.109E+00
   0.111E+02 -.644E+01 0.361E+02   -.112E+02 0.658E+01 -.357E+02   0.533E-01 -.164E-01 -.329E+00
   -.165E+01 -.167E+01 0.685E+02   0.131E+01 0.167E+01 -.683E+02   0.301E+00 0.153E-01 -.137E+00
   0.726E+01 0.551E+01 0.626E+02   -.776E+01 -.582E+01 -.626E+02   0.456E+00 0.319E+00 0.130E+00
   0.565E+01 -.221E+01 0.679E+02   -.582E+01 0.207E+01 -.680E+02   0.192E+00 0.157E+00 0.144E+00
   -.623E+01 0.784E+01 0.785E+02   0.631E+01 -.818E+01 -.786E+02   -.547E-01 0.306E+00 0.144E+00
   -.193E+01 0.172E+02 0.783E+02   0.172E+01 -.178E+02 -.781E+02   0.179E+00 0.569E+00 -.588E-01
   0.398E+02 0.461E+02 0.262E+02   -.419E+02 -.488E+02 -.271E+02   0.230E+01 0.283E+01 0.956E+00
   0.104E+02 0.187E+02 0.655E+02   -.107E+02 -.192E+02 -.657E+02   0.297E+00 0.375E+00 0.175E+00
   -.170E+02 0.240E+02 0.823E+02   0.174E+02 -.249E+02 -.830E+02   -.354E+00 0.721E+00 0.686E+00
   -.292E+02 0.416E+02 0.291E+02   0.306E+02 -.446E+02 -.306E+02   -.153E+01 0.318E+01 0.176E+01
   0.408E+02 -.837E+02 -.642E+02   -.411E+02 0.843E+02 0.631E+02   0.645E+00 -.134E+01 0.163E+01
   0.125E+02 -.411E+02 0.137E+02   -.147E+02 0.437E+02 -.142E+02   0.222E+01 -.272E+01 0.618E+00
   0.885E+01 -.125E+02 0.444E+02   -.895E+01 0.122E+02 -.445E+02   0.155E+00 0.284E+00 0.160E+00
   0.190E+01 -.231E+02 0.205E+01   -.206E+01 0.226E+02 -.205E+01   0.250E+00 0.618E+00 -.145E+00
   -.503E+01 -.131E+02 0.544E+02   0.484E+01 0.133E+02 -.547E+02   0.214E+00 -.495E-01 0.290E+00
   -.657E+01 -.348E+01 0.478E+02   0.670E+01 0.344E+01 -.477E+02   -.159E+00 0.173E-01 -.196E-01
   -.899E+01 0.232E+01 0.672E+02   0.898E+01 -.243E+01 -.671E+02   -.386E-01 0.933E-01 -.920E-01
   -.827E+01 0.110E+01 0.561E+02   0.847E+01 -.104E+01 -.562E+02   -.166E+00 -.270E-01 0.993E-01
   -.295E+01 0.432E+01 0.462E+02   0.322E+01 -.439E+01 -.463E+02   -.228E+00 0.609E-01 0.479E-01
   -.841E+01 0.205E+01 0.494E+02   0.862E+01 -.212E+01 -.493E+02   -.218E+00 0.785E-01 -.431E-01
   -.208E+02 0.958E+01 0.635E+02   0.212E+02 -.978E+01 -.633E+02   -.493E+00 0.219E+00 -.158E+00
   -.112E+02 0.934E+01 0.655E+02   0.115E+02 -.960E+01 -.656E+02   -.232E+00 0.261E+00 0.141E+00
   -.357E+01 0.508E+01 0.414E+02   0.376E+01 -.515E+01 -.415E+02   -.151E+00 0.667E-01 0.740E-01
   -.111E+02 0.345E+01 0.382E+02   0.116E+02 -.333E+01 -.382E+02   -.453E+00 -.102E+00 0.804E-01
   -.593E+02 -.136E+02 0.141E+02   0.628E+02 0.139E+02 -.150E+02   -.374E+01 -.470E+00 0.991E+00
   -.240E+02 0.541E+01 0.466E+02   0.246E+02 -.547E+01 -.467E+02   -.461E+00 0.662E-01 0.129E+00
   -.155E+01 -.226E+01 0.218E+02   0.151E+01 0.244E+01 -.217E+02   0.483E-01 -.182E+00 -.107E+00
   -.532E+01 -.335E+01 0.136E+02   0.524E+01 0.346E+01 -.136E+02   0.265E-01 -.106E+00 -.913E-03
   -.559E+02 0.149E+01 0.103E+02   0.588E+02 -.139E+01 -.111E+02   -.316E+01 0.162E+00 0.824E+00
   -.223E+02 -.475E+01 -.107E+01   0.225E+02 0.502E+01 0.100E+01   -.606E-01 -.306E+00 0.397E-01
   -.151E+01 -.199E-01 0.259E+02   0.165E+01 0.273E-01 -.258E+02   -.115E+00 0.291E-01 -.671E-01
   -.794E+01 -.648E+01 0.363E+02   0.824E+01 0.638E+01 -.363E+02   -.314E+00 0.107E+00 0.794E-01
   -.137E+02 -.104E+02 0.454E+02   0.137E+02 0.105E+02 -.452E+02   -.107E+00 -.152E+00 -.143E+00
   -.191E+02 -.568E+01 0.335E+02   0.195E+02 0.569E+01 -.336E+02   -.331E+00 -.570E-02 0.829E-01
   -.125E+01 0.213E+00 0.437E+02   0.146E+01 -.237E+00 -.437E+02   -.158E+00 0.295E-01 0.200E-01
   0.374E+02 0.144E+02 -.276E+02   -.182E+02 -.139E+02 0.327E+02   -.183E+02 -.555E+00 -.486E+01
   0.212E+02 0.530E+02 -.445E+02   -.306E+02 -.375E+02 0.524E+02   0.902E+01 -.151E+02 -.778E+01
   -.423E+02 -.916E+01 -.478E+02   0.324E+02 0.246E+02 0.539E+02   0.956E+01 -.150E+02 -.606E+01
   0.498E+02 -.126E+03 -.500E+03   -.476E+02 0.119E+03 0.520E+03   -.256E+01 0.712E+01 -.188E+02
   -.104E+02 -.246E+01 -.357E+02   -.100E+01 -.156E+02 0.412E+02   0.111E+02 0.172E+02 -.563E+01
   0.101E+03 0.132E+03 -.544E+03   -.103E+03 -.132E+03 0.542E+03   0.446E-01 -.112E+01 0.195E+01
   -.195E+03 -.378E+02 -.666E+03   0.192E+03 0.389E+02 0.662E+03   0.485E+01 -.895E-02 0.523E+01
 -----------------------------------------------------------------------------------------------
   -.108E+02 0.189E+01 0.300E+02   -.739E-12 0.284E-13 -.796E-12   0.101E+02 -.203E+01 -.265E+02
 
 
 POSITION                                       TOTAL-FORCE (eV/Angst)
 -----------------------------------------------------------------------------------
      2.84331      0.00927      9.81047         0.036249     -0.091671      0.050348
      0.72886      1.25013      9.75507        -0.029833     -0.082779      0.022974
      1.41843      0.00214      9.76857        -0.044224      0.050110      0.021081
      3.55592      1.26281      9.82021         0.053340     -0.001016      0.015549
      2.87473      2.52507      9.90621        -0.019683     -0.037195      0.012515
      0.72181      3.72986      9.86143         0.000117     -0.034663     -0.010544
      1.44138      2.49867      9.83881        -0.007303      0.055268     -0.000278
      3.59980      3.76936     10.08685        -0.066310     -0.066544     -0.001393
      2.83893      5.02071     10.16826         0.000310      0.438526      0.038937
      0.68134      6.20993      9.98207         0.028860      0.037712      0.016148
      1.41350      4.97849      9.98508         0.026340     -0.014632     -0.008247
      2.79763      7.44509     10.26019         0.066641     -0.241549      0.063738
      0.67303      8.67903      9.92038        -0.005035      0.035497      0.033747
      1.38658      7.44995     10.03075        -0.006756     -0.024281      0.035373
      3.49984      8.71314     10.29760        -0.285325      0.116499     -0.131542
      2.81572      9.92334      9.98799         0.034076     -0.162074      0.124945
      0.69886     11.15979      9.77240        -0.044299     -0.000996      0.040878
      1.39301      9.91790      9.86387        -0.044240     -0.001937      0.056449
      3.54067     11.17124      9.91007        -0.043083      0.129238      0.002558
      7.10451     12.38516      9.73194        -0.027012      0.011548      0.058092
      4.97389      1.24094      9.76402        -0.024506      0.025403      0.066948
      5.68275      0.00187      9.76784         0.030743      0.023023      0.061026
      7.83174      1.20813      9.65575         0.018248     -0.010796      0.034849
      7.12467      2.43302      9.72837        -0.010844      0.083076      0.096455
      5.04698      3.70111     10.09583         0.386028      0.323574      0.189345
      5.70374      2.46408      9.81706         0.045573     -0.096518      0.039826
      7.86009      3.64034      9.82726         0.036472     -0.135178      0.038273
      7.17836      4.80496     10.21019        -0.195867      0.299232      0.304356
      4.87964      8.87069     10.74263         0.389879     -0.859942      0.717430
      7.11682      9.95554     10.18557         0.217883     -0.232923      0.125533
      4.97386     11.17548      9.94649         0.066808     -0.073960      0.116459
      5.68184      9.98794     10.26597         0.084589      0.234050     -0.151275
      7.81491     11.16017      9.86485         0.043732      0.088907      0.081723
     11.38875     12.39128      9.70085        -0.037744     -0.022252      0.019302
      9.25661      1.21703      9.64713        -0.051558     -0.015720      0.046819
      9.96185     12.38231      9.69266         0.029481      0.032877      0.018067
     12.11114      1.23462      9.70168         0.032159     -0.000810      0.017462
     11.40367      2.47009      9.70505        -0.015567      0.005759      0.017953
      9.27424      3.67541      9.77383        -0.089041      0.024879      0.056533
      9.98002      2.45192      9.67214         0.024442      0.013024      0.032353
     12.10468      3.71757      9.78768         0.030649     -0.000988      0.008294
     11.38292      4.95009      9.85654        -0.026315      0.015783      0.018380
      9.21638      6.11091     10.16025        -0.410351     -0.163830      0.101757
      9.96132      4.92330      9.89660         0.082600      0.007349     -0.000121
     12.06112      6.20128      9.94006         0.009370     -0.020586     -0.013345
     11.31541      7.42940      9.99261        -0.043796     -0.011010      0.005896
      9.18517      8.70677     10.15823        -0.460329      0.287231      0.066994
      9.87307      7.41544     10.13391         0.155904     -0.056056     -0.029144
     12.05025      8.66454      9.91273         0.023727      0.044937     -0.000750
     11.35838      9.90726      9.84474        -0.030050     -0.002750      0.022710
      9.23840     11.15389      9.81325        -0.070392     -0.045100      0.035785
      9.93306      9.91053      9.91825         0.077800      0.011163     -0.000893
     12.08157     11.14749      9.75505         0.044040      0.013784      0.019608
      3.44609      6.22938     10.42688        -0.650013     -0.129074     -0.221082
      5.82452      4.79398     10.43673         0.370930     -0.870532     -0.529582
      7.87386      5.96620     10.46648         0.514186     -0.836098     -0.544427
      5.35490      8.02295     11.63592        -0.624916      0.766785     -0.600924
      7.83410      8.79778     10.41799         0.705843      0.671104     -0.629035
      5.14732      6.30963     11.23885        -0.896199     -0.183855     -0.452917
      7.07898      7.33711     11.51622         0.593573      0.680981      0.372033
 -----------------------------------------------------------------------------------
    total drift:                                0.000456      0.003774      0.014002


--------------------------------------------------------------------------------------------------------



  FREE ENERGIE OF THE ION-ELECTRON SYSTEM (eV)
  ---------------------------------------------------
  free  energy   TOTEN  =      -629.30803848 eV

  energy  without entropy=     -629.30803848  energy(sigma->0) =     -629.30803848
 


--------------------------------------------------------------------------------------------------------


    POTLOK:  cpu time    1.8757: real time    1.8815


--------------------------------------------------------------------------------------------------------


 stress matrix after NEB project (eV)
    -33.74581    -10.78673     -0.60547
    -10.78731    -41.07160      1.01843
     -0.61053      1.01733     -1.84091
  FORCES: max atom, RMS     1.185838    0.426531
  FORCE total and by dimension    3.303893    0.896199
  Stress total and by dimension   55.358612   41.071597
 writing wavefunctions
     LOOP+:  cpu time32307.0795: real time32408.1926
 vacuum level on the upper side and lower side of the slab         1.551         1.549
    4ORBIT:  cpu time    0.0000: real time    0.0000
 


 total charge     
 
# of ion       s       p       d       tot
------------------------------------------
    1        0.866   1.757   0.000   2.622
    2        0.865   1.757   0.000   2.622
    3        0.864   1.775   0.000   2.639
    4        0.861   1.769   0.000   2.631
    5        0.860   1.734   0.000   2.594
    6        0.866   1.760   0.000   2.627
    7        0.861   1.766   0.000   2.627
    8        0.847   1.738   0.000   2.585
    9        0.854   1.699   0.000   2.553
   10        0.867   1.755   0.000   2.622
   11        0.862   1.768   0.000   2.630
   12        0.856   1.707   0.000   2.563
   13        0.865   1.759   0.000   2.624
   14        0.866   1.781   0.000   2.647
   15        0.859   1.760   0.000   2.618
   16        0.866   1.750   0.000   2.616
   17        0.866   1.761   0.000   2.628
   18        0.865   1.771   0.000   2.636
   19        0.859   1.770   0.000   2.630
   20        0.869   1.776   0.000   2.645
   21        0.869   1.771   0.000   2.640
   22        0.866   1.778   0.000   2.645
   23        0.868   1.786   0.000   2.654
   24        0.872   1.782   0.000   2.654
   25        0.857   1.714   0.000   2.571
   26        0.867   1.784   0.000   2.651
   27        0.874   1.818   0.000   2.692
   28        0.862   1.726   0.000   2.587
   29        0.871   1.728   0.000   2.599
   30        0.858   1.720   0.000   2.578
   31        0.869   1.761   0.000   2.630
   32        0.861   1.775   0.000   2.636
   33        0.868   1.784   0.000   2.652
   34        0.866   1.761   0.000   2.627
   35        0.868   1.768   0.000   2.636
   36        0.866   1.778   0.000   2.644
   37        0.864   1.770   0.000   2.634
   38        0.868   1.766   0.000   2.634
   39        0.872   1.777   0.000   2.649
   40        0.867   1.783   0.000   2.651
   41        0.863   1.769   0.000   2.633
   42        0.869   1.766   0.000   2.634
   43        0.856   1.701   0.000   2.557
   44        0.866   1.786   0.000   2.652
   45        0.862   1.772   0.000   2.634
   46        0.860   1.732   0.000   2.592
   47        0.855   1.698   0.000   2.553
   48        0.845   1.739   0.000   2.584
   49        0.862   1.769   0.000   2.631
   50        0.866   1.760   0.000   2.626
   51        0.868   1.762   0.000   2.630
   52        0.864   1.775   0.000   2.640
   53        0.864   1.769   0.000   2.633
   54        1.228   2.667   0.000   3.895
   55        1.232   2.686   0.000   3.918
   56        1.229   2.700   0.000   3.929
   57        1.263   2.601   0.000   3.864
   58        1.233   2.678   0.000   3.911
   59        0.488   0.661   7.452   8.602
   60        0.469   0.562   6.280   7.312
--------------------------------------------------
tot         52.922 107.800  13.733 174.454
 


 magnetization (x)
 
# of ion       s       p       d       tot
------------------------------------------
    1       -0.000  -0.002   0.000  -0.002
    2       -0.000  -0.002   0.000  -0.003
    3        0.000   0.003   0.000   0.003
    4        0.000   0.003   0.000   0.003
    5       -0.000  -0.003   0.000  -0.003
    6       -0.000  -0.003   0.000  -0.004
    7        0.000   0.003   0.000   0.004
    8        0.001   0.006   0.000   0.006
    9       -0.000  -0.005   0.000  -0.005
   10       -0.000  -0.002   0.000  -0.002
   11        0.000   0.002   0.000   0.002
   12       -0.000  -0.001   0.000  -0.001
   13       -0.000  -0.002   0.000  -0.002
   14       -0.000   0.001   0.000   0.000
   15        0.000  -0.000   0.000  -0.000
   16       -0.000  -0.001   0.000  -0.001
   17       -0.000  -0.002   0.000  -0.002
   18        0.000   0.002   0.000   0.002
   19        0.000   0.003   0.000   0.003
   20       -0.000  -0.003   0.000  -0.003
   21       -0.000  -0.002   0.000  -0.003
   22        0.000   0.002   0.000   0.002
   23        0.000   0.003   0.000   0.004
   24       -0.000  -0.005   0.000  -0.005
   25       -0.001  -0.009   0.000  -0.010
   26        0.000   0.004   0.000   0.004
   27        0.000   0.002   0.000   0.002
   28       -0.000  -0.003   0.000  -0.003
   29        0.001   0.014   0.000   0.016
   30        0.000  -0.002   0.000  -0.002
   31       -0.000  -0.002   0.000  -0.002
   32       -0.000   0.002   0.000   0.001
   33        0.000   0.003   0.000   0.004
   34       -0.000  -0.002   0.000  -0.003
   35       -0.000  -0.003   0.000  -0.003
   36        0.000   0.002   0.000   0.003
   37        0.000   0.002   0.000   0.003
   38       -0.000  -0.002   0.000  -0.002
   39       -0.000  -0.002   0.000  -0.002
   40        0.000   0.002   0.000   0.002
   41        0.000   0.002   0.000   0.003
   42       -0.000  -0.003   0.000  -0.003
   43        0.001  -0.000   0.000   0.001
   44        0.000   0.003   0.000   0.003
   45        0.000   0.003   0.000   0.003
   46       -0.000  -0.003   0.000  -0.003
   47        0.001  -0.002   0.000  -0.002
   48        0.001   0.007   0.000   0.008
   49        0.000   0.004   0.000   0.005
   50       -0.000  -0.002   0.000  -0.002
   51       -0.000  -0.004   0.000  -0.004
   52        0.001   0.006   0.000   0.007
   53        0.000   0.002   0.000   0.002
   54       -0.005  -0.014   0.000  -0.019
   55        0.001   0.012   0.000   0.012
   56       -0.002  -0.001   0.000  -0.003
   57       -0.003  -0.044   0.000  -0.048
   58        0.005   0.020   0.000   0.025
   59        0.001  -0.016   0.885   0.870
   60        0.013   0.047   2.901   2.961
--------------------------------------------------
tot          0.013   0.017   3.787   3.817
 

 total amount of memory used by VASP MPI-rank0   156477. kBytes
=======================================================================

   base      :      30000. kBytes
   nonl-proj :       4340. kBytes
   fftplans  :      11188. kBytes
   grid      :      29312. kBytes
   one-center:         62. kBytes
   HF        :         23. kBytes
   nonlr-proj:      17625. kBytes
   wavefun   :      63927. kBytes
 
  
  
 General timing and accounting informations for this job:
 ========================================================
  
                  Total CPU time used (sec):    32358.094
                            User time (sec):    32252.681
                          System time (sec):      105.414
                         Elapsed time (sec):    32466.454
  
                   Maximum memory used (kb):      397564.
                   Average memory used (kb):           0.
  
                          Minor page faults:      2323964
                          Major page faults:            0
                 Voluntary context switches:       425745
