 vasp.5.4.4.18Apr17-6-g9f103f2a35 (build Feb 25 2019 10:51:38) complex          
  
 executed on             LinuxIFC date 2022.01.30  03:06:06
 running on   32 total cores
 distrk:  each k-point on   32 cores,    1 groups
 distr:  one band on NCORES_PER_BAND=  32 cores,    1 groups


--------------------------------------------------------------------------------------------------------


 INCAR:
 POTCAR:    PAW_PBE C 08Apr2002                   
 POTCAR:    PAW_PBE N 08Apr2002                   
 POTCAR:    PAW_PBE Zn 06Sep2000                  
 POTCAR:    PAW_PBE Fe 06Sep2000                  

 ----------------------------------------------------------------------------- 
|                                                                             |
|           W    W    AA    RRRRR   N    N  II  N    N   GGGG   !!!           |
|           W    W   A  A   R    R  NN   N  II  NN   N  G    G  !!!           |
|           W    W  A    A  R    R  N N  N  II  N N  N  G       !!!           |
|           W WW W  AAAAAA  RRRRR   N  N N  II  N  N N  G  GGG   !            |
|           WW  WW  A    A  R   R   N   NN  II  N   NN  G    G                |
|           W    W  A    A  R    R  N    N  II  N    N   GGGG   !!!           |
|                                                                             |
|      For optimal performance we recommend to set                            |
|        NCORE= 4 - approx SQRT( number of cores)                             |
|      NCORE specifies how many cores store one orbital (NPAR=cpu/NCORE).     |
|      This setting can  greatly improve the performance of VASP for DFT.     |
|      The default,   NCORE=1            might be grossly inefficient         |
|      on modern multi-core architectures or massively parallel machines.     |
|      Do your own testing !!!!                                               |
|      Unfortunately you need to use the default for GW and RPA calculations. |
|      (for HF NCORE is supported but not extensively tested yet)             |
|                                                                             |
 ----------------------------------------------------------------------------- 

 POTCAR:    PAW_PBE C 08Apr2002                   
   VRHFIN =C: s2p2                                                              
   LEXCH  = PE                                                                  
   EATOM  =   147.1560 eV,   10.8157 Ry                                         
                                                                                
   TITEL  = PAW_PBE C 08Apr2002                                                 
   LULTRA =        F    use ultrasoft PP ?                                      
   IUNSCR =        1    unscreen: 0-lin 1-nonlin 2-no                           
   RPACOR =    1.200    partial core radius                                     
   POMASS =   12.011; ZVAL   =    4.000    mass and valenz                      
   RCORE  =    1.500    outmost cutoff radius                                   
   RWIGS  =    1.630; RWIGS  =    0.863    wigner-seitz radius (au A)           
   ENMAX  =  400.000; ENMIN  =  300.000 eV                                      
   ICORE  =        2    local potential                                         
   LCOR   =        T    correct aug charges                                     
   LPAW   =        T    paw PP                                                  
   EAUG   =  644.873                                                            
   DEXC   =    0.000                                                            
   RMAX   =    1.529    core radius for proj-oper                               
   RAUG   =    1.300    factor for augmentation sphere                          
   RDEP   =    1.501    radius for radial grids                                 
   RDEPT  =    1.300    core radius for aug-charge                              
                                                                                
   Atomic configuration                                                         
    4 entries                                                                   
     n  l   j            E        occ.                                          
     1  0  0.50      -273.3789   2.0000                                         
     2  0  0.50       -13.7508   2.0000                                         
     2  1  0.50        -5.2854   2.0000                                         
     3  2  1.50        -5.4423   0.0000                                         
   Description                                                                  
     l       E           TYP  RCUT    TYP  RCUT                                 
     0    -13.7508458     23  1.200                                             
     0     -8.2022199     23  1.200                                             
     1     -5.2854383     23  1.500                                             
     1     34.0145650     23  1.500                                             
     2     -5.4423304      7  1.500                                             
  local pseudopotential read in
  partial core-charges read in
  partial kinetic energy density read in
  atomic valenz-charges read in
  non local Contribution for L=           0  read in
    real space projection operators read in
  non local Contribution for L=           0  read in
    real space projection operators read in
  non local Contribution for L=           1  read in
    real space projection operators read in
  non local Contribution for L=           1  read in
    real space projection operators read in
    PAW grid and wavefunctions read in
 
   number of l-projection  operators is LMAX  =           4
   number of lm-projection operators is LMMAX =           8
 
 POTCAR:    PAW_PBE N 08Apr2002                   
   VRHFIN =N: s2p3                                                              
   LEXCH  = PE                                                                  
   EATOM  =   264.5486 eV,   19.4438 Ry                                         
                                                                                
   TITEL  = PAW_PBE N 08Apr2002                                                 
   LULTRA =        F    use ultrasoft PP ?                                      
   IUNSCR =        1    unscreen: 0-lin 1-nonlin 2-no                           
   RPACOR =    1.200    partial core radius                                     
   POMASS =   14.001; ZVAL   =    5.000    mass and valenz                      
   RCORE  =    1.500    outmost cutoff radius                                   
   RWIGS  =    1.400; RWIGS  =    0.741    wigner-seitz radius (au A)           
   ENMAX  =  400.000; ENMIN  =  300.000 eV                                      
   ICORE  =        2    local potential                                         
   LCOR   =        T    correct aug charges                                     
   LPAW   =        T    paw PP                                                  
   EAUG   =  627.112                                                            
   DEXC   =    0.000                                                            
   RMAX   =    1.529    core radius for proj-oper                               
   RAUG   =    1.300    factor for augmentation sphere                          
   RDEP   =    1.514    radius for radial grids                                 
   RDEPT  =    1.338    core radius for aug-charge                              
                                                                                
   Atomic configuration                                                         
    4 entries                                                                   
     n  l   j            E        occ.                                          
     1  0  0.50      -384.7179   2.0000                                         
     2  0  0.50       -18.5828   2.0000                                         
     2  1  0.50        -7.0898   3.0000                                         
     3  2  1.50        -6.8029   0.0000                                         
   Description                                                                  
     l       E           TYP  RCUT    TYP  RCUT                                 
     0    -18.5828119     23  1.200                                             
     0    -13.5018863     23  1.200                                             
     1     -7.0897853     23  1.500                                             
     1      9.5240782     23  1.500                                             
     2     -6.8029130      7  1.500                                             
  local pseudopotential read in
  partial core-charges read in
  partial kinetic energy density read in
  atomic valenz-charges read in
  non local Contribution for L=           0  read in
    real space projection operators read in
  non local Contribution for L=           0  read in
    real space projection operators read in
  non local Contribution for L=           1  read in
    real space projection operators read in
  non local Contribution for L=           1  read in
    real space projection operators read in
    PAW grid and wavefunctions read in
 
   number of l-projection  operators is LMAX  =           4
   number of lm-projection operators is LMMAX =           8
 
 POTCAR:    PAW_PBE Zn 06Sep2000                  
   VRHFIN =Zn: d10 p2                                                           
   LEXCH  = PE                                                                  
   EATOM  =  1748.8345 eV,  128.5357 Ry                                         
                                                                                
   TITEL  = PAW_PBE Zn 06Sep2000                                                
   LULTRA =        F    use ultrasoft PP ?                                      
   IUNSCR =        1    unscreen: 0-lin 1-nonlin 2-no                           
   RPACOR =    2.000    partial core radius                                     
   POMASS =   65.390; ZVAL   =   12.000    mass and valenz                      
   RCORE  =    2.300    outmost cutoff radius                                   
   RWIGS  =    2.400; RWIGS  =    1.270    wigner-seitz radius (au A)           
   ENMAX  =  276.723; ENMIN  =  207.542 eV                                      
   RCLOC  =    1.828    cutoff for local pot                                    
   LCOR   =        T    correct aug charges                                     
   LPAW   =        T    paw PP                                                  
   EAUG   =  575.892                                                            
   DEXC   =    0.000                                                            
   RMAX   =    2.347    core radius for proj-oper                               
   RAUG   =    1.300    factor for augmentation sphere                          
   RDEP   =    2.324    radius for radial grids                                 
   RDEPT  =    1.788    core radius for aug-charge                              
                                                                                
   Atomic configuration                                                         
    9 entries                                                                   
     n  l   j            E        occ.                                          
     1  0  0.50     -9524.6913   2.0000                                         
     2  0  0.50     -1158.1882   2.0000                                         
     2  1  1.50     -1003.8506   6.0000                                         
     3  0  0.50      -129.2194   2.0000                                         
     3  1  1.50       -83.3890   6.0000                                         
     3  2  2.50       -10.1410  10.0000                                         
     4  0  0.50        -5.9785   2.0000                                         
     4  1  0.50        -4.0817   0.0000                                         
     4  3  2.50        -1.3606   0.0000                                         
   Description                                                                  
     l       E           TYP  RCUT    TYP  RCUT                                 
     2    -10.1410010     23  2.300                                             
     2    -11.5015836     23  2.300                                             
     0     -5.9785163     23  2.300                                             
     0      1.1858015     23  2.300                                             
     1     -2.7211652     23  2.300                                             
     1     13.2444212     23  2.300                                             
  local pseudopotential read in
  partial core-charges read in
  partial kinetic energy density read in
  atomic valenz-charges read in
  non local Contribution for L=           2  read in
    real space projection operators read in
  non local Contribution for L=           2  read in
    real space projection operators read in
  non local Contribution for L=           0  read in
    real space projection operators read in
  non local Contribution for L=           0  read in
    real space projection operators read in
  non local Contribution for L=           1  read in
    real space projection operators read in
  non local Contribution for L=           1  read in
    real space projection operators read in
    PAW grid and wavefunctions read in
 
   number of l-projection  operators is LMAX  =           6
   number of lm-projection operators is LMMAX =          18
 
 POTCAR:    PAW_PBE Fe 06Sep2000                  
   VRHFIN =Fe:  d7 s1                                                           
   LEXCH  = PE                                                                  
   EATOM  =   594.3153 eV,   43.6809 Ry                                         
                                                                                
   TITEL  = PAW_PBE Fe 06Sep2000                                                
   LULTRA =        F    use ultrasoft PP ?                                      
   IUNSCR =        1    unscreen: 0-lin 1-nonlin 2-no                           
   RPACOR =    2.000    partial core radius                                     
   POMASS =   55.847; ZVAL   =    8.000    mass and valenz                      
   RCORE  =    2.300    outmost cutoff radius                                   
   RWIGS  =    2.460; RWIGS  =    1.302    wigner-seitz radius (au A)           
   ENMAX  =  267.882; ENMIN  =  200.911 eV                                      
   RCLOC  =    1.701    cutoff for local pot                                    
   LCOR   =        T    correct aug charges                                     
   LPAW   =        T    paw PP                                                  
   EAUG   =  511.368                                                            
   DEXC   =    0.000                                                            
   RMAX   =    2.356    core radius for proj-oper                               
   RAUG   =    1.300    factor for augmentation sphere                          
   RDEP   =    2.442    radius for radial grids                                 
   RDEPT  =    1.890    core radius for aug-charge                              
                                                                                
   Atomic configuration                                                         
    9 entries                                                                   
     n  l   j            E        occ.                                          
     1  0  0.50     -6993.8440   2.0000                                         
     2  0  0.50      -814.6047   2.0000                                         
     2  1  1.50      -693.3689   6.0000                                         
     3  0  0.50       -89.4732   2.0000                                         
     3  1  1.50       -55.6373   6.0000                                         
     3  2  2.50        -3.8151   7.0000                                         
     4  0  0.50        -4.2551   1.0000                                         
     4  1  1.50        -3.4015   0.0000                                         
     4  3  2.50        -1.3606   0.0000                                         
   Description                                                                  
     l       E           TYP  RCUT    TYP  RCUT                                 
     2     -3.8151135     23  2.300                                             
     2     -5.1756961     23  2.300                                             
     0     -4.2550963     23  2.300                                             
     0      7.2035603     23  2.300                                             
     1     -2.7211652     23  2.300                                             
     1     18.4316424     23  2.300                                             
  local pseudopotential read in
  partial core-charges read in
  partial kinetic energy density read in
  atomic valenz-charges read in
  non local Contribution for L=           2  read in
    real space projection operators read in
  non local Contribution for L=           2  read in
    real space projection operators read in
  non local Contribution for L=           0  read in
    real space projection operators read in
  non local Contribution for L=           0  read in
    real space projection operators read in
  non local Contribution for L=           1  read in
    real space projection operators read in
  non local Contribution for L=           1  read in
    real space projection operators read in
    PAW grid and wavefunctions read in
 
   number of l-projection  operators is LMAX  =           6
   number of lm-projection operators is LMMAX =          18
 

 ----------------------------------------------------------------------------- 
|                                                                             |
|  ADVICE TO THIS USER RUNNING 'VASP/VAMP'   (HEAR YOUR MASTER'S VOICE ...):  |
|                                                                             |
|      You have a (more or less) 'large supercell' and for larger cells       |
|      it might be more efficient to use real space projection opertators     |
|      So try LREAL= Auto  in the INCAR   file.                               |
|      Mind:          For very  accurate calculation you might also keep the  |
|      reciprocal projection scheme          (i.e. LREAL=.FALSE.)             |
|                                                                             |
 ----------------------------------------------------------------------------- 

  PAW_PBE C 08Apr2002                   :
 energy of atom  1       EATOM= -147.1560
 kinetic energy error for atom=    0.0076 (will be added to EATOM!!)
  PAW_PBE N 08Apr2002                   :
 energy of atom  2       EATOM= -264.5486
 kinetic energy error for atom=    0.0138 (will be added to EATOM!!)
  PAW_PBE Zn 06Sep2000                  :
 energy of atom  3       EATOM=-1748.8345
 kinetic energy error for atom=    0.0029 (will be added to EATOM!!)
  PAW_PBE Fe 06Sep2000                  :
 energy of atom  4       EATOM= -594.3153
 kinetic energy error for atom=    0.0026 (will be added to EATOM!!)
 
 
 POSCAR:  C  N Zn Fe                             
  positions in cartesian coordinates
  No initial velocities read in
 exchange correlation table for  LEXCH =        8
   RHO(1)=    0.500       N(1)  =     2000
   RHO(2)=  100.500       N(2)  =     4000

 VTST: version 3.2, (02/03/18)

 CHAIN: initializing optimizer
 
 OPT: Using VASP Conjugate-Gradient optimizer
 CHAIN: Read ICHAIN            0
 
 POSCAR:  C  N Zn Fe                             
  positions in cartesian coordinates
  No initial velocities read in
 


--------------------------------------------------------------------------------------------------------


 ion  position               nearest neighbor table
   1  0.225  1.000  0.500-   4 1.44  18 1.45   3 1.47
   2  0.056  0.099  0.500-   7 1.43   3 1.43  33 1.45
   3  0.113  1.000  0.500-  16 1.43   2 1.43   1 1.47
   4  0.280  0.101  0.500-   1 1.44   5 1.46  20 1.47
   5  0.220  0.201  0.500-  50 1.40   7 1.46   4 1.46
   6  0.051  0.298  0.500-  10 1.41  37 1.43   7 1.44
   7  0.109  0.199  0.500-   2 1.43   6 1.44   5 1.46
   8  0.209  0.399  0.500-  50 1.39  10 1.41  11 1.44
   9  0.048  0.500  0.500-  41 1.41  10 1.43  14 1.43
  10  0.101  0.400  0.500-   8 1.41   6 1.41   9 1.43
  11  0.262  0.501  0.499-  56 1.31  12 1.43   8 1.44
  12  0.209  0.602  0.500-  14 1.40  51 1.41  11 1.43
  13  0.051  0.702  0.500-  14 1.41  45 1.43  17 1.44
  14  0.102  0.601  0.500-  12 1.40  13 1.41   9 1.43
  15  0.221  0.798  0.500-  51 1.43  17 1.45  18 1.46
  16  0.056  0.901  0.500-  17 1.43   3 1.43  49 1.45
  17  0.110  0.800  0.500-  16 1.43  13 1.44  15 1.45
  18  0.280  0.898  0.500-   1 1.45  15 1.46  28 1.47
  19  0.557  0.000  0.500-  22 1.43  29 1.44  21 1.45
  20  0.392  0.102  0.500-  52 1.43  21 1.46   4 1.47
  21  0.447  1.000  0.500-  19 1.45  28 1.45  20 1.46
  22  0.615  0.099  0.500-  23 1.43  19 1.43  31 1.44
  23  0.560  0.199  0.500-  52 1.41  22 1.43  24 1.48
  24  0.617  0.302  0.500-  55 1.36  35 1.43  23 1.48
  25  0.614  0.498  0.500-  55 1.40  53 1.44  39 1.44
  26  0.616  0.698  0.500-  53 1.42  43 1.43  27 1.47
  27  0.560  0.801  0.500-  29 1.42  54 1.43  26 1.47
  28  0.392  0.897  0.500-  54 1.44  21 1.45  18 1.47
  29  0.614  0.901  0.500-  27 1.42  19 1.44  47 1.44
  30  0.890  1.000  0.500-  33 1.42  49 1.43  32 1.45
  31  0.724  0.099  0.500-  32 1.43  36 1.43  22 1.44
  32  0.780  1.000  0.500-  47 1.43  31 1.43  30 1.45
  33  0.945  0.099  0.500-  30 1.42  34 1.44   2 1.45
  34  0.889  0.198  0.500-  37 1.42  36 1.43  33 1.44
  35  0.726  0.299  0.500-  40 1.42  24 1.43  36 1.43
  36  0.779  0.199  0.500-  31 1.43  35 1.43  34 1.43
  37  0.942  0.299  0.500-  34 1.42  38 1.43   6 1.43
  38  0.888  0.399  0.500-  40 1.43  41 1.43  37 1.43
  39  0.724  0.499  0.500-  40 1.43  44 1.43  25 1.44
  40  0.779  0.400  0.500-  35 1.42  38 1.43  39 1.43
  41  0.941  0.500  0.500-   9 1.41  38 1.43  42 1.43
  42  0.887  0.601  0.500-  44 1.43  41 1.43  45 1.43
  43  0.725  0.700  0.500-  44 1.42  26 1.43  48 1.43
  44  0.778  0.600  0.500-  43 1.42  42 1.43  39 1.43
  45  0.942  0.701  0.500-  46 1.42  13 1.43  42 1.43
  46  0.889  0.801  0.500-  45 1.42  48 1.43  49 1.44
  47  0.724  0.901  0.500-  32 1.43  48 1.43  29 1.44
  48  0.779  0.801  0.500-  46 1.43  47 1.43  43 1.43
  49  0.946  0.901  0.500-  30 1.43  46 1.44  16 1.45
  50  0.265  0.304  0.500-   8 1.39   5 1.40  57 2.05
  51  0.271  0.695  0.499-  12 1.41  15 1.43  58 1.99
  52  0.452  0.198  0.499-  23 1.41  20 1.43  57 2.01
  53  0.560  0.600  0.500-  26 1.42  25 1.44  58 1.98
  54  0.451  0.799  0.500-  27 1.43  28 1.44  58 1.95
  55  0.565  0.398  0.500-  24 1.36  25 1.40  57 2.06
  56  0.362  0.505  0.498-  11 1.31  58 1.88  57 1.96
  57  0.414  0.356  0.499-  56 1.96  52 2.01  50 2.05  55 2.06
  58  0.415  0.646  0.499-  56 1.88  54 1.95  53 1.98  51 1.99
 
  LATTYP: Found a triclinic cell.
 ALAT       =    18.0163915147
 B/A-ratio  =     0.6857314931
 C/A-ratio  =     1.0882302631
 COS(alpha) =     0.0000188652
 COS(beta)  =     0.0001684257
 COS(gamma) =     0.6855931037
  
  Lattice vectors:
  
 A1 = (  13.1119453222,  12.3558590471,  -0.0005341986)
 A2 = (  -0.0037168176,  12.3544064787,  -0.0006085118)
 A3 = (   0.0040763779,   0.0013367820,  19.6059820088)


Analysis of symmetry for initial positions (statically):
=====================================================================
 Subroutine PRICEL returns:
 Original cell was already a primitive cell.
 

 Routine SETGRP: Setting up the symmetry group for a 
 triclinic supercell.


 Subroutine GETGRP returns: Found  1 space group operations
 (whereof  1 operations were pure point group operations)
 out of a pool of  2 trial point group operations.


The static configuration has the point symmetry C_1 .


Analysis of symmetry for dynamics (positions and initial velocities):
=====================================================================
 Subroutine PRICEL returns:
 Original cell was already a primitive cell.
 

 Routine SETGRP: Setting up the symmetry group for a 
 triclinic supercell.


 Subroutine GETGRP returns: Found  1 space group operations
 (whereof  1 operations were pure point group operations)
 out of a pool of  2 trial point group operations.


The dynamic configuration has the point symmetry C_1 .


Analysis of structural, dynamic, and magnetic symmetry:
=====================================================================
 Subroutine PRICEL returns:
 Original cell was already a primitive cell.
 

 Routine SETGRP: Setting up the symmetry group for a 
 triclinic supercell.


 Subroutine GETGRP returns: Found  1 space group operations
 (whereof  1 operations were pure point group operations)
 out of a pool of  2 trial point group operations.


The magnetic configuration has the point symmetry C_1 .


 Subroutine INISYM returns: Found  1 space group operations
 (whereof  1 operations are pure point group operations),
 and found     1 'primitive' translations

 
 
 KPOINTS: KPOINTS created by Atomic Simulation Env

Automatic generation of k-mesh.
Space group operators:
 irot       det(A)        alpha          n_x          n_y          n_z        tau_x        tau_y        tau_z
    1     1.000000     0.000001     1.000000     0.000000     0.000000     0.000000     0.000000     0.000000
 
 Subroutine IBZKPT returns following result:
 ===========================================
 
 Found      1 irreducible k-points:
 
 Following reciprocal coordinates:
            Coordinates               Weight
  0.000000  0.000000  0.000000      1.000000
 
 Following cartesian coordinates:
            Coordinates               Weight
  0.000000  0.000000  0.000000      1.000000
 
 
 Subroutine IBZKPT_HF returns following result:
 ==============================================
 
 Found      1 k-points in 1st BZ
 the following      1 k-points will be used (e.g. in the exchange kernel)
 Following reciprocal coordinates:   # in IRBZ
  0.000000  0.000000  0.000000    1.00000000   1 t-inv F


--------------------------------------------------------------------------------------------------------




 Dimension of arrays:
   k-points           NKPTS =      1   k-points in BZ     NKDIM =      1   number of bands    NBANDS=    157
   number of dos      NEDOS =    301   number of ions     NIONS =     58
   non local maximal  LDIM  =      6   non local SUM 2l+1 LMDIM =     18
   total plane-waves  NPLWV = ******
   max r-space proj   IRMAX =      1   max aug-charges    IRDMAX=  14149
   dimension x,y,z NGX =    96 NGY =   90 NGZ =  144
   dimension x,y,z NGXF=   192 NGYF=  180 NGZF=  288
   support grid    NGXF=   192 NGYF=  180 NGZF=  288
   ions per type =              54   2   1   1
   NGX,Y,Z   is equivalent  to a cutoff of  12.17, 12.11, 12.21 a.u.
   NGXF,Y,Z  is equivalent  to a cutoff of  24.34, 24.22, 24.42 a.u.

 SYSTEM =  unknown system                          
 POSCAR =   C  N Zn Fe                             

 Startparameter for this run:
   NWRITE =      2    write-flag & timer
   PREC   = accura    normal or accurate (medium, high low for compatibility)
   ISTART =      1    job   : 0-new  1-cont  2-samecut
   ICHARG =      0    charge: 1-file 2-atom 10-const
   ISPIN  =      2    spin polarized calculation?
   LNONCOLLINEAR =      F non collinear calculations
   LSORBIT =      F    spin-orbit coupling
   INIWAV =      1    electr: 0-lowe 1-rand  2-diag
   LASPH  =      T    aspherical Exc in radial PAW
   METAGGA=      F    non-selfconsistent MetaGGA calc.

 Electronic Relaxation 1
   ENCUT  =  500.0 eV  36.75 Ry    6.06 a.u.  23.91 22.52 35.75*2*pi/ulx,y,z
   ENINI  =  500.0     initial cutoff
   ENAUG  =  644.9 eV  augmentation charge cutoff
   NELM   =    250;   NELMIN=  2; NELMDL=  0     # of ELM steps 
   EDIFF  = 0.1E-03   stopping-criterion for ELM
   LREAL  =      F    real-space projection
   NLSPLINE    = F    spline interpolate recip. space projectors
   LCOMPAT=      F    compatible to vasp.4.4
   GGA_COMPAT  = T    GGA compatible to vasp.4.4-vasp.4.6
   LMAXPAW     = -100 max onsite density
   LMAXMIX     =    2 max onsite mixed and CHGCAR
   VOSKOWN=      0    Vosko Wilk Nusair interpolation
   ROPT   =    0.00000   0.00000   0.00000   0.00000
 Ionic relaxation
   EDIFFG = -.3E-01   stopping-criterion for IOM
   NSW    =      0    number of steps for IOM
   NBLOCK =      1;   KBLOCK =      1    inner block; outer block 
   IBRION =     -1    ionic relax: 0-MD 1-quasi-New 2-CG
   NFREE  =      1    steps in history (QN), initial steepest desc. (CG)
   ISIF   =      2    stress and relaxation
   IWAVPR =     10    prediction:  0-non 1-charg 2-wave 3-comb
   ISYM   =      3    0-nonsym 1-usesym 2-fastsym
   LCORR  =      T    Harris-Foulkes like correction to forces

   POTIM  = 0.5000    time-step for ionic-motion
   TEIN   =    0.0    initial temperature
   TEBEG  =    0.0;   TEEND  =   0.0 temperature during run
   SMASS  =  -3.00    Nose mass-parameter (am)
   estimated Nose-frequenzy (Omega)   =  0.10E-29 period in steps =****** mass=  -0.393E-26a.u.
   SCALEE = 1.0000    scale energy and forces
   NPACO  =    256;   APACO  = 16.0  distance and # of slots for P.C.
   PSTRESS=    0.0 pullay stress

  Mass of Ions in am
   POMASS =  12.01 14.00 65.39 55.85
  Ionic Valenz
   ZVAL   =   4.00  5.00 12.00  8.00
  Atomic Wigner-Seitz radii
   RWIGS  =  -1.00 -1.00 -1.00 -1.00
  virtual crystal weights 
   VCA    =   1.00  1.00  1.00  1.00
   NELECT =     246.0000    total number of electrons
   NUPDOWN=      -1.0000    fix difference up-down

 DOS related values:
   EMIN   =  10.00;   EMAX   =-10.00  energy-range for DOS
   EFERMI =   0.00
   ISMEAR =     0;   SIGMA  =   0.10  broadening in eV -4-tet -1-fermi 0-gaus

 Electronic relaxation 2 (details)
   IALGO  =     53    algorithm
   LDIAG  =      T    sub-space diagonalisation (order eigenvalues)
   LSUBROT=      F    optimize rotation matrix (better conditioning)
   TURBO    =      0    0=normal 1=particle mesh
   IRESTART =      0    0=no restart 2=restart with 2 vectors
   NREBOOT  =      0    no. of reboots
   NMIN     =      0    reboot dimension
   EREF     =   0.00    reference energy to select bands
   IMIX   =      4    mixing-type and parameters
     AMIX     =   0.40;   BMIX     =  1.00
     AMIX_MAG =   1.60;   BMIX_MAG =  1.00
     AMIN     =   0.10
     WC   =   100.;   INIMIX=   1;  MIXPRE=   1;  MAXMIX= -45

 Intra band minimization:
   WEIMIN = 0.0000     energy-eigenvalue tresh-hold
   EBREAK =  0.16E-06  absolut break condition
   DEPER  =   0.30     relativ break condition  

   TIME   =   0.20     timestep for ELM

  volume/ion in A,a.u.               =      54.77       369.63
  Fermi-wavevector in a.u.,A,eV,Ry     =   0.697782  1.318616  6.624669  0.486899
  Thomas-Fermi vector in A             =   1.781204
 
 Write flags
   LWAVE        =      T    write WAVECAR
   LDOWNSAMPLE  =      F    k-point downsampling of WAVECAR
   LCHARG       =      T    write CHGCAR
   LVTOT        =      F    write LOCPOT, total local potential
   LVHAR        =      F    write LOCPOT, Hartree potential only
   LELF         =      F    write electronic localiz. function (ELF)
   LORBIT       =     11    0 simple, 1 ext, 2 COOP (PROOUT), +10 PAW based schemes


 Dipole corrections
   LMONO  =      F    monopole corrections only (constant potential shift)
   LDIPOL =      T    correct potential (dipole corrections)
   IDIPOL =      3    1-x, 2-y, 3-z, 4-all directions 
   EPSILON=  1.0000000 bulk dielectric constant

 Exchange correlation treatment:
   GGA     =    PE    GGA type
   LEXCH   =     8    internal setting for exchange type
   VOSKOWN=      0    Vosko Wilk Nusair interpolation
   EXXOEP  =     0    0=HF, 1=EXX-LHF (local Hartree Fock) 2=EXX OEP
   LHFCALC =     T    Hartree Fock is set to
   LSYMGRAD=     F    symmetrize gradient (conserves proper symmetry)
   PRECFOCK=normal    Normal, Fast or Accurate (Low or Medium for compatibility)
   LRHFCALC=     F    long range Hartree Fock
   LRSCOR  =     F    long range correlation only (use DFT for short range part)
   LTHOMAS =     F    Thomas Fermi screening in HF
   LMODELHF=     F    short range full HF, long range fraction AEXX
   ENCUT4O =  -1.0   cutoff for four orbital integrals eV
   LMAXFOCK=     4    L truncation for augmentation on plane wave grid
   LMAXFOCKAE=  -1    L truncation for all-electron charge restoration on plane wave grid
   NMAXFOCKAE=   1    number of basis functions for all-electron charge restoration
   LFOCKAEDFT=     F  apply the AE augmentation even for DFT
   NKREDX  =     1    reduce k-point grid by
   NKREDY  =     1    reduce k-point grid by
   NKREDZ  =     1    reduce k-point grid by
   SHIFTRED=     F    shift reduced grid of Gamma
   HFKIDENT=     F    idential grid for each k-point
   ODDONLY =     F    use only odd q-grid points
   EVENONLY=     F    use only even q-grid points
   HFALPHA =   -1.0000 decay constant for conv. correction
   MCALPHA =    0.0000 extent of test-charge in conv. correction in multipole expansion
   AEXX    =    0.2500 exact exchange contribution
   HFSCREEN=    0.2000 screening length (either q_TF or 0.3 A-1)
   HFSCREENC=   0.2000 screening length for correlation (either q_TF or 0.3 A-1)
   HFRCUT  =    0.0000 spherical cutoff for potential kernel
   ALDAX   =    0.7500 LDA exchange part
   AGGAX   =    0.7500 GGA exchange part
   ALDAC   =    1.0000 LDA correlation
   AGGAC   =    1.0000 GGA correlation
   ENCUTFOCK=  -1.0 apply spherical cutoff to Coloumb kernel
   NBANDSGWLOW=     1    first orbital included in HF term
   NBLOCK_FOCK=    64    blocking factor in FOCK_ACC
 Linear response parameters
   LEPSILON=     F    determine dielectric tensor
   LRPA    =     F    only Hartree local field effects (RPA)
   LNABLA  =     F    use nabla operator in PAW spheres
   LVEL    =     F    velocity operator in full k-point grid
   LINTERFAST=   F  fast interpolation
   KINTER  =     0    interpolate to denser k-point grid
   CSHIFT  =0.1000    complex shift for real part using Kramers Kronig
   OMEGAMAX=  -1.0    maximum frequency
   DEG_THRESHOLD= 0.2000000E-02 threshold for treating states as degnerate
   RTIME   =   -0.100 relaxation time in fs
  (WPLASMAI=    0.000 imaginary part of plasma frequency in eV, 0.658/RTIME)
   DFIELD  = 0.0000000 0.0000000 0.0000000 field for delta impulse in time
 
 Orbital magnetization related:
   ORBITALMAG=     F  switch on orbital magnetization
   LCHIMAG   =     F  perturbation theory with respect to B field
   DQ        =  0.001000  dq finite difference perturbation B field
   LLRAUG    =     F  two centre corrections for induced B field



--------------------------------------------------------------------------------------------------------


 Static calculation
 charge density and potential will be updated during run
 spin polarized calculation
 Conjugate gradient for all bands (Freysoldt, et al. PRB 79, 241103 (2009))
 perform sub-space diagonalisation
    before iterative eigenvector-optimisation
 modified Broyden-mixing scheme, WC =      100.0
 initial mixing is a Kerker type mixing with AMIX =  0.4000 and BMIX =      1.0000
 Hartree-type preconditioning will be used
 using additional bands           34
 reciprocal scheme for non local part
 use partial core corrections
 no Harris-corrections to forces 
 use gradient corrections 
 use of overlap-Matrix (Vanderbilt PP)
 Gauss-broadening in eV      SIGMA  =   0.10


--------------------------------------------------------------------------------------------------------


  energy-cutoff  :      500.00
  volume of cell :     3176.88
      direct lattice vectors                 reciprocal lattice vectors
    13.115662140  0.001452568  0.000074313     0.076244719  0.000022937 -0.000015854
    -0.003716818 12.354406479 -0.000608512    -0.000008964  0.080942777 -0.000005517
     0.004076378  0.001336782 19.605982009    -0.000000289  0.000002512  0.051004841

  length of vectors
    13.115662220 12.354407053 19.605982478     0.076244724  0.080942777  0.051004841


 
 old parameters found on file WAVECAR:
  energy-cutoff  :      500.00
  volume of cell :     3176.88
      direct lattice vectors                 reciprocal lattice vectors
    13.064000000  0.000000000  0.000000000     0.076546234  0.000031262 -0.000015367
    -0.005034148 12.326298972  0.000000000     0.000000000  0.081127352 -0.000009493
     0.003959744  0.002308598 19.728399468     0.000000000  0.000000000  0.050688349

  length of vectors

 
 k-points in units of 2pi/SCALE and weight: KPOINTS created by Atomic Simulation Env
   0.00000000  0.00000000  0.00000000       1.000
 
 k-points in reciprocal lattice and weights: KPOINTS created by Atomic Simulation Env
   0.00000000  0.00000000  0.00000000       1.000
 
 position of ions in fractional coordinates (direct lattice) 
   0.22502142  0.99975853  0.49980150
   0.05567828  0.09880938  0.49995970
   0.11265156  0.99972988  0.49992101
   0.27970545  0.10110053  0.49965700
   0.22035888  0.20088117  0.49966848
   0.05121406  0.29817574  0.50003292
   0.10936450  0.19935096  0.49988135
   0.20894697  0.39922808  0.49963919
   0.04786320  0.50019403  0.50017681
   0.10129100  0.39956826  0.50000192
   0.26214413  0.50100330  0.49927626
   0.20867900  0.60177471  0.49973666
   0.05113127  0.70171957  0.50015022
   0.10162226  0.60082206  0.50011553
   0.22112217  0.79787717  0.49981151
   0.05604145  0.90055968  0.50002810
   0.11028624  0.80005199  0.50001812
   0.27980569  0.89801978  0.49978406
   0.55743406  0.00023203  0.49990944
   0.39210661  0.10225535  0.49959390
   0.44663993  0.99964424  0.49979278
   0.61456551  0.09923036  0.49990855
   0.55960824  0.19943350  0.49965167
   0.61710834  0.30231616  0.49965415
   0.61413198  0.49828302  0.49961346
   0.61621259  0.69832733  0.49981273
   0.55985554  0.80116156  0.49985932
   0.39218822  0.89719371  0.49978382
   0.61433154  0.90089047  0.49998378
   0.89017933  0.99976430  0.50009859
   0.72417495  0.09888044  0.50002395
   0.77983137  0.99978895  0.50009415
   0.94539007  0.09904449  0.50006469
   0.88857393  0.19836224  0.50008358
   0.72576069  0.29933407  0.49988084
   0.77946816  0.19861382  0.50001381
   0.94200105  0.29860090  0.50011883
   0.88779921  0.39903586  0.50013603
   0.72414812  0.49947297  0.49985763
   0.77914085  0.39960168  0.49996565
   0.94059059  0.50004339  0.50020893
   0.88719126  0.60077151  0.50016267
   0.72499464  0.70044866  0.49997452
   0.77848773  0.60014534  0.50000243
   0.94197237  0.70114319  0.50017747
   0.88854784  0.80134325  0.50013256
   0.72406466  0.90076035  0.50007159
   0.77943469  0.80092449  0.50008050
   0.94562094  0.90055496  0.50010269
   0.26519025  0.30405245  0.49951477
   0.27071045  0.69487811  0.49948737
   0.45241427  0.19822948  0.49936489
   0.55995103  0.59988713  0.49954714
   0.45103108  0.79915599  0.49973911
   0.56549329  0.39754305  0.49951399
   0.36232169  0.50492988  0.49841479
   0.41355032  0.35578302  0.49888221
   0.41529508  0.64626350  0.49900065
 
 position of ions in cartesian coordinates  (Angst):
   2.94962633 12.35241829  9.79850754
   0.73192833  1.22148047  9.80214487
   1.47582185 12.35190117  9.80084232
   3.67018316  1.25011123  9.79622544
   2.89144284  2.48275560  9.79638533
   0.67263634  3.68452708  9.80345887
   1.43568456  2.46368984  9.80055160
   2.74103078  4.93319739  9.79568955
   0.62793727  6.18033848  9.80615674
   1.32905161  4.93724428  9.80279294
   3.43836690  6.19064659  9.78851605
   2.73676374  7.43554048  9.79747735
   0.67005105  8.67007166  9.80551305
   1.33264876  7.42361611  9.80489811
   2.89923550  9.85828826  9.79882644
   0.73371181 11.12663018  9.80299819
   1.44554161  9.88499615  9.80286769
   3.66853647 11.09557587  9.79823161
   7.31315380  0.00434458  9.80125676
   5.14439427  1.26454162  9.79499603
   5.85630029 12.35132814  9.79835307
   8.06210264  1.22749318  9.80118334
   7.34092812  2.46536336  9.79608190
   8.09469761  3.73650108  9.79607215
   8.05493216  6.15755092  9.79515486
   8.08147800  8.62898290  9.79894020
   7.34193595  9.89935702  9.79978691
   5.14251077 11.08553360  9.79823574
   8.05605460 11.13152780  9.80217043
  11.67361401 12.35345610  9.80438175
   9.49970469  1.22332944  9.80345425
  10.22632736 12.35360042  9.80428647
  12.40108703  1.22567759  9.80426939
  11.65553676  2.45260690  9.80457504
   9.51975717  3.69981727  9.80052651
  10.22454108  2.45555653  9.80319884
  12.35589632  3.69107380  9.80520906
  11.64463010  4.93180933  9.80548109
   9.49786321  6.17241213  9.79994965
  10.21950097  4.93864166  9.80213225
  12.33664886  6.17977423  9.80685299
  11.63590675  7.42413269  9.80588068
   9.50821934  8.65534892  9.80211916
  10.21018960  7.41623867  9.80273140
  12.35402427  8.66424490  9.80611387
  11.65295351  9.90207952  9.80516832
   9.49527798 11.13007971  9.80390021
  10.22186371  9.89674739  9.80413990
  12.40113615 11.12786409  9.80452670
   3.47905189  3.75744052  9.79331225
   3.55000014  8.58586750  9.79253759
   5.93501149  2.45033228  9.79045199
   7.34393526  7.41273063  9.79378886
   5.91463810  9.87442111  9.79742326
   7.41737749  4.91289761  9.79326237
   4.75224381  6.23930153  9.77163114
   5.42469756  4.39675567  9.78088993
   5.44650201  7.98547225  9.78303533
 


--------------------------------------------------------------------------------------------------------


 k-point  1 :   0.0000 0.0000 0.0000  plane waves:   80623

 maximum and minimum number of plane-waves per node :      2524     2513

 maximum number of plane-waves:     80623
 maximum index in each direction: 
   IXMAX=   23   IYMAX=   22   IZMAX=   35
   IXMIN=  -23   IYMIN=  -22   IZMIN=  -35


 parallel 3D FFT for wavefunctions:
    minimum data exchange during FFTs selected (reduces bandwidth)
 parallel 3D FFT for charge:
    minimum data exchange during FFTs selected (reduces bandwidth)


 FFT grid for exact exchange (Hartree Fock) 
  NGX = 72; NGY = 70; NGZ =108

 
 Radii for the augmentation spheres in the non-local exchange
 for species   1 augmentation radius   0.874 (default was   0.699)
       energy cutoff for augmentation   2000.0
 for species   2 augmentation radius   0.886 (default was   0.709)
       energy cutoff for augmentation   2000.0
 for species   3 augmentation radius   1.190 (default was   0.952)
       energy cutoff for augmentation   2000.0
 for species   4 augmentation radius   1.263 (default was   1.010)
       energy cutoff for augmentation   2000.0

 real space projection operators:
  total allocation   :       2377.97 KBytes
  max/ min on nodes  :        120.61         44.79

 Maximum index for augmentation-charges in exchange          141
  SETUP_FOCK is finished

 total amount of memory used by VASP MPI-rank0   119853. kBytes
=======================================================================

   base      :      30000. kBytes
   nonl-proj :       3779. kBytes
   fftplans  :      12931. kBytes
   grid      :      33177. kBytes
   one-center:         62. kBytes
   HF        :         23. kBytes
   nonlr-proj:       1616. kBytes
   wavefun   :      38265. kBytes
 
     INWAV:  cpu time    1.7736: real time    1.7744
 Broyden mixing: mesh for mixing (old mesh)
   NGX = 47   NGY = 45   NGZ = 71
  (NGX  =192   NGY  =180   NGZ  =288)
  gives a total of 150165 points

 charge density for first step will be calculated from the start-wavefunctions


--------------------------------------------------------------------------------------------------------


 Maximum index for augmentation-charges          240 (set IRDMAX)


--------------------------------------------------------------------------------------------------------


 initial charge from wavefunction
 First call to EWALD:  gamma=   0.121
 Maximum number of real-space cells 3x 3x 2
 Maximum number of reciprocal cells 3x 2x 3

    FEWALD:  cpu time    0.0038: real time    0.0038


--------------------------------------- Iteration      1(   1)  ---------------------------------------


    POTLOK:  cpu time    1.2474: real time    1.2478
    SETDIJ:  cpu time    2.0884: real time    2.0895
    TRIAL :  cpu time   62.0050: real time   62.0264
    CORREC:  cpu time    0.0010: real time    0.0013
    CHARGE:  cpu time    0.1695: real time    0.1696
    --------------------------------------------
      LOOP:  cpu time   65.5193: real time   65.5458

 eigenvalue-minimisations  :     0
 total energy-change (2. order) :-0.5669904E+03  (-0.7975129E+01)
 number of electron     246.0000028 magnetization       2.0000006
 augmentation part       17.4587137 magnetization       1.9386558

 DIPCOR: dipole corrections for dipol
 direction  3 min pos     1,
 dipolmoment           0.000001      0.000000      0.002952 electrons x Angstroem
 Tr[quadrupol]     -6711.927422

 energy correction for charged system         0.000000 eV
 dipol+quadrupol energy correction            0.000000 eV
 added-field ion interaction          0.000000 eV  (added to PSCEN)


 Free energy of the ion-electron system (eV)
  ---------------------------------------------------
  alpha Z        PSCENC =       106.11381614
  Ewald energy   TEWEN  =     37765.38578687
  -Hartree energ DENC   =    -46996.83786827
  -exchange      EXHF   =       558.62051442
  -V(xc)+E(xc)   XCENC  =       644.87064023
  PAW double counting   =     28208.91968650   -28411.46433727
  entropy T*S    EENTRO =        -0.00005978
  eigenvalues    EBANDS =     -3153.31178247
  atomic energy  EATOM  =     10710.71333969
  ---------------------------------------------------
  free energy    TOTEN  =      -566.99035676 eV

  energy without entropy =     -566.99029698  energy(sigma->0) =     -566.99032687
  exchange ACFDT corr.  =        -0.00021660  see jH, gK, PRB 81, 115126


--------------------------------------------------------------------------------------------------------




--------------------------------------- Iteration      1(   2)  ---------------------------------------


    POTLOK:  cpu time    1.2679: real time    1.2684
    SETDIJ:  cpu time    2.0858: real time    2.0862
    TRIAL :  cpu time   62.2587: real time   62.2880
    CORREC:  cpu time    0.0010: real time    0.0012
    CHARGE:  cpu time    0.1696: real time    0.1696
    --------------------------------------------
      LOOP:  cpu time   65.7864: real time   65.8175

 eigenvalue-minimisations  :     0
 total energy-change (2. order) :-0.7160730E+01  (-0.8838178E+01)
 number of electron     246.0000027 magnetization       1.9999898
 augmentation part       17.4524961 magnetization       1.9811482

 DIPCOR: dipole corrections for dipol
 direction  3 min pos     1,
 dipolmoment           0.000000      0.000000      0.001764 electrons x Angstroem
 Tr[quadrupol]     -6711.742857

 energy correction for charged system         0.000000 eV
 dipol+quadrupol energy correction            0.000000 eV
 added-field ion interaction          0.000000 eV  (added to PSCEN)


 Free energy of the ion-electron system (eV)
  ---------------------------------------------------
  alpha Z        PSCENC =       106.11381598
  Ewald energy   TEWEN  =     37765.38578687
  -Hartree energ DENC   =    -46988.38969612
  -exchange      EXHF   =       558.53819432
  -V(xc)+E(xc)   XCENC  =       644.63262970
  PAW double counting   =     27934.57702383   -28139.60728101
  entropy T*S    EENTRO =        -0.00003020
  eigenvalues    EBANDS =     -3166.11484041
  atomic energy  EATOM  =     10710.71333969
  ---------------------------------------------------
  free energy    TOTEN  =      -574.15108691 eV

  energy without entropy =     -574.15105671  energy(sigma->0) =     -574.15107181
  exchange ACFDT corr.  =        -0.00010939  see jH, gK, PRB 81, 115126


--------------------------------------------------------------------------------------------------------




--------------------------------------- Iteration      1(   3)  ---------------------------------------


    POTLOK:  cpu time    1.2705: real time    1.2714
    SETDIJ:  cpu time    2.0876: real time    2.0880
    TRIAL :  cpu time   62.2407: real time   62.2692
    CORREC:  cpu time    0.0009: real time    0.0012
    CHARGE:  cpu time    0.1699: real time    0.1699
    --------------------------------------------
      LOOP:  cpu time   65.7720: real time   65.8020

 eigenvalue-minimisations  :     0
 total energy-change (2. order) :-0.7571225E+01  (-0.6516163E+01)
 number of electron     246.0000027 magnetization       1.9999849
 augmentation part       17.4158764 magnetization       2.0119625

 DIPCOR: dipole corrections for dipol
 direction  3 min pos     1,
 dipolmoment           0.000000      0.000000      0.001496 electrons x Angstroem
 Tr[quadrupol]     -6711.514493

 energy correction for charged system         0.000000 eV
 dipol+quadrupol energy correction            0.000000 eV
 added-field ion interaction          0.000000 eV  (added to PSCEN)


 Free energy of the ion-electron system (eV)
  ---------------------------------------------------
  alpha Z        PSCENC =       106.11381595
  Ewald energy   TEWEN  =     37765.38578687
  -Hartree energ DENC   =    -46972.40280850
  -exchange      EXHF   =       558.41131058
  -V(xc)+E(xc)   XCENC  =       644.26210431
  PAW double counting   =     27601.13655246   -27806.69433785
  entropy T*S    EENTRO =        -0.00001596
  eigenvalues    EBANDS =     -3188.64804518
  atomic energy  EATOM  =     10710.71333969
  ---------------------------------------------------
  free energy    TOTEN  =      -581.72231187 eV

  energy without entropy =     -581.72229591  energy(sigma->0) =     -581.72230389
  exchange ACFDT corr.  =        -0.00002561  see jH, gK, PRB 81, 115126


--------------------------------------------------------------------------------------------------------




--------------------------------------- Iteration      1(   4)  ---------------------------------------


    POTLOK:  cpu time    1.2707: real time    1.2712
    SETDIJ:  cpu time    2.0868: real time    2.0872
    TRIAL :  cpu time   62.2063: real time   62.2486
    CORREC:  cpu time    0.0009: real time    0.0012
    CHARGE:  cpu time    0.1697: real time    0.1698
    --------------------------------------------
      LOOP:  cpu time   65.7369: real time   65.7805

 eigenvalue-minimisations  :     0
 total energy-change (2. order) :-0.5419538E+01  (-0.4032162E+01)
 number of electron     246.0000027 magnetization       1.9999891
 augmentation part       17.4094325 magnetization       2.0290857

 DIPCOR: dipole corrections for dipol
 direction  3 min pos     1,
 dipolmoment           0.000000      0.000000      0.001784 electrons x Angstroem
 Tr[quadrupol]     -6711.418138

 energy correction for charged system         0.000000 eV
 dipol+quadrupol energy correction            0.000000 eV
 added-field ion interaction          0.000000 eV  (added to PSCEN)


 Free energy of the ion-electron system (eV)
  ---------------------------------------------------
  alpha Z        PSCENC =       106.11381598
  Ewald energy   TEWEN  =     37765.38578687
  -Hartree energ DENC   =    -46962.00208180
  -exchange      EXHF   =       558.42897174
  -V(xc)+E(xc)   XCENC  =       644.02605795
  PAW double counting   =     27339.06588514   -27543.36459743
  entropy T*S    EENTRO =        -0.00000623
  eigenvalues    EBANDS =     -3205.50901234
  atomic energy  EATOM  =     10710.71333969
  ---------------------------------------------------
  free energy    TOTEN  =      -587.14185016 eV

  energy without entropy =     -587.14184392  energy(sigma->0) =     -587.14184704
  exchange ACFDT corr.  =        -0.00001086  see jH, gK, PRB 81, 115126


--------------------------------------------------------------------------------------------------------




--------------------------------------- Iteration      1(   5)  ---------------------------------------


    POTLOK:  cpu time    1.2717: real time    1.2725
    SETDIJ:  cpu time    2.0879: real time    2.0882
    TRIAL :  cpu time   62.3003: real time   62.3415
    CORREC:  cpu time    0.0008: real time    0.0011
    CHARGE:  cpu time    0.1695: real time    0.1696
    --------------------------------------------
      LOOP:  cpu time   65.8324: real time   65.8751

 eigenvalue-minimisations  :     0
 total energy-change (2. order) :-0.3323137E+01  (-0.2361118E+01)
 number of electron     246.0000027 magnetization       1.9999958
 augmentation part       17.4288045 magnetization       2.0385327

 DIPCOR: dipole corrections for dipol
 direction  3 min pos     1,
 dipolmoment           0.000000      0.000000      0.002064 electrons x Angstroem
 Tr[quadrupol]     -6711.476105

 energy correction for charged system         0.000000 eV
 dipol+quadrupol energy correction            0.000000 eV
 added-field ion interaction          0.000000 eV  (added to PSCEN)


 Free energy of the ion-electron system (eV)
  ---------------------------------------------------
  alpha Z        PSCENC =       106.11381601
  Ewald energy   TEWEN  =     37765.38578687
  -Hartree energ DENC   =    -46963.35791725
  -exchange      EXHF   =       558.68108951
  -V(xc)+E(xc)   XCENC  =       644.06833031
  PAW double counting   =     27186.81065171   -27390.09678451
  entropy T*S    EENTRO =        -0.00000180
  eigenvalues    EBANDS =     -3208.78329306
  atomic energy  EATOM  =     10710.71333969
  ---------------------------------------------------
  free energy    TOTEN  =      -590.46498694 eV

  energy without entropy =     -590.46498513  energy(sigma->0) =     -590.46498604
  exchange ACFDT corr.  =        -0.00000365  see jH, gK, PRB 81, 115126


--------------------------------------------------------------------------------------------------------




--------------------------------------- Iteration      1(   6)  ---------------------------------------


    POTLOK:  cpu time    1.2696: real time    1.2702
    SETDIJ:  cpu time    2.0861: real time    2.0864
    TRIAL :  cpu time   62.2210: real time   62.2505
    CORREC:  cpu time    0.0008: real time    0.0008
    CHARGE:  cpu time    0.1695: real time    0.1697
    --------------------------------------------
      LOOP:  cpu time   65.7497: real time   65.7803

 eigenvalue-minimisations  :     0
 total energy-change (2. order) :-0.1950994E+01  (-0.1385606E+01)
 number of electron     246.0000027 magnetization       1.9999990
 augmentation part       17.4480466 magnetization       2.0430691

 DIPCOR: dipole corrections for dipol
 direction  3 min pos     1,
 dipolmoment           0.000000      0.000000      0.002238 electrons x Angstroem
 Tr[quadrupol]     -6711.588028

 energy correction for charged system         0.000000 eV
 dipol+quadrupol energy correction            0.000000 eV
 added-field ion interaction          0.000000 eV  (added to PSCEN)


 Free energy of the ion-electron system (eV)
  ---------------------------------------------------
  alpha Z        PSCENC =       106.11381603
  Ewald energy   TEWEN  =     37765.38578687
  -Hartree energ DENC   =    -46971.17758231
  -exchange      EXHF   =       559.04814377
  -V(xc)+E(xc)   XCENC  =       644.28674313
  PAW double counting   =     27121.51322566   -27324.83891292
  entropy T*S    EENTRO =        -0.00000044
  eigenvalues    EBANDS =     -3203.46053880
  atomic energy  EATOM  =     10710.71333969
  ---------------------------------------------------
  free energy    TOTEN  =      -592.41598067 eV

  energy without entropy =     -592.41598023  energy(sigma->0) =     -592.41598045
  exchange ACFDT corr.  =        -0.00000097  see jH, gK, PRB 81, 115126


--------------------------------------------------------------------------------------------------------




--------------------------------------- Iteration      1(   7)  ---------------------------------------


    POTLOK:  cpu time    1.2675: real time    1.2680
    SETDIJ:  cpu time    2.0824: real time    2.0828
    TRIAL :  cpu time   62.2196: real time   62.2499
    CORREC:  cpu time    0.0008: real time    0.0010
    CHARGE:  cpu time    0.1696: real time    0.1697
    --------------------------------------------
      LOOP:  cpu time   65.7422: real time   65.7738

 eigenvalue-minimisations  :     0
 total energy-change (2. order) :-0.1154402E+01  (-0.8296598E+00)
 number of electron     246.0000027 magnetization       1.9999999
 augmentation part       17.4588984 magnetization       2.0454409

 DIPCOR: dipole corrections for dipol
 direction  3 min pos     1,
 dipolmoment           0.000000      0.000000      0.002392 electrons x Angstroem
 Tr[quadrupol]     -6711.668974

 energy correction for charged system         0.000000 eV
 dipol+quadrupol energy correction            0.000000 eV
 added-field ion interaction          0.000000 eV  (added to PSCEN)


 Free energy of the ion-electron system (eV)
  ---------------------------------------------------
  alpha Z        PSCENC =       106.11381605
  Ewald energy   TEWEN  =     37765.38578687
  -Hartree energ DENC   =    -46978.11494935
  -exchange      EXHF   =       559.36407830
  -V(xc)+E(xc)   XCENC  =       644.50185659
  PAW double counting   =     27104.39034509   -27308.16162863
  entropy T*S    EENTRO =        -0.00000011
  eigenvalues    EBANDS =     -3197.76302678
  atomic energy  EATOM  =     10710.71333969
  ---------------------------------------------------
  free energy    TOTEN  =      -593.57038261 eV

  energy without entropy =     -593.57038251  energy(sigma->0) =     -593.57038256
  exchange ACFDT corr.  =        -0.00000022  see jH, gK, PRB 81, 115126


--------------------------------------------------------------------------------------------------------




--------------------------------------- Iteration      1(   8)  ---------------------------------------


    POTLOK:  cpu time    1.2677: real time    1.2681
    SETDIJ:  cpu time    2.0861: real time    2.0865
    TRIAL :  cpu time   61.9976: real time   62.0415
    CORREC:  cpu time    0.0007: real time    0.0007
    CHARGE:  cpu time    0.1695: real time    0.1699
    --------------------------------------------
      LOOP:  cpu time   65.5242: real time   65.5693

 eigenvalue-minimisations  :     0
 total energy-change (2. order) :-0.6965291E+00  (-0.5049890E+00)
 number of electron     246.0000027 magnetization       2.0000001
 augmentation part       17.4652627 magnetization       2.0487353

 DIPCOR: dipole corrections for dipol
 direction  3 min pos     1,
 dipolmoment           0.000001      0.000000      0.002519 electrons x Angstroem
 Tr[quadrupol]     -6711.696966

 energy correction for charged system         0.000000 eV
 dipol+quadrupol energy correction            0.000000 eV
 added-field ion interaction          0.000000 eV  (added to PSCEN)


 Free energy of the ion-electron system (eV)
  ---------------------------------------------------
  alpha Z        PSCENC =       106.11381607
  Ewald energy   TEWEN  =     37765.38578687
  -Hartree energ DENC   =    -46981.20768994
  -exchange      EXHF   =       559.55590341
  -V(xc)+E(xc)   XCENC  =       644.62411330
  PAW double counting   =     27107.80113425   -27311.83018526
  entropy T*S    EENTRO =        -0.00000003
  eigenvalues    EBANDS =     -3195.42313003
  atomic energy  EATOM  =     10710.71333969
  ---------------------------------------------------
  free energy    TOTEN  =      -594.26691174 eV

  energy without entropy =     -594.26691171  energy(sigma->0) =     -594.26691172
  exchange ACFDT corr.  =        -0.00000005  see jH, gK, PRB 81, 115126


--------------------------------------------------------------------------------------------------------




--------------------------------------- Iteration      1(   9)  ---------------------------------------


    POTLOK:  cpu time    1.2664: real time    1.2669
    SETDIJ:  cpu time    2.0832: real time    2.0836
    TRIAL :  cpu time   62.0386: real time   62.0745
    CORREC:  cpu time    0.0007: real time    0.0007
    CHARGE:  cpu time    0.1696: real time    0.1699
    --------------------------------------------
      LOOP:  cpu time   65.5609: real time   65.5979

 eigenvalue-minimisations  :     0
 total energy-change (2. order) :-0.4265325E+00  (-0.3086814E+00)
 number of electron     246.0000027 magnetization       2.0000002
 augmentation part       17.4700155 magnetization       2.0529581

 DIPCOR: dipole corrections for dipol
 direction  3 min pos     1,
 dipolmoment           0.000001      0.000000      0.002561 electrons x Angstroem
 Tr[quadrupol]     -6711.691139

 energy correction for charged system         0.000000 eV
 dipol+quadrupol energy correction            0.000000 eV
 added-field ion interaction          0.000000 eV  (added to PSCEN)


 Free energy of the ion-electron system (eV)
  ---------------------------------------------------
  alpha Z        PSCENC =       106.11381608
  Ewald energy   TEWEN  =     37765.38578687
  -Hartree energ DENC   =    -46981.30260829
  -exchange      EXHF   =       559.64208098
  -V(xc)+E(xc)   XCENC  =       644.66147211
  PAW double counting   =     27118.75189498   -27322.75455399
  entropy T*S    EENTRO =        -0.00000001
  eigenvalues    EBANDS =     -3195.90467259
  atomic energy  EATOM  =     10710.71333969
  ---------------------------------------------------
  free energy    TOTEN  =      -594.69344419 eV

  energy without entropy =     -594.69344418  energy(sigma->0) =     -594.69344419
  exchange ACFDT corr.  =        -0.00000001  see jH, gK, PRB 81, 115126


--------------------------------------------------------------------------------------------------------




--------------------------------------- Iteration      1(  10)  ---------------------------------------


    POTLOK:  cpu time    1.2680: real time    1.2686
    SETDIJ:  cpu time    2.0845: real time    2.0849
    TRIAL :  cpu time   61.9789: real time   62.0074
    CORREC:  cpu time    0.0007: real time    0.0007
    CHARGE:  cpu time    0.1695: real time    0.1698
    --------------------------------------------
      LOOP:  cpu time   65.5040: real time   65.5339

 eigenvalue-minimisations  :     0
 total energy-change (2. order) :-0.2615352E+00  (-0.1876329E+00)
 number of electron     246.0000027 magnetization       2.0000002
 augmentation part       17.4740739 magnetization       2.0565713

 DIPCOR: dipole corrections for dipol
 direction  3 min pos     1,
 dipolmoment           0.000001      0.000000      0.002571 electrons x Angstroem
 Tr[quadrupol]     -6711.678076

 energy correction for charged system         0.000000 eV
 dipol+quadrupol energy correction            0.000000 eV
 added-field ion interaction          0.000000 eV  (added to PSCEN)


 Free energy of the ion-electron system (eV)
  ---------------------------------------------------
  alpha Z        PSCENC =       106.11381608
  Ewald energy   TEWEN  =     37765.38578687
  -Hartree energ DENC   =    -46980.43333601
  -exchange      EXHF   =       559.67679158
  -V(xc)+E(xc)   XCENC  =       644.66141673
  PAW double counting   =     27131.68125848   -27335.57202180
  entropy T*S    EENTRO =        -0.00000000
  eigenvalues    EBANDS =     -3197.18203102
  atomic energy  EATOM  =     10710.71333969
  ---------------------------------------------------
  free energy    TOTEN  =      -594.95497941 eV

  energy without entropy =     -594.95497940  energy(sigma->0) =     -594.95497940
  exchange ACFDT corr.  =        -0.00000000  see jH, gK, PRB 81, 115126


--------------------------------------------------------------------------------------------------------




--------------------------------------- Iteration      1(  11)  ---------------------------------------


    POTLOK:  cpu time    1.2653: real time    1.2659
    SETDIJ:  cpu time    2.0862: real time    2.0868
    TRIAL :  cpu time   62.0311: real time   62.0610
    CORREC:  cpu time    0.0007: real time    0.0009
    CHARGE:  cpu time    0.1694: real time    0.1695
    --------------------------------------------
      LOOP:  cpu time   65.5551: real time   65.5867

 eigenvalue-minimisations  :     0
 total energy-change (2. order) :-0.1598989E+00  (-0.1143513E+00)
 number of electron     246.0000027 magnetization       2.0000002
 augmentation part       17.4768766 magnetization       2.0589550

 DIPCOR: dipole corrections for dipol
 direction  3 min pos     1,
 dipolmoment           0.000001      0.000000      0.002589 electrons x Angstroem
 Tr[quadrupol]     -6711.672547

 energy correction for charged system         0.000000 eV
 dipol+quadrupol energy correction            0.000000 eV
 added-field ion interaction          0.000000 eV  (added to PSCEN)


 Free energy of the ion-electron system (eV)
  ---------------------------------------------------
  alpha Z        PSCENC =       106.11381608
  Ewald energy   TEWEN  =     37765.38578687
  -Hartree energ DENC   =    -46980.02883010
  -exchange      EXHF   =       559.70401891
  -V(xc)+E(xc)   XCENC  =       644.66332975
  PAW double counting   =     27143.92423116   -27347.82317716
  entropy T*S    EENTRO =        -0.00000000
  eigenvalues    EBANDS =     -3197.76739356
  atomic energy  EATOM  =     10710.71333969
  ---------------------------------------------------
  free energy    TOTEN  =      -595.11487835 eV

  energy without entropy =     -595.11487835  energy(sigma->0) =     -595.11487835
  exchange ACFDT corr.  =        -0.00000000  see jH, gK, PRB 81, 115126


--------------------------------------------------------------------------------------------------------




--------------------------------------- Iteration      1(  12)  ---------------------------------------


    POTLOK:  cpu time    1.2636: real time    1.2642
    SETDIJ:  cpu time    2.0822: real time    2.0825
    TRIAL :  cpu time   62.0365: real time   62.0551
    CORREC:  cpu time    0.0007: real time    0.0009
    CHARGE:  cpu time    0.1694: real time    0.1694
    --------------------------------------------
      LOOP:  cpu time   65.5543: real time   65.5741

 eigenvalue-minimisations  :     0
 total energy-change (2. order) :-0.9819334E-01  (-0.7037544E-01)
 number of electron     246.0000027 magnetization       2.0000002
 augmentation part       17.4789986 magnetization       2.0608087

 DIPCOR: dipole corrections for dipol
 direction  3 min pos     1,
 dipolmoment           0.000001      0.000000      0.002620 electrons x Angstroem
 Tr[quadrupol]     -6711.674766

 energy correction for charged system         0.000000 eV
 dipol+quadrupol energy correction            0.000000 eV
 added-field ion interaction          0.000000 eV  (added to PSCEN)


 Free energy of the ion-electron system (eV)
  ---------------------------------------------------
  alpha Z        PSCENC =       106.11381609
  Ewald energy   TEWEN  =     37765.38578687
  -Hartree energ DENC   =    -46980.16887912
  -exchange      EXHF   =       559.73474207
  -V(xc)+E(xc)   XCENC  =       644.67344110
  PAW double counting   =     27153.80035371   -27357.78063342
  entropy T*S    EENTRO =        -0.00000000
  eigenvalues    EBANDS =     -3197.68503869
  atomic energy  EATOM  =     10710.71333969
  ---------------------------------------------------
  free energy    TOTEN  =      -595.21307169 eV

  energy without entropy =     -595.21307169  energy(sigma->0) =     -595.21307169
  exchange ACFDT corr.  =        -0.00000000  see jH, gK, PRB 81, 115126


--------------------------------------------------------------------------------------------------------




--------------------------------------- Iteration      1(  13)  ---------------------------------------


    POTLOK:  cpu time    1.2627: real time    1.2629
    SETDIJ:  cpu time    2.0824: real time    2.0824
    TRIAL :  cpu time   62.0530: real time   62.0731
    CORREC:  cpu time    0.0006: real time    0.0006
    CHARGE:  cpu time    0.1699: real time    0.1702
    --------------------------------------------
      LOOP:  cpu time   65.5710: real time   65.5916

 eigenvalue-minimisations  :     0
 total energy-change (2. order) :-0.6103231E-01  (-0.4433444E-01)
 number of electron     246.0000027 magnetization       2.0000002
 augmentation part       17.4805872 magnetization       2.0626267

 DIPCOR: dipole corrections for dipol
 direction  3 min pos     1,
 dipolmoment           0.000001      0.000000      0.002645 electrons x Angstroem
 Tr[quadrupol]     -6711.680069

 energy correction for charged system         0.000000 eV
 dipol+quadrupol energy correction            0.000000 eV
 added-field ion interaction          0.000000 eV  (added to PSCEN)


 Free energy of the ion-electron system (eV)
  ---------------------------------------------------
  alpha Z        PSCENC =       106.11381609
  Ewald energy   TEWEN  =     37765.38578687
  -Hartree energ DENC   =    -46980.49975573
  -exchange      EXHF   =       559.76578787
  -V(xc)+E(xc)   XCENC  =       644.68581533
  PAW double counting   =     27161.10907122   -27365.15207493
  entropy T*S    EENTRO =        -0.00000000
  eigenvalues    EBANDS =     -3197.39589042
  atomic energy  EATOM  =     10710.71333969
  ---------------------------------------------------
  free energy    TOTEN  =      -595.27410400 eV

  energy without entropy =     -595.27410400  energy(sigma->0) =     -595.27410400
  exchange ACFDT corr.  =        -0.00000000  see jH, gK, PRB 81, 115126


--------------------------------------------------------------------------------------------------------




--------------------------------------- Iteration      1(  14)  ---------------------------------------


    POTLOK:  cpu time    1.2568: real time    1.2569
    SETDIJ:  cpu time    2.0831: real time    2.0832
    TRIAL :  cpu time   62.2072: real time   62.2190
    CORREC:  cpu time    0.0006: real time    0.0006
    CHARGE:  cpu time    0.1699: real time    0.1702
    --------------------------------------------
      LOOP:  cpu time   65.7199: real time   65.7321

 eigenvalue-minimisations  :     0
 total energy-change (2. order) :-0.3893275E-01  (-0.2884030E-01)
 number of electron     246.0000027 magnetization       2.0000002
 augmentation part       17.4812591 magnetization       2.0642281

 DIPCOR: dipole corrections for dipol
 direction  3 min pos     1,
 dipolmoment           0.000001      0.000000      0.002656 electrons x Angstroem
 Tr[quadrupol]     -6711.684707

 energy correction for charged system         0.000000 eV
 dipol+quadrupol energy correction            0.000000 eV
 added-field ion interaction          0.000000 eV  (added to PSCEN)


 Free energy of the ion-electron system (eV)
  ---------------------------------------------------
  alpha Z        PSCENC =       106.11381609
  Ewald energy   TEWEN  =     37765.38578687
  -Hartree energ DENC   =    -46980.76023409
  -exchange      EXHF   =       559.79345148
  -V(xc)+E(xc)   XCENC  =       644.69576289
  PAW double counting   =     27166.16990091   -27370.22580746
  entropy T*S    EENTRO =        -0.00000000
  eigenvalues    EBANDS =     -3197.19905313
  atomic energy  EATOM  =     10710.71333969
  ---------------------------------------------------
  free energy    TOTEN  =      -595.31303674 eV

  energy without entropy =     -595.31303674  energy(sigma->0) =     -595.31303674
  exchange ACFDT corr.  =        -0.00000000  see jH, gK, PRB 81, 115126


--------------------------------------------------------------------------------------------------------




--------------------------------------- Iteration      1(  15)  ---------------------------------------


    POTLOK:  cpu time    1.2550: real time    1.2550
    SETDIJ:  cpu time    2.0827: real time    2.0827
    TRIAL :  cpu time   62.2240: real time   62.2292
    CORREC:  cpu time    0.0006: real time    0.0009
    CHARGE:  cpu time    0.1697: real time    0.1697
    --------------------------------------------
      LOOP:  cpu time   65.7340: real time   65.7395

 eigenvalue-minimisations  :     0
 total energy-change (2. order) :-0.2565536E-01  (-0.1939023E-01)
 number of electron     246.0000027 magnetization       2.0000002
 augmentation part       17.4814272 magnetization       2.0655135

 DIPCOR: dipole corrections for dipol
 direction  3 min pos     1,
 dipolmoment           0.000001      0.000000      0.002664 electrons x Angstroem
 Tr[quadrupol]     -6711.687199

 energy correction for charged system         0.000000 eV
 dipol+quadrupol energy correction            0.000000 eV
 added-field ion interaction          0.000000 eV  (added to PSCEN)


 Free energy of the ion-electron system (eV)
  ---------------------------------------------------
  alpha Z        PSCENC =       106.11381609
  Ewald energy   TEWEN  =     37765.38578687
  -Hartree energ DENC   =    -46980.87638550
  -exchange      EXHF   =       559.81662728
  -V(xc)+E(xc)   XCENC  =       644.70230476
  PAW double counting   =     27169.24077239   -27373.28059309
  entropy T*S    EENTRO =        -0.00000000
  eigenvalues    EBANDS =     -3197.15436060
  atomic energy  EATOM  =     10710.71333969
  ---------------------------------------------------
  free energy    TOTEN  =      -595.33869210 eV

  energy without entropy =     -595.33869210  energy(sigma->0) =     -595.33869210
  exchange ACFDT corr.  =        -0.00000000  see jH, gK, PRB 81, 115126


--------------------------------------------------------------------------------------------------------




--------------------------------------- Iteration      1(  16)  ---------------------------------------


    POTLOK:  cpu time    1.2486: real time    1.2487
    SETDIJ:  cpu time    2.0846: real time    2.0847
    TRIAL :  cpu time   62.1732: real time   62.1780
    CORREC:  cpu time    0.0005: real time    0.0005
    CHARGE:  cpu time    0.1699: real time    0.1701
    --------------------------------------------
      LOOP:  cpu time   65.6791: real time   65.6842

 eigenvalue-minimisations  :     0
 total energy-change (2. order) :-0.1745311E-01  (-0.1340958E-01)
 number of electron     246.0000027 magnetization       2.0000002
 augmentation part       17.4816072 magnetization       2.0666465

 DIPCOR: dipole corrections for dipol
 direction  3 min pos     1,
 dipolmoment           0.000001      0.000000      0.002672 electrons x Angstroem
 Tr[quadrupol]     -6711.688133

 energy correction for charged system         0.000000 eV
 dipol+quadrupol energy correction            0.000000 eV
 added-field ion interaction          0.000000 eV  (added to PSCEN)


 Free energy of the ion-electron system (eV)
  ---------------------------------------------------
  alpha Z        PSCENC =       106.11381609
  Ewald energy   TEWEN  =     37765.38578687
  -Hartree energ DENC   =    -46980.93643128
  -exchange      EXHF   =       559.83686952
  -V(xc)+E(xc)   XCENC  =       644.70777335
  PAW double counting   =     27170.79278570   -27374.82926648
  entropy T*S    EENTRO =        -0.00000000
  eigenvalues    EBANDS =     -3197.14081868
  atomic energy  EATOM  =     10710.71333969
  ---------------------------------------------------
  free energy    TOTEN  =      -595.35614521 eV

  energy without entropy =     -595.35614521  energy(sigma->0) =     -595.35614521
  exchange ACFDT corr.  =        -0.00000000  see jH, gK, PRB 81, 115126


--------------------------------------------------------------------------------------------------------




--------------------------------------- Iteration      1(  17)  ---------------------------------------


    POTLOK:  cpu time    1.2465: real time    1.2466
    SETDIJ:  cpu time    2.0821: real time    2.0822
    TRIAL :  cpu time   61.8411: real time   61.8629
    CORREC:  cpu time    0.0006: real time    0.0009
    CHARGE:  cpu time    0.1698: real time    0.1698
    --------------------------------------------
      LOOP:  cpu time   65.3425: real time   65.3647

 eigenvalue-minimisations  :     0
 total energy-change (2. order) :-0.1217987E-01  (-0.9462764E-02)
 number of electron     246.0000027 magnetization       2.0000002
 augmentation part       17.4819025 magnetization       2.0677401

 DIPCOR: dipole corrections for dipol
 direction  3 min pos     1,
 dipolmoment           0.000001      0.000000      0.002677 electrons x Angstroem
 Tr[quadrupol]     -6711.688547

 energy correction for charged system         0.000000 eV
 dipol+quadrupol energy correction            0.000000 eV
 added-field ion interaction          0.000000 eV  (added to PSCEN)


 Free energy of the ion-electron system (eV)
  ---------------------------------------------------
  alpha Z        PSCENC =       106.11381610
  Ewald energy   TEWEN  =     37765.38578687
  -Hartree energ DENC   =    -46981.00209431
  -exchange      EXHF   =       559.85523695
  -V(xc)+E(xc)   XCENC  =       644.71344152
  PAW double counting   =     27171.39346775   -27375.44453244
  entropy T*S    EENTRO =        -0.00000000
  eigenvalues    EBANDS =     -3197.09678721
  atomic energy  EATOM  =     10710.71333969
  ---------------------------------------------------
  free energy    TOTEN  =      -595.36832509 eV

  energy without entropy =     -595.36832509  energy(sigma->0) =     -595.36832509
  exchange ACFDT corr.  =        -0.00000000  see jH, gK, PRB 81, 115126


--------------------------------------------------------------------------------------------------------




--------------------------------------- Iteration      1(  18)  ---------------------------------------


    POTLOK:  cpu time    1.2458: real time    1.2459
    SETDIJ:  cpu time    2.0861: real time    2.0863
    TRIAL :  cpu time   61.9257: real time   61.9308
    CORREC:  cpu time    0.0006: real time    0.0008
    CHARGE:  cpu time    0.1697: real time    0.1697
    --------------------------------------------
      LOOP:  cpu time   65.4300: real time   65.4356

 eigenvalue-minimisations  :     0
 total energy-change (2. order) :-0.8658984E-02  (-0.6804522E-02)
 number of electron     246.0000027 magnetization       2.0000002
 augmentation part       17.4820901 magnetization       2.0687266

 DIPCOR: dipole corrections for dipol
 direction  3 min pos     1,
 dipolmoment           0.000001      0.000000      0.002679 electrons x Angstroem
 Tr[quadrupol]     -6711.688926

 energy correction for charged system         0.000000 eV
 dipol+quadrupol energy correction            0.000000 eV
 added-field ion interaction          0.000000 eV  (added to PSCEN)


 Free energy of the ion-electron system (eV)
  ---------------------------------------------------
  alpha Z        PSCENC =       106.11381610
  Ewald energy   TEWEN  =     37765.38578687
  -Hartree energ DENC   =    -46981.07075954
  -exchange      EXHF   =       559.87169967
  -V(xc)+E(xc)   XCENC  =       644.71899992
  PAW double counting   =     27171.48698667   -27375.55544358
  entropy T*S    EENTRO =        -0.00000000
  eigenvalues    EBANDS =     -3197.04140987
  atomic energy  EATOM  =     10710.71333969
  ---------------------------------------------------
  free energy    TOTEN  =      -595.37698407 eV

  energy without entropy =     -595.37698407  energy(sigma->0) =     -595.37698407
  exchange ACFDT corr.  =        -0.00000000  see jH, gK, PRB 81, 115126


[...]
  augment    46.76389    42.28892    46.44364     1.70996    -0.01172     0.04450
  Kinetic  3543.33249  3531.57807  3981.59594     0.96701     0.07019     0.16905
  Fock     -377.77271  -373.36303  -353.84100    -1.43856     0.03146    -0.00433
  -------------------------------------------------------------------------------------
  Total     -48.79943   -35.71842    -0.29997     0.34231     0.01419     0.02375
  in kB     -24.61074   -18.01367    -0.15128     0.17263     0.00716     0.01198
  external pressure =      -14.26 kB  Pullay stress =        0.00 kB


 VOLUME and BASIS-vectors are now :
 -----------------------------------------------------------------------------
  energy-cutoff  :      500.00
  volume of cell :     3176.88
      direct lattice vectors                 reciprocal lattice vectors
    13.115662140  0.001452568  0.000074313     0.076244719  0.000022937 -0.000015854
    -0.003716818 12.354406479 -0.000608512    -0.000008964  0.080942777 -0.000005517
     0.004076378  0.001336782 19.605982009    -0.000000289  0.000002512  0.051004841

  length of vectors
    13.115662220 12.354407053 19.605982478     0.076244724  0.080942777  0.051004841


 FORCES acting on ions:
    Electron-Ion                     Ewald-Force                    Non-Local-Force
 -----------------------------------------------------------------------------------------------
   0.132E+01 0.570E+01 -.120E+00   -.652E+00 -.574E+01 0.123E+00   -.442E+00 0.441E-01 -.390E-02
   -.489E+00 0.771E+01 -.359E+00   0.264E+00 -.804E+01 0.359E+00   -.620E-02 0.110E+00 0.764E-03
   -.140E+02 0.255E+01 -.223E+00   0.141E+02 -.265E+01 0.219E+00   -.248E+00 0.883E-01 0.497E-02
   -.466E+01 0.718E+01 0.398E+00   0.539E+01 -.713E+01 -.404E+00   -.495E+00 -.267E+00 0.778E-02
   -.457E+00 0.301E+02 0.228E+00   0.817E+00 -.299E+02 -.224E+00   -.584E+00 0.163E+00 0.280E-04
   0.500E+01 0.148E+02 -.985E+00   -.513E+01 -.149E+02 0.988E+00   -.101E+00 0.459E-01 -.255E-02
   -.282E+01 0.105E+02 -.247E+00   0.336E+01 -.105E+02 0.245E+00   -.281E+00 0.121E+00 0.221E-02
   0.294E+02 0.284E+01 -.367E+00   -.295E+02 -.347E+01 0.366E+00   -.246E+00 0.214E+00 0.664E-02
   0.168E+01 -.289E+01 -.186E+01   -.201E+01 0.311E+01 0.186E+01   -.416E-01 -.216E+00 -.297E-02
   0.151E+02 0.792E+00 -.127E+01   -.149E+02 -.668E+00 0.128E+01   0.216E+00 -.115E+00 -.758E-02
   0.669E+02 -.120E+02 0.713E+00   -.680E+02 0.127E+02 -.721E+00   0.237E+01 -.394E+00 -.110E-01
   0.142E+02 -.222E+02 -.920E+00   -.136E+02 0.240E+02 0.917E+00   -.766E+00 -.134E+01 0.132E-02
   0.189E+01 -.167E+02 -.143E+01   -.197E+01 0.169E+02 0.143E+01   -.147E+00 -.148E+00 -.199E-03
   0.111E+02 -.573E+01 -.193E+01   -.106E+02 0.591E+01 0.193E+01   -.259E+00 -.111E+00 -.744E-02
   -.120E+02 -.163E+02 -.378E+00   0.126E+02 0.149E+02 0.385E+00   -.765E+00 0.916E+00 -.981E-02
   -.167E+01 -.291E+01 -.607E+00   0.170E+01 0.289E+01 0.609E+00   -.171E+00 0.231E+00 -.927E-03
   -.846E+01 -.771E+01 -.820E+00   0.939E+01 0.745E+01 0.825E+00   -.682E+00 0.375E-01 -.391E-02
   -.906E+01 0.520E+01 -.102E+00   0.979E+01 -.576E+01 0.904E-01   -.489E+00 0.857E+00 0.101E-01
   0.957E+01 0.733E+01 -.674E+00   -.986E+01 -.746E+01 0.667E+00   0.471E+00 0.125E+00 0.555E-02
   0.188E+02 0.143E+02 0.436E+00   -.187E+02 -.145E+02 -.426E+00   -.189E+00 -.248E+00 -.928E-02
   0.818E+01 0.891E+01 -.405E+00   -.891E+01 -.912E+01 0.411E+00   0.461E+00 0.268E+00 -.867E-02
   -.369E+01 0.118E+02 -.777E+00   0.373E+01 -.122E+02 0.783E+00   0.107E+00 0.137E+00 -.574E-02
   -.183E+02 0.230E+02 -.242E-02   0.172E+02 -.236E+02 0.663E-02   0.724E+00 0.611E+00 -.841E-02
   -.331E+02 0.460E+02 0.113E+00   0.348E+02 -.489E+02 -.109E+00   -.149E+01 0.320E+01 -.102E-02
   -.302E+01 -.422E+02 0.318E+00   0.421E+01 0.471E+02 -.313E+00   -.873E+00 -.482E+01 -.127E-02
   0.244E+01 -.110E+02 -.403E+00   -.326E+01 0.965E+01 0.407E+00   0.878E+00 0.101E+01 -.410E-02
   0.715E+00 -.580E+00 -.629E+00   -.217E+01 -.904E-01 0.624E+00   0.941E+00 0.598E+00 0.258E-02
   0.142E+02 0.715E+01 -.351E+00   -.136E+02 -.798E+01 0.348E+00   -.632E+00 0.100E+01 0.148E-02
   0.832E+00 -.882E+00 -.873E+00   -.110E+01 0.613E+00 0.875E+00   0.411E+00 0.513E+00 -.241E-02
   0.233E+01 0.223E+01 -.747E+00   -.239E+01 -.221E+01 0.745E+00   -.880E-03 0.207E-01 0.619E-03
   0.412E+00 0.570E+01 -.790E+00   -.726E+00 -.613E+01 0.792E+00   0.104E+00 0.219E+00 -.184E-02
   -.617E+01 0.277E+01 -.905E+00   0.613E+01 -.289E+01 0.908E+00   0.631E-01 0.884E-01 -.416E-02
   -.685E+01 0.203E+01 -.682E+00   0.704E+01 -.224E+01 0.684E+00   -.282E-01 0.412E-01 -.229E-02
   -.215E+01 0.847E+01 -.833E+00   0.197E+01 -.848E+01 0.831E+00   -.664E-01 0.158E+00 0.312E-03
   -.142E+02 0.115E+02 -.313E+00   0.146E+02 -.118E+02 0.315E+00   -.486E+00 0.148E+00 -.123E-02
   -.437E+01 0.716E+01 -.680E+00   0.461E+01 -.731E+01 0.682E+00   0.295E-01 0.374E+00 -.232E-02
   -.529E+00 0.389E+01 -.112E+01   0.558E+00 -.392E+01 0.112E+01   0.108E+00 -.580E-03 -.194E-02
   -.251E+01 0.195E+01 -.122E+01   0.242E+01 -.203E+01 0.122E+01   -.224E+00 -.357E-01 -.337E-02
   -.638E+01 -.117E+02 -.183E+00   0.589E+01 0.121E+02 0.184E+00   0.323E+00 -.402E+00 0.144E-02
   -.872E+01 -.281E+01 -.544E+00   0.905E+01 0.322E+01 0.545E+00   -.612E-01 -.282E+00 -.415E-03
   0.798E+01 -.237E+01 -.158E+01   -.763E+01 0.254E+01 0.158E+01   0.924E-01 -.131E+00 -.323E-02
   -.401E+00 -.577E+01 -.120E+01   0.708E-01 0.606E+01 0.120E+01   0.110E+00 -.164E+00 -.659E-03
   0.604E+00 -.749E+01 -.539E+00   -.144E+01 0.764E+01 0.543E+00   0.724E+00 -.153E-01 -.796E-03
   0.800E+00 -.356E+01 -.561E+00   -.816E+00 0.379E+01 0.559E+00   0.218E+00 -.285E+00 0.280E-02
   0.209E+00 -.413E+01 -.119E+01   -.332E-01 0.414E+01 0.119E+01   0.111E-01 -.891E-02 0.513E-03
   -.391E+00 -.701E+01 -.855E+00   0.308E-01 0.682E+01 0.854E+00   0.853E-01 0.161E-01 0.489E-03
   0.378E+01 0.172E+01 -.869E+00   -.416E+01 -.159E+01 0.868E+00   0.205E+00 0.106E+00 0.290E-03
   0.882E+00 -.327E+01 -.796E+00   -.846E+00 0.285E+01 0.800E+00   0.207E+00 0.866E-01 -.378E-02
   -.725E+01 0.742E+00 -.749E+00   0.747E+01 -.703E+00 0.751E+00   -.705E-01 0.750E-01 -.235E-02
   -.193E+01 0.462E+02 0.148E+00   0.623E+01 -.464E+02 -.166E+00   -.469E+01 0.238E-01 0.207E-01
   -.359E+02 -.416E+02 0.114E+01   0.440E+02 0.411E+02 -.126E+01   -.838E+01 0.535E+00 0.116E+00
   0.282E+02 0.355E+02 0.150E+01   -.310E+02 -.314E+02 -.154E+01   0.304E+01 -.399E+01 0.471E-01
   0.282E+02 0.464E+01 0.401E+00   -.376E+02 -.402E+01 -.451E+00   0.955E+01 -.464E+00 0.435E-01
   0.325E+02 0.679E+01 -.597E+00   -.356E+02 -.130E+02 0.589E+00   0.364E+01 0.611E+01 0.564E-02
   -.268E+01 -.456E+02 0.191E+00   -.183E+02 0.476E+02 -.211E+00   0.198E+02 -.203E+01 0.231E-01
   -.662E+02 -.577E+02 0.987E+01   0.865E+02 0.581E+02 -.103E+02   -.198E+02 -.116E+01 0.438E+00
   -.588E+01 0.463E+02 0.104E+02   0.275E+01 -.470E+02 -.104E+02   0.331E+01 0.141E+01 -.556E-01
   -.284E+02 -.619E+02 0.623E+01   0.279E+02 0.626E+02 -.615E+01   0.134E+00 -.521E+00 -.661E-01
 -----------------------------------------------------------------------------------------------
   -.571E+01 -.243E+01 -.555E+00   0.917E-12 -.853E-13 0.977E-14   0.561E+01 0.255E+01 0.502E+00
 
 
 POSITION                                       TOTAL-FORCE (eV/Angst)
 -----------------------------------------------------------------------------------
      2.94963     12.35242      9.79851         0.214505      0.003559     -0.000763
      0.73193      1.22148      9.80214        -0.224197     -0.210103      0.000482
      1.47582     12.35190      9.80084        -0.188515     -0.008506      0.000833
      3.67018      1.25011      9.79623         0.197182     -0.239125      0.002253
      2.89144      2.48276      9.79639        -0.251460      0.364649      0.004315
      0.67264      3.68453      9.80346        -0.236542     -0.001965     -0.000037
      1.43568      2.46369      9.80055         0.236147      0.142749      0.000178
      2.74103      4.93320      9.79569        -0.331570     -0.413237      0.006075
      0.62794      6.18034      9.80616        -0.383193     -0.013141     -0.003681
      1.32905      4.93724      9.80279         0.400514     -0.005173     -0.002746
      3.43837      6.19065      9.78852         1.436042      0.262201     -0.021030
      2.73676      7.43554      9.79748        -0.263770      0.420059     -0.001681
      0.67005      8.67007      9.80551        -0.231299      0.056342     -0.001141
      1.33265      7.42362      9.80490         0.243635      0.071867     -0.005421
      2.89924      9.85829      9.79883        -0.238818     -0.498148     -0.003274
      0.73371     11.12663      9.80300        -0.146368      0.219741      0.000458
      1.44554      9.88500      9.80287         0.208898     -0.217046      0.000454
      3.66854     11.09558      9.79823         0.209092      0.342760     -0.001043
      7.31315      0.00434      9.80126         0.209380     -0.000691     -0.001409
      5.14439      1.26454      9.79500        -0.080018     -0.401786      0.000462
      5.85630     12.35133      9.79835        -0.254166      0.067224     -0.002921
      8.06210      1.22749      9.80118         0.144558     -0.199963     -0.000658
      7.34093      2.46536      9.79608        -0.365013      0.018419     -0.004624
      8.09470      3.73650      9.79607         0.115022      0.494562      0.002953
      8.05493      6.15755      9.79515         0.279815     -0.131902      0.004287
      8.08148      8.62898      9.79894         0.100149     -0.282994     -0.000445
      7.34194      9.89936      9.79979        -0.472640     -0.038112     -0.001633
      5.14251     11.08553      9.79824        -0.028151      0.221152     -0.001273
      8.05605     11.13153      9.80217         0.161952      0.263617     -0.001136
     11.67361     12.35346      9.80438        -0.045430      0.048599     -0.000846
      9.49970      1.22333      9.80345        -0.200585     -0.197697     -0.000262
     10.22633     12.35360      9.80429         0.016888     -0.023590     -0.001361
     12.40109      1.22568      9.80427         0.154635     -0.171933     -0.000614
     11.65554      2.45261      9.80458        -0.246022      0.167766     -0.001948
      9.51976      3.69982      9.80053        -0.142264     -0.119695      0.000981
     10.22454      2.45556      9.80320         0.271183      0.249864     -0.001229
     12.35590      3.69107      9.80521         0.142397     -0.037526     -0.002111
     11.64463      4.93181      9.80548        -0.324052     -0.115030     -0.002974
      9.49786      6.17241      9.79995        -0.146431     -0.015407      0.001884
     10.21950      4.93864      9.80213         0.261481      0.106307      0.000739
     12.33665      6.17977      9.80685         0.457166      0.033442     -0.002450
     11.63591      7.42413      9.80588        -0.218601      0.113201     -0.000529
      9.50822      8.65535      9.80212        -0.078119      0.134254      0.002797
     10.21019      7.41624      9.80273         0.216144     -0.067865      0.000441
     12.35402      8.66424      9.80611         0.188692      0.000071      0.000030
     11.65295      9.90208      9.80517        -0.269682     -0.176203     -0.000629
      9.49528     11.13008      9.80390        -0.158066      0.241926     -0.001167
     10.22186      9.89675      9.80414         0.253328     -0.328390     -0.000007
     12.40114     11.12786      9.80453         0.134198      0.122199     -0.000593
      3.47905      3.75744      9.79331        -0.700859     -0.239883      0.003777
      3.55000      8.58587      9.79254        -0.802271      0.127504      0.001719
      5.93501      2.45033      9.79045         0.366128     -0.128159      0.009505
      7.34394      7.41273      9.79379         0.686310      0.157639     -0.003795
      5.91464      9.87442      9.79742         0.763084      0.221545     -0.002224
      7.41738      4.91290      9.79326         0.549061     -0.236909      0.004352
      4.75224      6.23930      9.77163        -1.263196     -0.910111      0.009382
      5.42470      4.39676      9.78089         0.182780      0.375868      0.000631
      5.44650      7.98547      9.78304        -0.509068      0.381202      0.018664
 -----------------------------------------------------------------------------------
    total drift:                                0.004095      0.005264     -0.003818


--------------------------------------------------------------------------------------------------------



  FREE ENERGIE OF THE ION-ELECTRON SYSTEM (eV)
  ---------------------------------------------------
  free  energy   TOTEN  =      -595.41844795 eV

  energy  without entropy=     -595.41844795  energy(sigma->0) =     -595.41844795
 


--------------------------------------------------------------------------------------------------------


    POTLOK:  cpu time    3.3073: real time    3.3081


--------------------------------------------------------------------------------------------------------


 stress matrix after NEB project (eV)
    -48.79943      0.34440      0.02375
      0.34231    -35.71842      0.01425
      0.02348      0.01419     -0.29997
  FORCES: max atom, RMS     1.556937    0.470943
  FORCE total and by dimension    3.586592    1.436042
  Stress total and by dimension   60.477408   48.799428
 writing wavefunctions
     LOOP+:  cpu time 5713.4631: real time 5717.9097
    4ORBIT:  cpu time    0.0000: real time    0.0000
 


 total charge     
 
# of ion       s       p       d       tot
------------------------------------------
    1        0.854   1.717   0.000   2.571
    2        0.862   1.755   0.000   2.617
    3        0.859   1.730   0.000   2.588
    4        0.854   1.705   0.000   2.559
    5        0.859   1.740   0.000   2.599
    6        0.866   1.771   0.000   2.637
    7        0.864   1.732   0.000   2.597
    8        0.881   1.805   0.000   2.686
    9        0.869   1.788   0.000   2.657
   10        0.874   1.786   0.000   2.660
   11        0.895   1.752   0.000   2.647
   12        0.884   1.804   0.000   2.688
   13        0.866   1.771   0.000   2.638
   14        0.876   1.793   0.000   2.669
   15        0.858   1.727   0.000   2.585
   16        0.862   1.750   0.000   2.613
   17        0.861   1.738   0.000   2.599
   18        0.858   1.693   0.000   2.552
   19        0.860   1.743   0.000   2.603
   20        0.852   1.715   0.000   2.567
   21        0.857   1.714   0.000   2.570
   22        0.864   1.753   0.000   2.618
   23        0.865   1.748   0.000   2.613
   24        0.864   1.718   0.000   2.583
   25        0.853   1.690   0.000   2.543
   26        0.868   1.735   0.000   2.604
   27        0.871   1.733   0.000   2.603
   28        0.853   1.710   0.000   2.563
   29        0.867   1.756   0.000   2.623
   30        0.865   1.761   0.000   2.625
   31        0.864   1.767   0.000   2.631
   32        0.864   1.760   0.000   2.624
   33        0.862   1.757   0.000   2.619
   34        0.865   1.767   0.000   2.632
   35        0.867   1.786   0.000   2.652
   36        0.865   1.761   0.000   2.627
   37        0.867   1.767   0.000   2.633
   38        0.865   1.777   0.000   2.642
   39        0.864   1.762   0.000   2.626
   40        0.870   1.766   0.000   2.636
   41        0.872   1.779   0.000   2.651
   42        0.865   1.770   0.000   2.635
   43        0.868   1.771   0.000   2.639
   44        0.867   1.769   0.000   2.635
   45        0.866   1.767   0.000   2.633
   46        0.866   1.766   0.000   2.631
   47        0.865   1.761   0.000   2.626
   48        0.865   1.761   0.000   2.626
   49        0.863   1.751   0.000   2.614
   50        0.878   1.670   0.000   2.548
   51        0.879   1.654   0.000   2.533
   52        0.867   1.654   0.000   2.521
   53        0.870   1.665   0.000   2.534
   54        0.869   1.660   0.000   2.529
   55        1.233   2.652   0.000   3.885
   56        1.256   2.604   0.000   3.860
   57        0.574   0.555   9.817  10.945
   58        0.525   0.722   6.020   7.267
--------------------------------------------------
tot         50.338 100.734  15.837 166.909
 


 magnetization (x)
 
# of ion       s       p       d       tot
------------------------------------------
    1        0.004   0.036   0.000   0.039
    2        0.002   0.025   0.000   0.027
    3       -0.002  -0.026   0.000  -0.028
    4       -0.006  -0.092   0.000  -0.098
    5        0.003   0.034   0.000   0.037
    6        0.002   0.020   0.000   0.022
    7       -0.006  -0.040   0.000  -0.046
    8        0.002   0.018   0.000   0.020
    9        0.001   0.017   0.000   0.018
   10       -0.005  -0.040   0.000  -0.045
   11       -0.001  -0.014   0.000  -0.015
   12        0.002   0.026   0.000   0.028
   13        0.002   0.018   0.000   0.020
   14       -0.003  -0.035   0.000  -0.037
   15        0.003   0.031   0.000   0.034
   16        0.002   0.027   0.000   0.030
   17       -0.003  -0.040   0.000  -0.044
   18       -0.005  -0.072   0.000  -0.077
   19        0.003   0.037   0.000   0.040
   20        0.004   0.049   0.000   0.053
   21       -0.006  -0.039   0.000  -0.045
   22       -0.006  -0.053   0.000  -0.059
   23        0.003   0.043   0.000   0.046
   24       -0.003  -0.024   0.000  -0.027
   25       -0.001  -0.010   0.000  -0.011
   26       -0.001  -0.029   0.000  -0.030
   27        0.008   0.071   0.000   0.079
   28        0.004   0.049   0.000   0.053
   29       -0.004  -0.043   0.000  -0.046
   30        0.002   0.021   0.000   0.023
   31        0.004   0.057   0.000   0.060
   32       -0.003  -0.027   0.000  -0.029
   33       -0.003  -0.033   0.000  -0.036
   34        0.002   0.023   0.000   0.024
   35        0.002   0.030   0.000   0.032
   36       -0.003  -0.029   0.000  -0.032
   37       -0.001  -0.015   0.000  -0.017
   38        0.002   0.022   0.000   0.024
   39        0.000   0.011   0.000   0.012
   40       -0.001  -0.010   0.000  -0.011
   41       -0.002  -0.012   0.000  -0.014
   42        0.002   0.022   0.000   0.024
   43        0.002   0.028   0.000   0.030
   44       -0.001  -0.016   0.000  -0.017
   45       -0.002  -0.019   0.000  -0.021
   46        0.002   0.026   0.000   0.028
   47        0.004   0.058   0.000   0.062
   48       -0.003  -0.033   0.000  -0.036
   49       -0.002  -0.030   0.000  -0.033
   50       -0.048  -0.270   0.000  -0.318
   51       -0.015  -0.074   0.000  -0.089
   52       -0.039  -0.232   0.000  -0.271
   53       -0.003   0.042   0.000   0.039
   54       -0.019  -0.120   0.000  -0.138
   55       -0.001   0.056   0.000   0.055
   56       -0.006  -0.008   0.000  -0.013
   57        0.026  -0.012  -0.120  -0.106
   58        0.058   0.029   2.861   2.949
--------------------------------------------------
tot         -0.050  -0.569   2.741   2.122
 

 total amount of memory used by VASP MPI-rank0   133065. kBytes
=======================================================================

   base      :      30000. kBytes
   nonl-proj :       3779. kBytes
   fftplans  :      12931. kBytes
   grid      :      33177. kBytes
   one-center:         62. kBytes
   HF        :         23. kBytes
   nonlr-proj:      14828. kBytes
   wavefun   :      38265. kBytes
 
  
  
 General timing and accounting informations for this job:
 ========================================================
  
                  Total CPU time used (sec):     5759.997
                            User time (sec):     5743.349
                          System time (sec):       16.648
                         Elapsed time (sec):     5765.556
  
                   Maximum memory used (kb):      367020.
                   Average memory used (kb):           0.
  
                          Minor page faults:       436066
                          Major page faults:            0
                 Voluntary context switches:          973
