 vasp.5.4.4.18Apr17-6-g9f103f2a35 (build Feb 25 2019 10:51:38) complex          
  
 executed on             LinuxIFC date 2021.07.23  15:56:38
 running on   32 total cores
 distrk:  each k-point on   32 cores,    1 groups
 distr:  one band on NCORES_PER_BAND=  32 cores,    1 groups


--------------------------------------------------------------------------------------------------------


 INCAR:
 POTCAR:    PAW_PBE C 08Apr2002                   
 POTCAR:    PAW_PBE N 08Apr2002                   
 POTCAR:    PAW_PBE Fe 06Sep2000                  
 POTCAR:    PAW_PBE V 08Apr2002                   

 ----------------------------------------------------------------------------- 
|                                                                             |
|           W    W    AA    RRRRR   N    N  II  N    N   GGGG   !!!           |
|           W    W   A  A   R    R  NN   N  II  NN   N  G    G  !!!           |
|           W    W  A    A  R    R  N N  N  II  N N  N  G       !!!           |
|           W WW W  AAAAAA  RRRRR   N  N N  II  N  N N  G  GGG   !            |
|           WW  WW  A    A  R   R   N   NN  II  N   NN  G    G                |
|           W    W  A    A  R    R  N    N  II  N    N   GGGG   !!!           |
|                                                                             |
|      For optimal performance we recommend to set                            |
|        NCORE= 4 - approx SQRT( number of cores)                             |
|      NCORE specifies how many cores store one orbital (NPAR=cpu/NCORE).     |
|      This setting can  greatly improve the performance of VASP for DFT.     |
|      The default,   NCORE=1            might be grossly inefficient         |
|      on modern multi-core architectures or massively parallel machines.     |
|      Do your own testing !!!!                                               |
|      Unfortunately you need to use the default for GW and RPA calculations. |
|      (for HF NCORE is supported but not extensively tested yet)             |
|                                                                             |
 ----------------------------------------------------------------------------- 

 POTCAR:    PAW_PBE C 08Apr2002                   
   VRHFIN =C: s2p2                                                              
   LEXCH  = PE                                                                  
   EATOM  =   147.1560 eV,   10.8157 Ry                                         
                                                                                
   TITEL  = PAW_PBE C 08Apr2002                                                 
   LULTRA =        F    use ultrasoft PP ?                                      
   IUNSCR =        1    unscreen: 0-lin 1-nonlin 2-no                           
   RPACOR =    1.200    partial core radius                                     
   POMASS =   12.011; ZVAL   =    4.000    mass and valenz                      
   RCORE  =    1.500    outmost cutoff radius                                   
   RWIGS  =    1.630; RWIGS  =    0.863    wigner-seitz radius (au A)           
   ENMAX  =  400.000; ENMIN  =  300.000 eV                                      
   ICORE  =        2    local potential                                         
   LCOR   =        T    correct aug charges                                     
   LPAW   =        T    paw PP                                                  
   EAUG   =  644.873                                                            
   DEXC   =    0.000                                                            
   RMAX   =    1.529    core radius for proj-oper                               
   RAUG   =    1.300    factor for augmentation sphere                          
   RDEP   =    1.501    radius for radial grids                                 
   RDEPT  =    1.300    core radius for aug-charge                              
                                                                                
   Atomic configuration                                                         
    4 entries                                                                   
     n  l   j            E        occ.                                          
     1  0  0.50      -273.3789   2.0000                                         
     2  0  0.50       -13.7508   2.0000                                         
     2  1  0.50        -5.2854   2.0000                                         
     3  2  1.50        -5.4423   0.0000                                         
   Description                                                                  
     l       E           TYP  RCUT    TYP  RCUT                                 
     0    -13.7508458     23  1.200                                             
     0     -8.2022199     23  1.200                                             
     1     -5.2854383     23  1.500                                             
     1     34.0145650     23  1.500                                             
     2     -5.4423304      7  1.500                                             
  local pseudopotential read in
  partial core-charges read in
  partial kinetic energy density read in
  atomic valenz-charges read in
  non local Contribution for L=           0  read in
    real space projection operators read in
  non local Contribution for L=           0  read in
    real space projection operators read in
  non local Contribution for L=           1  read in
    real space projection operators read in
  non local Contribution for L=           1  read in
    real space projection operators read in
    PAW grid and wavefunctions read in
 
   number of l-projection  operators is LMAX  =           4
   number of lm-projection operators is LMMAX =           8
 
 POTCAR:    PAW_PBE N 08Apr2002                   
   VRHFIN =N: s2p3                                                              
   LEXCH  = PE                                                                  
   EATOM  =   264.5486 eV,   19.4438 Ry                                         
                                                                                
   TITEL  = PAW_PBE N 08Apr2002                                                 
   LULTRA =        F    use ultrasoft PP ?                                      
   IUNSCR =        1    unscreen: 0-lin 1-nonlin 2-no                           
   RPACOR =    1.200    partial core radius                                     
   POMASS =   14.001; ZVAL   =    5.000    mass and valenz                      
   RCORE  =    1.500    outmost cutoff radius                                   
   RWIGS  =    1.400; RWIGS  =    0.741    wigner-seitz radius (au A)           
   ENMAX  =  400.000; ENMIN  =  300.000 eV                                      
   ICORE  =        2    local potential                                         
   LCOR   =        T    correct aug charges                                     
   LPAW   =        T    paw PP                                                  
   EAUG   =  627.112                                                            
   DEXC   =    0.000                                                            
   RMAX   =    1.529    core radius for proj-oper                               
   RAUG   =    1.300    factor for augmentation sphere                          
   RDEP   =    1.514    radius for radial grids                                 
   RDEPT  =    1.338    core radius for aug-charge                              
                                                                                
   Atomic configuration                                                         
    4 entries                                                                   
     n  l   j            E        occ.                                          
     1  0  0.50      -384.7179   2.0000                                         
     2  0  0.50       -18.5828   2.0000                                         
     2  1  0.50        -7.0898   3.0000                                         
     3  2  1.50        -6.8029   0.0000                                         
   Description                                                                  
     l       E           TYP  RCUT    TYP  RCUT                                 
     0    -18.5828119     23  1.200                                             
     0    -13.5018863     23  1.200                                             
     1     -7.0897853     23  1.500                                             
     1      9.5240782     23  1.500                                             
     2     -6.8029130      7  1.500                                             
  local pseudopotential read in
  partial core-charges read in
  partial kinetic energy density read in
  atomic valenz-charges read in
  non local Contribution for L=           0  read in
    real space projection operators read in
  non local Contribution for L=           0  read in
    real space projection operators read in
  non local Contribution for L=           1  read in
    real space projection operators read in
  non local Contribution for L=           1  read in
    real space projection operators read in
    PAW grid and wavefunctions read in
 
   number of l-projection  operators is LMAX  =           4
   number of lm-projection operators is LMMAX =           8
 
 POTCAR:    PAW_PBE Fe 06Sep2000                  
   VRHFIN =Fe:  d7 s1                                                           
   LEXCH  = PE                                                                  
   EATOM  =   594.3153 eV,   43.6809 Ry                                         
                                                                                
   TITEL  = PAW_PBE Fe 06Sep2000                                                
   LULTRA =        F    use ultrasoft PP ?                                      
   IUNSCR =        1    unscreen: 0-lin 1-nonlin 2-no                           
   RPACOR =    2.000    partial core radius                                     
   POMASS =   55.847; ZVAL   =    8.000    mass and valenz                      
   RCORE  =    2.300    outmost cutoff radius                                   
   RWIGS  =    2.460; RWIGS  =    1.302    wigner-seitz radius (au A)           
   ENMAX  =  267.882; ENMIN  =  200.911 eV                                      
   RCLOC  =    1.701    cutoff for local pot                                    
   LCOR   =        T    correct aug charges                                     
   LPAW   =        T    paw PP                                                  
   EAUG   =  511.368                                                            
   DEXC   =    0.000                                                            
   RMAX   =    2.356    core radius for proj-oper                               
   RAUG   =    1.300    factor for augmentation sphere                          
   RDEP   =    2.442    radius for radial grids                                 
   RDEPT  =    1.890    core radius for aug-charge                              
                                                                                
   Atomic configuration                                                         
    9 entries                                                                   
     n  l   j            E        occ.                                          
     1  0  0.50     -6993.8440   2.0000                                         
     2  0  0.50      -814.6047   2.0000                                         
     2  1  1.50      -693.3689   6.0000                                         
     3  0  0.50       -89.4732   2.0000                                         
     3  1  1.50       -55.6373   6.0000                                         
     3  2  2.50        -3.8151   7.0000                                         
     4  0  0.50        -4.2551   1.0000                                         
     4  1  1.50        -3.4015   0.0000                                         
     4  3  2.50        -1.3606   0.0000                                         
   Description                                                                  
     l       E           TYP  RCUT    TYP  RCUT                                 
     2     -3.8151135     23  2.300                                             
     2     -5.1756961     23  2.300                                             
     0     -4.2550963     23  2.300                                             
     0      7.2035603     23  2.300                                             
     1     -2.7211652     23  2.300                                             
     1     18.4316424     23  2.300                                             
  local pseudopotential read in
  partial core-charges read in
  partial kinetic energy density read in
  atomic valenz-charges read in
  non local Contribution for L=           2  read in
    real space projection operators read in
  non local Contribution for L=           2  read in
    real space projection operators read in
  non local Contribution for L=           0  read in
    real space projection operators read in
  non local Contribution for L=           0  read in
    real space projection operators read in
  non local Contribution for L=           1  read in
    real space projection operators read in
  non local Contribution for L=           1  read in
    real space projection operators read in
    PAW grid and wavefunctions read in
 
   number of l-projection  operators is LMAX  =           6
   number of lm-projection operators is LMMAX =          18
 
 POTCAR:    PAW_PBE V 08Apr2002                   
   VRHFIN =V: p6 d4 s1                                                          
   LEXCH  = PE                                                                  
   EATOM  =   170.8679 eV,   12.5584 Ry                                         
                                                                                
   TITEL  = PAW_PBE V 08Apr2002                                                 
   LULTRA =        F    use ultrasoft PP ?                                      
   IUNSCR =        1    unscreen: 0-lin 1-nonlin 2-no                           
   RPACOR =    2.000    partial core radius                                     
   POMASS =   50.941; ZVAL   =    5.000    mass and valenz                      
   RCORE  =    2.700    outmost cutoff radius                                   
   RWIGS  =    2.500; RWIGS  =    1.323    wigner-seitz radius (au A)           
   ENMAX  =  192.543; ENMIN  =  144.408 eV                                      
   RCLOC  =    1.779    cutoff for local pot                                    
   LCOR   =        T    correct aug charges                                     
   LPAW   =        T    paw PP                                                  
   EAUG   =  358.662                                                            
   DEXC   =    0.000                                                            
   RMAX   =    2.768    core radius for proj-oper                               
   RAUG   =    1.300    factor for augmentation sphere                          
   RDEP   =    2.762    radius for radial grids                                 
   RDEPT  =    2.240    core radius for aug-charge                              
                                                                                
   Atomic configuration                                                         
    9 entries                                                                   
     n  l   j            E        occ.                                          
     1  0  0.50     -5360.7193   2.0000                                         
     2  0  0.50      -598.4546   2.0000                                         
     2  1  1.50      -499.0155   6.0000                                         
     3  0  0.50       -66.5711   2.0000                                         
     3  1  1.50       -40.5282   6.0000                                         
     3  2  2.50        -2.4291   4.0000                                         
     4  0  0.50        -3.8743   1.0000                                         
     4  1  0.50        -2.7212   0.0000                                         
     4  3  2.50        -1.3606   0.0000                                         
   Description                                                                  
     l       E           TYP  RCUT    TYP  RCUT                                 
     2     -2.4290901     23  2.700                                             
     2     -3.7896727     23  2.700                                             
     0     -3.8742752     23  2.700                                             
     0     27.2116520     23  2.700                                             
     1     -2.7211652     23  2.700                                             
     1     27.2116520     23  2.700                                             
  local pseudopotential read in
  partial core-charges read in
  partial kinetic energy density read in
  atomic valenz-charges read in
  non local Contribution for L=           2  read in
    real space projection operators read in
  non local Contribution for L=           2  read in
    real space projection operators read in
  non local Contribution for L=           0  read in
    real space projection operators read in
  non local Contribution for L=           0  read in
    real space projection operators read in
  non local Contribution for L=           1  read in
    real space projection operators read in
  non local Contribution for L=           1  read in
    real space projection operators read in
    PAW grid and wavefunctions read in
 
   number of l-projection  operators is LMAX  =           6
   number of lm-projection operators is LMMAX =          18
 

 ----------------------------------------------------------------------------- 
|                                                                             |
|  ADVICE TO THIS USER RUNNING 'VASP/VAMP'   (HEAR YOUR MASTER'S VOICE ...):  |
|                                                                             |
|      You have a (more or less) 'large supercell' and for larger cells       |
|      it might be more efficient to use real space projection opertators     |
|      So try LREAL= Auto  in the INCAR   file.                               |
|      Mind:          For very  accurate calculation you might also keep the  |
|      reciprocal projection scheme          (i.e. LREAL=.FALSE.)             |
|                                                                             |
 ----------------------------------------------------------------------------- 

  PAW_PBE C 08Apr2002                   :
 energy of atom  1       EATOM= -147.1560
 kinetic energy error for atom=    0.0076 (will be added to EATOM!!)
  PAW_PBE N 08Apr2002                   :
 energy of atom  2       EATOM= -264.5486
 kinetic energy error for atom=    0.0138 (will be added to EATOM!!)
  PAW_PBE Fe 06Sep2000                  :
 energy of atom  3       EATOM= -594.3153
 kinetic energy error for atom=    0.0026 (will be added to EATOM!!)
  PAW_PBE V 08Apr2002                   :
 energy of atom  4       EATOM= -170.8679
 kinetic energy error for atom=    0.0003 (will be added to EATOM!!)
 
 
 POSCAR:  C  N Fe  V                             
  positions in cartesian coordinates
  No initial velocities read in
 exchange correlation table for  LEXCH =        8
   RHO(1)=    0.500       N(1)  =     2000
   RHO(2)=  100.500       N(2)  =     4000

 VTST: version 3.2, (02/03/18)

 CHAIN: initializing optimizer
 
 OPT: Using VASP Conjugate-Gradient optimizer
 CHAIN: Read ICHAIN            0
 
 POSCAR:  C  N Fe  V                             
  positions in cartesian coordinates
  No initial velocities read in
 


--------------------------------------------------------------------------------------------------------


 ion  position               nearest neighbor table
   1  0.222  0.998  0.501-   3 1.42  17 1.43   4 1.43
   2  0.054  0.098  0.500-  34 1.42   7 1.43   3 1.44
   3  0.111  0.998  0.501-   1 1.42  15 1.43   2 1.44
   4  0.277  0.097  0.501-  19 1.42   5 1.42   1 1.43
   5  0.221  0.195  0.500-   7 1.42   4 1.42   8 1.43
   6  0.053  0.298  0.500-  38 1.42  10 1.44   7 1.44
   7  0.109  0.197  0.500-   5 1.42   2 1.43   6 1.44
   8  0.276  0.293  0.500-  51 1.42   5 1.43  53 1.43  57 2.50
   9  0.057  0.498  0.498-  42 1.42  10 1.44  12 1.46
  10  0.110  0.396  0.499-  51 1.39   6 1.44   9 1.44
  11  0.059  0.698  0.500-  46 1.42  16 1.44  12 1.46
  12  0.117  0.597  0.498-  52 1.43  11 1.46   9 1.46
  13  0.280  0.700  0.500-  52 1.42  14 1.43  25 1.44
  14  0.224  0.799  0.501-  16 1.42  13 1.43  17 1.43
  15  0.057  0.898  0.501-  50 1.41   3 1.43  16 1.44
  16  0.113  0.798  0.501-  14 1.42  11 1.44  15 1.44
  17  0.278  0.899  0.501-  28 1.42   1 1.43  14 1.43
  18  0.556  1.000  0.501-  20 1.42  30 1.42  21 1.43
  19  0.389  0.099  0.501-   4 1.42  20 1.43  23 1.44
  20  0.445  0.999  0.501-  18 1.42  19 1.43  28 1.43
  21  0.611  0.099  0.501-  32 1.41  22 1.42  18 1.43
  22  0.556  0.198  0.504-  55 1.38  21 1.42  23 1.43
  23  0.443  0.199  0.502-  53 1.43  22 1.43  19 1.44
  24  0.559  0.607  0.495-  56 1.39  26 1.42  54 1.42  58 2.46
  25  0.393  0.700  0.500-  54 1.43  29 1.43  13 1.44
  26  0.614  0.705  0.499-  44 1.41  27 1.42  24 1.42
  27  0.558  0.803  0.500-  29 1.41  26 1.42  30 1.43
  28  0.390  0.900  0.501-  17 1.42  29 1.43  20 1.43
  29  0.446  0.800  0.501-  27 1.41  28 1.43  25 1.43
  30  0.612  0.901  0.500-  48 1.41  18 1.42  27 1.43
  31  0.889  0.999  0.500-  33 1.41  34 1.43  50 1.44
  32  0.722  0.100  0.501-  21 1.41  37 1.43  33 1.43
  33  0.778  0.000  0.500-  31 1.41  48 1.43  32 1.43
  34  0.943  0.099  0.500-   2 1.42  31 1.43  35 1.45
  35  0.886  0.200  0.501-  37 1.42  38 1.43  34 1.45
  36  0.715  0.300  0.503-  55 1.38  37 1.45  41 1.47
  37  0.774  0.200  0.502-  35 1.42  32 1.43  36 1.45
  38  0.941  0.299  0.501-   6 1.42  35 1.43  39 1.44
  39  0.885  0.400  0.501-  41 1.44  38 1.44  42 1.46
  40  0.721  0.504  0.497-  56 1.35  45 1.44  41 1.45
  41  0.772  0.401  0.501-  39 1.44  40 1.45  36 1.47
  42  0.945  0.499  0.499-   9 1.42  43 1.44  39 1.46
  43  0.891  0.600  0.499-  45 1.41  46 1.44  42 1.44
  44  0.725  0.703  0.498-  26 1.41  49 1.43  45 1.44
  45  0.780  0.602  0.498-  43 1.41  44 1.44  40 1.44
  46  0.947  0.699  0.500-  11 1.42  43 1.44  47 1.44
  47  0.892  0.799  0.500-  49 1.42  50 1.43  46 1.44
  48  0.724  0.901  0.500-  30 1.41  33 1.43  49 1.44
  49  0.780  0.801  0.499-  47 1.42  44 1.43  48 1.44
  50  0.946  0.899  0.500-  15 1.41  47 1.43  31 1.44
  51  0.220  0.391  0.497-  10 1.39   8 1.42  57 1.84
  52  0.229  0.599  0.497-  13 1.42  12 1.43  57 1.97
  53  0.389  0.299  0.502-  23 1.43   8 1.43  58 2.11  57 2.45
  54  0.447  0.600  0.496-  24 1.42  25 1.43  57 2.13  58 2.28
  55  0.606  0.296  0.508-  22 1.38  36 1.38  58 2.20
  56  0.615  0.512  0.493-  40 1.35  24 1.39  58 1.97
  57  0.330  0.482  0.481-  51 1.84  52 1.97  54 2.13  58 2.28  53 2.45   8 2.50
  58  0.492  0.427  0.519-  56 1.97  53 2.11  55 2.20  54 2.28  57 2.28  24 2.46
 
  LATTYP: Found a triclinic cell.
 ALAT       =    34.4351727823
 B/A-ratio  =     0.3649408144
 C/A-ratio  =     0.5786002622
 COS(alpha) =     0.0001658063
 COS(beta)  =     0.5790441199
 COS(gamma) =     0.7273807275
  
  Lattice vectors:
  
 A1 = (  12.5287256046, -25.1364024894, -19.9241920579)
 A2 = (  -0.0885655431, -12.5664879097,   0.0000000000)
 A3 = (   0.0174566909,  -0.0034266700, -19.9241920579)


Analysis of symmetry for initial positions (statically):
=====================================================================
 Subroutine PRICEL returns:
 Original cell was already a primitive cell.
 

 Routine SETGRP: Setting up the symmetry group for a 
 triclinic supercell.


 Subroutine GETGRP returns: Found  1 space group operations
 (whereof  1 operations were pure point group operations)
 out of a pool of  2 trial point group operations.


The static configuration has the point symmetry C_1 .


Analysis of symmetry for dynamics (positions and initial velocities):
=====================================================================
 Subroutine PRICEL returns:
 Original cell was already a primitive cell.
 

 Routine SETGRP: Setting up the symmetry group for a 
 triclinic supercell.


 Subroutine GETGRP returns: Found  1 space group operations
 (whereof  1 operations were pure point group operations)
 out of a pool of  2 trial point group operations.


The dynamic configuration has the point symmetry C_1 .


Analysis of structural, dynamic, and magnetic symmetry:
=====================================================================
 Subroutine PRICEL returns:
 Original cell was already a primitive cell.
 

 Routine SETGRP: Setting up the symmetry group for a 
 triclinic supercell.


 Subroutine GETGRP returns: Found  1 space group operations
 (whereof  1 operations were pure point group operations)
 out of a pool of  2 trial point group operations.


The magnetic configuration has the point symmetry C_1 .


 Subroutine INISYM returns: Found  1 space group operations
 (whereof  1 operations are pure point group operations),
 and found     1 'primitive' translations

 
 
 KPOINTS: KPOINTS created by Atomic Simulation Env

Automatic generation of k-mesh.
Space group operators:
 irot       det(A)        alpha          n_x          n_y          n_z        tau_x        tau_y        tau_z
    1     1.000000     0.000000     1.000000     0.000000     0.000000     0.000000     0.000000     0.000000
 
 Subroutine IBZKPT returns following result:
 ===========================================
 
 Found      2 irreducible k-points:
 
 Following reciprocal coordinates:
            Coordinates               Weight
  0.250000  0.250000 -0.000000      2.000000
 -0.250000  0.250000  0.000000      2.000000
 
 Following cartesian coordinates:
            Coordinates               Weight
  0.019703  0.019755  0.000014      2.000000
 -0.019703  0.020033 -0.000021      2.000000
 
 
 Subroutine IBZKPT_HF returns following result:
 ==============================================
 
 Found      4 k-points in 1st BZ
 the following      4 k-points will be used (e.g. in the exchange kernel)
 Following reciprocal coordinates:   # in IRBZ
  0.250000  0.250000 -0.000000    0.25000000   1 t-inv F
 -0.250000  0.250000  0.000000    0.25000000   2 t-inv F
 -0.250000 -0.250000  0.000000    0.25000000   1 t-inv T
  0.250000 -0.250000 -0.000000    0.25000000   2 t-inv T


--------------------------------------------------------------------------------------------------------




 Dimension of arrays:
   k-points           NKPTS =      2   k-points in BZ     NKDIM =      4   number of bands    NBANDS=    153
   number of dos      NEDOS =    301   number of ions     NIONS =     58
   non local maximal  LDIM  =      6   non local SUM 2l+1 LMDIM =     18
   total plane-waves  NPLWV = ******
   max r-space proj   IRMAX =      1   max aug-charges    IRDMAX=  26585
   dimension x,y,z NGX =    96 NGY =   96 NGZ =  150
   dimension x,y,z NGXF=   192 NGYF=  192 NGZF=  300
   support grid    NGXF=   192 NGYF=  192 NGZF=  300
   ions per type =              54   2   1   1
   NGX,Y,Z   is equivalent  to a cutoff of  12.58, 12.70, 12.52 a.u.
   NGXF,Y,Z  is equivalent  to a cutoff of  25.16, 25.40, 25.03 a.u.

 SYSTEM =  unknown system                          
 POSCAR =   C  N Fe  V                             

 Startparameter for this run:
   NWRITE =      2    write-flag & timer
   PREC   = accura    normal or accurate (medium, high low for compatibility)
   ISTART =      1    job   : 0-new  1-cont  2-samecut
   ICHARG =      0    charge: 1-file 2-atom 10-const
   ISPIN  =      2    spin polarized calculation?
   LNONCOLLINEAR =      F non collinear calculations
   LSORBIT =      F    spin-orbit coupling
   INIWAV =      1    electr: 0-lowe 1-rand  2-diag
   LASPH  =      T    aspherical Exc in radial PAW
   METAGGA=      F    non-selfconsistent MetaGGA calc.

 Electronic Relaxation 1
   ENCUT  =  500.0 eV  36.75 Ry    6.06 a.u.  23.13 22.91 36.33*2*pi/ulx,y,z
   ENINI  =  500.0     initial cutoff
   ENAUG  =  644.9 eV  augmentation charge cutoff
   NELM   =    250;   NELMIN=  2; NELMDL=  0     # of ELM steps 
   EDIFF  = 0.1E-03   stopping-criterion for ELM
   LREAL  =      F    real-space projection
   NLSPLINE    = F    spline interpolate recip. space projectors
   LCOMPAT=      F    compatible to vasp.4.4
   GGA_COMPAT  = T    GGA compatible to vasp.4.4-vasp.4.6
   LMAXPAW     = -100 max onsite density
   LMAXMIX     =    2 max onsite mixed and CHGCAR
   VOSKOWN=      0    Vosko Wilk Nusair interpolation
   ROPT   =    0.00000   0.00000   0.00000   0.00000
 Ionic relaxation
   EDIFFG = -.3E-01   stopping-criterion for IOM
   NSW    =      0    number of steps for IOM
   NBLOCK =      1;   KBLOCK =      1    inner block; outer block 
   IBRION =     -1    ionic relax: 0-MD 1-quasi-New 2-CG
   NFREE  =      1    steps in history (QN), initial steepest desc. (CG)
   ISIF   =      2    stress and relaxation
   IWAVPR =     10    prediction:  0-non 1-charg 2-wave 3-comb
   ISYM   =      3    0-nonsym 1-usesym 2-fastsym
   LCORR  =      T    Harris-Foulkes like correction to forces

   POTIM  = 0.5000    time-step for ionic-motion
   TEIN   =    0.0    initial temperature
   TEBEG  =    0.0;   TEEND  =   0.0 temperature during run
   SMASS  =  -3.00    Nose mass-parameter (am)
   estimated Nose-frequenzy (Omega)   =  0.10E-29 period in steps =****** mass=  -0.368E-26a.u.
   SCALEE = 1.0000    scale energy and forces
   NPACO  =    256;   APACO  = 16.0  distance and # of slots for P.C.
   PSTRESS=    0.0 pullay stress

  Mass of Ions in am
   POMASS =  12.01 14.00 55.85 50.94
  Ionic Valenz
   ZVAL   =   4.00  5.00  8.00  5.00
  Atomic Wigner-Seitz radii
   RWIGS  =  -1.00 -1.00 -1.00 -1.00
  virtual crystal weights 
   VCA    =   1.00  1.00  1.00  1.00
   NELECT =     239.0000    total number of electrons
   NUPDOWN=      -1.0000    fix difference up-down

 DOS related values:
   EMIN   =  10.00;   EMAX   =-10.00  energy-range for DOS
   EFERMI =   0.00
   ISMEAR =     0;   SIGMA  =   0.10  broadening in eV -4-tet -1-fermi 0-gaus

 Electronic relaxation 2 (details)
   IALGO  =     53    algorithm
   LDIAG  =      T    sub-space diagonalisation (order eigenvalues)
   LSUBROT=      F    optimize rotation matrix (better conditioning)
   TURBO    =      0    0=normal 1=particle mesh
   IRESTART =      0    0=no restart 2=restart with 2 vectors
   NREBOOT  =      0    no. of reboots
   NMIN     =      0    reboot dimension
   EREF     =   0.00    reference energy to select bands
   IMIX   =      4    mixing-type and parameters
     AMIX     =   0.40;   BMIX     =  1.00
     AMIX_MAG =   1.60;   BMIX_MAG =  1.00
     AMIN     =   0.10
     WC   =   100.;   INIMIX=   1;  MIXPRE=   1;  MAXMIX= -45

 Intra band minimization:
   WEIMIN = 0.0000     energy-eigenvalue tresh-hold
   EBREAK =  0.16E-06  absolut break condition
   DEPER  =   0.30     relativ break condition  

   TIME   =   0.20     timestep for ELM

  volume/ion in A,a.u.               =      54.77       369.63
  Fermi-wavevector in a.u.,A,eV,Ry     =   0.691099  1.305988  6.498386  0.477618
  Thomas-Fermi vector in A             =   1.772654
 
 Write flags
   LWAVE        =      T    write WAVECAR
   LDOWNSAMPLE  =      F    k-point downsampling of WAVECAR
   LCHARG       =      T    write CHGCAR
   LVTOT        =      F    write LOCPOT, total local potential
   LVHAR        =      F    write LOCPOT, Hartree potential only
   LELF         =      F    write electronic localiz. function (ELF)
   LORBIT       =     11    0 simple, 1 ext, 2 COOP (PROOUT), +10 PAW based schemes


 Dipole corrections
   LMONO  =      F    monopole corrections only (constant potential shift)
   LDIPOL =      T    correct potential (dipole corrections)
   IDIPOL =      3    1-x, 2-y, 3-z, 4-all directions 
   EPSILON=  1.0000000 bulk dielectric constant

 Exchange correlation treatment:
   GGA     =    PE    GGA type
   LEXCH   =     8    internal setting for exchange type
   VOSKOWN=      0    Vosko Wilk Nusair interpolation
   EXXOEP  =     0    0=HF, 1=EXX-LHF (local Hartree Fock) 2=EXX OEP
   LHFCALC =     T    Hartree Fock is set to
   LSYMGRAD=     F    symmetrize gradient (conserves proper symmetry)
   PRECFOCK=normal    Normal, Fast or Accurate (Low or Medium for compatibility)
   LRHFCALC=     F    long range Hartree Fock
   LRSCOR  =     F    long range correlation only (use DFT for short range part)
   LTHOMAS =     F    Thomas Fermi screening in HF
   LMODELHF=     F    short range full HF, long range fraction AEXX
   ENCUT4O =  -1.0   cutoff for four orbital integrals eV
   LMAXFOCK=     4    L truncation for augmentation on plane wave grid
   LMAXFOCKAE=  -1    L truncation for all-electron charge restoration on plane wave grid
   NMAXFOCKAE=   1    number of basis functions for all-electron charge restoration
   LFOCKAEDFT=     F  apply the AE augmentation even for DFT
   NKREDX  =     1    reduce k-point grid by
   NKREDY  =     1    reduce k-point grid by
   NKREDZ  =     1    reduce k-point grid by
   SHIFTRED=     F    shift reduced grid of Gamma
   HFKIDENT=     F    idential grid for each k-point
   ODDONLY =     F    use only odd q-grid points
   EVENONLY=     F    use only even q-grid points
   HFALPHA =   -1.0000 decay constant for conv. correction
   MCALPHA =    0.0000 extent of test-charge in conv. correction in multipole expansion
   AEXX    =    0.2500 exact exchange contribution
   HFSCREEN=    0.2000 screening length (either q_TF or 0.3 A-1)
   HFSCREENC=   0.2000 screening length for correlation (either q_TF or 0.3 A-1)
   HFRCUT  =    0.0000 spherical cutoff for potential kernel
   ALDAX   =    0.7500 LDA exchange part
   AGGAX   =    0.7500 GGA exchange part
   ALDAC   =    1.0000 LDA correlation
   AGGAC   =    1.0000 GGA correlation
   ENCUTFOCK=  -1.0 apply spherical cutoff to Coloumb kernel
   NBANDSGWLOW=     1    first orbital included in HF term
   NBLOCK_FOCK=    64    blocking factor in FOCK_ACC
 Linear response parameters
   LEPSILON=     F    determine dielectric tensor
   LRPA    =     F    only Hartree local field effects (RPA)
   LNABLA  =     F    use nabla operator in PAW spheres
   LVEL    =     F    velocity operator in full k-point grid
   LINTERFAST=   F  fast interpolation
   KINTER  =     0    interpolate to denser k-point grid
   CSHIFT  =0.1000    complex shift for real part using Kramers Kronig
   OMEGAMAX=  -1.0    maximum frequency
   DEG_THRESHOLD= 0.2000000E-02 threshold for treating states as degnerate
   RTIME   =   -0.100 relaxation time in fs
  (WPLASMAI=    0.000 imaginary part of plasma frequency in eV, 0.658/RTIME)
   DFIELD  = 0.0000000 0.0000000 0.0000000 field for delta impulse in time
 
 Orbital magnetization related:
   ORBITALMAG=     F  switch on orbital magnetization
   LCHIMAG   =     F  perturbation theory with respect to B field
   DQ        =  0.001000  dq finite difference perturbation B field
   LLRAUG    =     F  two centre corrections for induced B field



--------------------------------------------------------------------------------------------------------


 Static calculation
 charge density and potential will be updated during run
 spin polarized calculation
 Conjugate gradient for all bands (Freysoldt, et al. PRB 79, 241103 (2009))
 perform sub-space diagonalisation
    before iterative eigenvector-optimisation
 modified Broyden-mixing scheme, WC =      100.0
 initial mixing is a Kerker type mixing with AMIX =  0.4000 and BMIX =      1.0000
 Hartree-type preconditioning will be used
 using additional bands           33
 reciprocal scheme for non local part
 use partial core corrections
 no Harris-corrections to forces 
 use gradient corrections 
 use of overlap-Matrix (Vanderbilt PP)
 Gauss-broadening in eV      SIGMA  =   0.10


--------------------------------------------------------------------------------------------------------


  energy-cutoff  :      500.00
  volume of cell :     3176.89
      direct lattice vectors                 reciprocal lattice vectors
    12.688400000  0.000000000  0.000000000     0.078812143 -0.000555449  0.000069147
     0.088565543 12.566487910  0.000000000     0.000000000  0.079576729 -0.000013686
    -0.017456691  0.003426670 19.924192058     0.000000000  0.000000000  0.050190241

  length of vectors
    12.688400000 12.566800000 19.924200000     0.078814131  0.079576730  0.050190241


 
 old parameters found on file WAVECAR:
  energy-cutoff  :      500.00
  volume of cell :     3176.89
      direct lattice vectors                 reciprocal lattice vectors
    12.688400000  0.000000000  0.000000000     0.078812143 -0.000555449  0.000069147
     0.088565543 12.566487910  0.000000000     0.000000000  0.079576729 -0.000013686
    -0.017456691  0.003426670 19.924192058     0.000000000  0.000000000  0.050190241

  length of vectors

 
 k-points in units of 2pi/SCALE and weight: KPOINTS created by Atomic Simulation Env
   0.01970304  0.01975532  0.00001387       0.500
  -0.01970304  0.02003304 -0.00002071       0.500
 
 k-points in reciprocal lattice and weights: KPOINTS created by Atomic Simulation Env
   0.25000000  0.25000000 -0.00000000       0.500
  -0.25000000  0.25000000  0.00000000       0.500
 
 position of ions in fractional coordinates (direct lattice) 
   0.22243944  0.99768794  0.50114084
   0.05430983  0.09811226  0.50044354
   0.11068511  0.99830163  0.50077662
   0.27720692  0.09666252  0.50079870
   0.22067433  0.19468337  0.50011201
   0.05320175  0.29751427  0.50041077
   0.10894447  0.19724449  0.50024449
   0.27626032  0.29310691  0.49963898
   0.05681731  0.49780324  0.49826218
   0.11017127  0.39610600  0.49869468
   0.05944081  0.69758739  0.49994377
   0.11682520  0.59679491  0.49823931
   0.28009265  0.69986420  0.50013346
   0.22424684  0.79902255  0.50127070
   0.05682865  0.89843189  0.50063042
   0.11269473  0.79819063  0.50072344
   0.27836639  0.89881209  0.50144930
   0.55602798  0.99989520  0.50070456
   0.38904181  0.09855956  0.50116091
   0.44450288  0.99908800  0.50112834
   0.61082711  0.09915989  0.50141453
   0.55627332  0.19832577  0.50379130
   0.44330310  0.19899267  0.50202146
   0.55930494  0.60680590  0.49496285
   0.39330904  0.69986556  0.50023124
   0.61411746  0.70505778  0.49872471
   0.55762814  0.80263917  0.50015552
   0.38989334  0.89962956  0.50122632
   0.44621519  0.80036802  0.50079818
   0.61240676  0.90145078  0.50017525
   0.88938238  0.99945224  0.50018727
   0.72206462  0.09967254  0.50119284
   0.77812082  0.00013670  0.50028133
   0.94262899  0.09948236  0.50040896
   0.88631622  0.19993246  0.50072243
   0.71459090  0.29957733  0.50340562
   0.77425344  0.20048979  0.50150908
   0.94129473  0.29914691  0.50087485
   0.88527442  0.39953008  0.50057285
   0.72096040  0.50438072  0.49723070
   0.77196935  0.40053981  0.50094318
   0.94476157  0.49868958  0.49943977
   0.89101358  0.59990123  0.49929803
   0.72521058  0.70251147  0.49846480
   0.77977150  0.60201652  0.49804165
   0.94726689  0.69886205  0.49982206
   0.89175264  0.79945941  0.49971251
   0.72388567  0.90070720  0.49982104
   0.78019787  0.80112125  0.49930694
   0.94555427  0.89934400  0.50008473
   0.21959599  0.39076387  0.49668168
   0.22935959  0.59935307  0.49684555
   0.38870741  0.29875091  0.50195397
   0.44741235  0.59950425  0.49596068
   0.60580068  0.29571602  0.50755663
   0.61516977  0.51161978  0.49307031
   0.33030035  0.48176015  0.48092982
   0.49164595  0.42746416  0.51882235
 
 position of ions in cartesian coordinates  (Angst):
   2.90201316 12.53915065  9.98482642
   0.68905814  1.23464134  9.97093321
   1.48409018 12.54686135  9.97756951
   3.51713095  1.21642440  9.97800946
   2.80851614  2.44819988  9.96432776
   0.69265907  3.74042419  9.97028036
   1.39106741  2.48038472  9.96696722
   3.52253861  3.68503653  9.95490295
   0.75631093  6.25734572  9.92747141
   1.42427296  4.97937012  9.93608851
   0.80726366  8.76793659  9.96097569
   1.52648267  7.50132330  9.92701566
   3.60718073  8.79654882  9.96475509
   2.90734896 10.04262492  9.98741366
   0.79189543 11.29184897  9.97465668
   1.49186699 10.03216877  9.97650997
   3.60287425 11.29662951  9.99097209
   7.13492101 12.56688668  9.97613378
   4.93629847  1.24026483  9.98522623
   5.71976702 12.55674450  9.98457737
   7.75044781  1.24780977  9.99027940
   7.06698875  2.49398474 10.03763460
   5.63366733  2.50235923 10.00237206
   7.14178644  7.62711513  9.86173491
   5.04371405  8.79656629  9.96670332
   7.84590570  8.86180899  9.93668695
   7.13776402 10.08806925  9.96519460
   5.01804914 11.30690147  9.98652939
   5.72389953 10.05953108  9.97799918
   7.84156804 11.32978426  9.96558771
  11.36462481 12.56131842  9.96582721
   9.16192309  1.25425125  9.98586232
   9.86438703  0.00343219  9.96770135
  11.96052895  1.25185864  9.97024429
  11.25490094  2.51416470  9.97648993
   9.08475960  3.76635993 10.02995036
   9.83303914  2.52117103  9.99216321
  11.96127449  3.76094239  9.97952675
  11.25936218  5.02240516  9.97350955
   9.18382468  6.33999806  9.90691994
   9.82178510  5.03509523  9.98088808
  12.02296083  6.26848796  9.95093383
  11.34995116  7.54036252  9.94810985
   9.25527864  8.82980992  9.93150831
   9.93867640  7.56693989  9.92307742
  12.07247107  8.78395421  9.95855079
  11.37699538 10.04810940  9.95636804
   9.25599740 11.32043891  9.95853032
   9.96169815 10.06899147  9.94828745
  12.06849191 11.30330917  9.96378412
   2.81225953  4.91223136  9.89598116
   2.95461497  7.53346559  9.89924609
   4.94977164  3.75596968 10.00102730
   5.72138443  7.53536239  9.88161586
   7.70397129  3.71785106 10.11265584
   7.84222459  6.43095342  9.82402763
   4.22525485  6.05568112  9.58213807
   6.26700220  5.37350107 10.33711616
 


--------------------------------------------------------------------------------------------------------


 k-point  1 :   0.2500 0.2500-0.0000  plane waves:   80672
 k-point  2 :  -0.2500 0.2500 0.0000  plane waves:   80655

 maximum and minimum number of plane-waves per node :      2565     2484

 maximum number of plane-waves:     80672
 maximum index in each direction: 
   IXMAX=   23   IYMAX=   22   IZMAX=   36
   IXMIN=  -23   IYMIN=  -23   IZMIN=  -36


 parallel 3D FFT for wavefunctions:
    minimum data exchange during FFTs selected (reduces bandwidth)
 parallel 3D FFT for charge:
    minimum data exchange during FFTs selected (reduces bandwidth)


 FFT grid for exact exchange (Hartree Fock) 
  NGX = 70; NGY = 70; NGZ =112

 
 Radii for the augmentation spheres in the non-local exchange
 for species   1 augmentation radius   0.874 (default was   0.699)
       energy cutoff for augmentation   2000.0
 for species   2 augmentation radius   0.886 (default was   0.709)
       energy cutoff for augmentation   2000.0
 for species   3 augmentation radius   1.263 (default was   1.010)
       energy cutoff for augmentation   2000.0
 for species   4 augmentation radius   1.508 (default was   1.206)
       energy cutoff for augmentation   2000.0

 real space projection operators:
  total allocation   :       2656.08 KBytes
  max/ min on nodes  :        123.74         39.59

 Maximum index for augmentation-charges in exchange          203
  SETUP_FOCK is finished

 total amount of memory used by VASP MPI-rank0   165545. kBytes
=======================================================================

   base      :      30000. kBytes
   nonl-proj :       5351. kBytes
   fftplans  :      14250. kBytes
   grid      :      36827. kBytes
   one-center:         62. kBytes
   HF        :         23. kBytes
   nonlr-proj:       2685. kBytes
   wavefun   :      76347. kBytes
 
     INWAV:  cpu time    3.4920: real time    3.4936
 Broyden mixing: mesh for mixing (old mesh)
   NGX = 47   NGY = 45   NGZ = 73
  (NGX  =192   NGY  =192   NGZ  =300)
  gives a total of 154395 points

 charge density for first step will be calculated from the start-wavefunctions


--------------------------------------------------------------------------------------------------------


 Maximum index for augmentation-charges         1048 (set IRDMAX)


--------------------------------------------------------------------------------------------------------


 initial charge from wavefunction
 First call to EWALD:  gamma=   0.121
 Maximum number of real-space cells 3x 3x 2
 Maximum number of reciprocal cells 2x 2x 4

    FEWALD:  cpu time    0.0033: real time    0.0033


--------------------------------------- Iteration      1(   1)  ---------------------------------------


    POTLOK:  cpu time    1.3894: real time    1.3903
    SETDIJ:  cpu time    2.1134: real time    2.1144
    TRIAL :  cpu time  510.4609: real time  510.7750
    CORREC:  cpu time    0.0020: real time    0.0023
    CHARGE:  cpu time    1.6672: real time    1.6679
    --------------------------------------------
      LOOP:  cpu time  515.6492: real time  515.9682

 eigenvalue-minimisations  :     0
 total energy-change (2. order) :-0.6070791E+03  (-0.4343266E+00)
 number of electron     238.9999988 magnetization      -0.9676284
 augmentation part       11.4786101 magnetization       0.0924209

 DIPCOR: dipole corrections for dipol
 direction  3 min pos     1,
 dipolmoment           0.000022     -0.000004     -0.025537 electrons x Angstroem
 Tr[quadrupol]     -6285.475620

 energy correction for charged system         0.000000 eV
 dipol+quadrupol energy correction            0.000019 eV
 added-field ion interaction          0.000000 eV  (added to PSCEN)


 Free energy of the ion-electron system (eV)
  ---------------------------------------------------
  alpha Z        PSCENC =        97.83522056
  Ewald energy   TEWEN  =     37438.51843529
  -Hartree energ DENC   =    -45302.25739606
  -exchange      EXHF   =       532.60290271
  -V(xc)+E(xc)   XCENC  =       566.67597142
  PAW double counting   =     25543.80783003   -25541.21646784
  entropy T*S    EENTRO =        -0.00568016
  eigenvalues    EBANDS =     -3072.93734196
  atomic energy  EATOM  =      9129.90159310
  ---------------------------------------------------
  free energy    TOTEN  =      -607.07914739 eV

  energy without entropy =     -607.07346722  energy(sigma->0) =     -607.07630731
  exchange ACFDT corr.  =        -0.01180394  see jH, gK, PRB 81, 115126


--------------------------------------------------------------------------------------------------------




--------------------------------------- Iteration      1(   2)  ---------------------------------------


    POTLOK:  cpu time    1.4035: real time    1.4041
    SETDIJ:  cpu time    2.1090: real time    2.1096
    TRIAL :  cpu time  506.0863: real time  506.3854
    CORREC:  cpu time    0.0020: real time    0.0023
    CHARGE:  cpu time    1.6526: real time    1.6532
    --------------------------------------------
      LOOP:  cpu time  511.2560: real time  511.5573

 eigenvalue-minimisations  :     0
 total energy-change (2. order) :-0.3593343E+00  (-0.3857002E+00)
 number of electron     238.9999988 magnetization      -0.9865562
 augmentation part       11.4454104 magnetization       0.1160500

 DIPCOR: dipole corrections for dipol
 direction  3 min pos     1,
 dipolmoment           0.000021     -0.000004     -0.024146 electrons x Angstroem
 Tr[quadrupol]     -6285.277929

 energy correction for charged system         0.000000 eV
 dipol+quadrupol energy correction            0.000017 eV
 added-field ion interaction          0.000000 eV  (added to PSCEN)


 Free energy of the ion-electron system (eV)
  ---------------------------------------------------
  alpha Z        PSCENC =        97.83521859
  Ewald energy   TEWEN  =     37438.51843529
  -Hartree energ DENC   =    -45286.24429815
  -exchange      EXHF   =       532.45749156
  -V(xc)+E(xc)   XCENC  =       566.32059485
  PAW double counting   =     25662.66007008   -25659.71512664
  entropy T*S    EENTRO =        -0.00254298
  eigenvalues    EBANDS =     -3089.16678024
  atomic energy  EATOM  =      9129.90159310
  ---------------------------------------------------
  free energy    TOTEN  =      -607.43848173 eV

  energy without entropy =     -607.43593876  energy(sigma->0) =     -607.43721025
  exchange ACFDT corr.  =        -0.00549203  see jH, gK, PRB 81, 115126


--------------------------------------------------------------------------------------------------------




--------------------------------------- Iteration      1(   3)  ---------------------------------------


    POTLOK:  cpu time    1.4099: real time    1.4108
    SETDIJ:  cpu time    2.1076: real time    2.1082
    TRIAL :  cpu time  504.7021: real time  504.9891
    CORREC:  cpu time    0.0020: real time    0.0023
    CHARGE:  cpu time    1.6542: real time    1.6547
    --------------------------------------------
      LOOP:  cpu time  509.8787: real time  510.1679

 eigenvalue-minimisations  :     0
 total energy-change (2. order) :-0.2984308E+00  (-0.2316291E+00)
 number of electron     238.9999988 magnetization      -0.9950357
 augmentation part       11.4431212 magnetization       0.1332395

 DIPCOR: dipole corrections for dipol
 direction  3 min pos     1,
 dipolmoment           0.000013     -0.000002     -0.014391 electrons x Angstroem
 Tr[quadrupol]     -6285.088279

 energy correction for charged system         0.000000 eV
 dipol+quadrupol energy correction            0.000006 eV
 added-field ion interaction          0.000000 eV  (added to PSCEN)


 Free energy of the ion-electron system (eV)
  ---------------------------------------------------
  alpha Z        PSCENC =        97.83520784
  Ewald energy   TEWEN  =     37438.51843529
  -Hartree energ DENC   =    -45269.69450861
  -exchange      EXHF   =       532.37813562
  -V(xc)+E(xc)   XCENC  =       565.95841455
  PAW double counting   =     25813.86316889   -25810.56822699
  entropy T*S    EENTRO =        -0.00103672
  eigenvalues    EBANDS =     -3105.92658927
  atomic energy  EATOM  =      9129.90159310
  ---------------------------------------------------
  free energy    TOTEN  =      -607.73691256 eV

  energy without entropy =     -607.73587584  energy(sigma->0) =     -607.73639420
  exchange ACFDT corr.  =        -0.00194445  see jH, gK, PRB 81, 115126


--------------------------------------------------------------------------------------------------------




--------------------------------------- Iteration      1(   4)  ---------------------------------------


    POTLOK:  cpu time    1.4114: real time    1.4120
    SETDIJ:  cpu time    2.1039: real time    2.1042
    TRIAL :  cpu time  504.1540: real time  504.4013
    CORREC:  cpu time    0.0019: real time    0.0022
    CHARGE:  cpu time    1.6521: real time    1.6526
    --------------------------------------------
      LOOP:  cpu time  509.3263: real time  509.5752

 eigenvalue-minimisations  :     0
 total energy-change (2. order) :-0.1822360E+00  (-0.1441883E+00)
 number of electron     238.9999988 magnetization      -0.9980359
 augmentation part       11.4537928 magnetization       0.1460351

 DIPCOR: dipole corrections for dipol
 direction  3 min pos     1,
 dipolmoment           0.000010     -0.000002     -0.011445 electrons x Angstroem
 Tr[quadrupol]     -6285.019983

 energy correction for charged system         0.000000 eV
 dipol+quadrupol energy correction            0.000004 eV
 added-field ion interaction          0.000000 eV  (added to PSCEN)


 Free energy of the ion-electron system (eV)
  ---------------------------------------------------
  alpha Z        PSCENC =        97.83520566
  Ewald energy   TEWEN  =     37438.51843529
  -Hartree energ DENC   =    -45262.58250140
  -exchange      EXHF   =       532.50708064
  -V(xc)+E(xc)   XCENC  =       565.82211579
  PAW double counting   =     25944.66613126   -25941.35049624
  entropy T*S    EENTRO =        -0.00044594
  eigenvalues    EBANDS =     -3113.23567596
  atomic energy  EATOM  =      9129.90159310
  ---------------------------------------------------
  free energy    TOTEN  =      -607.91914857 eV

  energy without entropy =     -607.91870263  energy(sigma->0) =     -607.91892560
  exchange ACFDT corr.  =        -0.00064967  see jH, gK, PRB 81, 115126


--------------------------------------------------------------------------------------------------------




--------------------------------------- Iteration      1(   5)  ---------------------------------------


    POTLOK:  cpu time    1.4074: real time    1.4080
    SETDIJ:  cpu time    2.1054: real time    2.1057
    TRIAL :  cpu time  504.2992: real time  504.5271
    CORREC:  cpu time    0.0020: real time    0.0022
    CHARGE:  cpu time    1.6512: real time    1.6516
    --------------------------------------------
      LOOP:  cpu time  509.4682: real time  509.6976

 eigenvalue-minimisations  :     0
 total energy-change (2. order) :-0.1185508E+00  (-0.9825146E-01)
 number of electron     238.9999988 magnetization      -0.9991105
 augmentation part       11.4609204 magnetization       0.1565329

 DIPCOR: dipole corrections for dipol
 direction  3 min pos     1,
 dipolmoment           0.000012     -0.000002     -0.014170 electrons x Angstroem
 Tr[quadrupol]     -6285.050741

 energy correction for charged system         0.000000 eV
 dipol+quadrupol energy correction            0.000006 eV
 added-field ion interaction          0.000000 eV  (added to PSCEN)


 Free energy of the ion-electron system (eV)
  ---------------------------------------------------
  alpha Z        PSCENC =        97.83520766
  Ewald energy   TEWEN  =     37438.51843529
  -Hartree energ DENC   =    -45263.60773810
  -exchange      EXHF   =       532.78731423
  -V(xc)+E(xc)   XCENC  =       565.89021161
  PAW double counting   =     26040.31333082   -26037.11907491
  entropy T*S    EENTRO =        -0.00021532
  eigenvalues    EBANDS =     -3112.55653309
  atomic energy  EATOM  =      9129.90159310
  ---------------------------------------------------
  free energy    TOTEN  =      -608.03769935 eV

  energy without entropy =     -608.03748403  energy(sigma->0) =     -608.03759169
  exchange ACFDT corr.  =        -0.00024072  see jH, gK, PRB 81, 115126


--------------------------------------------------------------------------------------------------------




--------------------------------------- Iteration      1(   6)  ---------------------------------------


    POTLOK:  cpu time    1.4113: real time    1.4119
    SETDIJ:  cpu time    2.1063: real time    2.1065
    TRIAL :  cpu time  504.3666: real time  504.5893
    CORREC:  cpu time    0.0019: real time    0.0022
    CHARGE:  cpu time    1.6545: real time    1.6550
    --------------------------------------------
      LOOP:  cpu time  509.5434: real time  509.7676

 eigenvalue-minimisations  :     0
 total energy-change (2. order) :-0.8359228E-01  (-0.6984605E-01)
 number of electron     238.9999988 magnetization      -0.9995545
 augmentation part       11.4643103 magnetization       0.1648295

 DIPCOR: dipole corrections for dipol
 direction  3 min pos     1,
 dipolmoment           0.000014     -0.000003     -0.016411 electrons x Angstroem
 Tr[quadrupol]     -6285.113841

 energy correction for charged system         0.000000 eV
 dipol+quadrupol energy correction            0.000008 eV
 added-field ion interaction          0.000000 eV  (added to PSCEN)


 Free energy of the ion-electron system (eV)
  ---------------------------------------------------
  alpha Z        PSCENC =        97.83520961
  Ewald energy   TEWEN  =     37438.51843529
  -Hartree energ DENC   =    -45267.55897052
  -exchange      EXHF   =       533.09512797
  -V(xc)+E(xc)   XCENC  =       566.03872960
  PAW double counting   =     26103.71350896   -26100.59118965
  entropy T*S    EENTRO =        -0.00011350
  eigenvalues    EBANDS =     -3109.07352068
  atomic energy  EATOM  =      9129.90159310
  ---------------------------------------------------
  free energy    TOTEN  =      -608.12129162 eV

  energy without entropy =     -608.12117813  energy(sigma->0) =     -608.12123487
  exchange ACFDT corr.  =        -0.00010409  see jH, gK, PRB 81, 115126


--------------------------------------------------------------------------------------------------------




--------------------------------------- Iteration      1(   7)  ---------------------------------------


    POTLOK:  cpu time    1.4111: real time    1.4118
    SETDIJ:  cpu time    2.1055: real time    2.1058
    TRIAL :  cpu time  504.5388: real time  504.7721
    CORREC:  cpu time    0.0018: real time    0.0021
    CHARGE:  cpu time    1.6536: real time    1.6540
    --------------------------------------------
      LOOP:  cpu time  509.7138: real time  509.9489

 eigenvalue-minimisations  :     0
 total energy-change (2. order) :-0.6084213E-01  (-0.5116088E-01)
 number of electron     238.9999988 magnetization      -0.9997620
 augmentation part       11.4680831 magnetization       0.1709192

 DIPCOR: dipole corrections for dipol
 direction  3 min pos     1,
 dipolmoment           0.000015     -0.000003     -0.017117 electrons x Angstroem
 Tr[quadrupol]     -6285.168105

 energy correction for charged system         0.000000 eV
 dipol+quadrupol energy correction            0.000008 eV
 added-field ion interaction          0.000000 eV  (added to PSCEN)


 Free energy of the ion-electron system (eV)
  ---------------------------------------------------
  alpha Z        PSCENC =        97.83521029
  Ewald energy   TEWEN  =     37438.51843529
  -Hartree energ DENC   =    -45271.20955374
  -exchange      EXHF   =       533.35481720
  -V(xc)+E(xc)   XCENC  =       566.18147239
  PAW double counting   =     26142.94887473   -26139.85529188
  entropy T*S    EENTRO =        -0.00006330
  eigenvalues    EBANDS =     -3105.85757765
  atomic energy  EATOM  =      9129.90159310
  ---------------------------------------------------
  free energy    TOTEN  =      -608.18213375 eV

  energy without entropy =     -608.18207044  energy(sigma->0) =     -608.18210210
  exchange ACFDT corr.  =        -0.00005040  see jH, gK, PRB 81, 115126


--------------------------------------------------------------------------------------------------------




--------------------------------------- Iteration      1(   8)  ---------------------------------------


    POTLOK:  cpu time    1.4078: real time    1.4085
    SETDIJ:  cpu time    2.1076: real time    2.1079
    TRIAL :  cpu time  504.6087: real time  504.8037
    CORREC:  cpu time    0.0017: real time    0.0020
    CHARGE:  cpu time    1.6524: real time    1.6524
    --------------------------------------------
      LOOP:  cpu time  509.7812: real time  509.9775

 eigenvalue-minimisations  :     0
 total energy-change (2. order) :-0.4554834E-01  (-0.3892496E-01)
 number of electron     238.9999988 magnetization      -0.9998634
 augmentation part       11.4729236 magnetization       0.1756901

 DIPCOR: dipole corrections for dipol
 direction  3 min pos     1,
 dipolmoment           0.000015     -0.000003     -0.017353 electrons x Angstroem
 Tr[quadrupol]     -6285.201597

 energy correction for charged system         0.000000 eV
 dipol+quadrupol energy correction            0.000009 eV
 added-field ion interaction          0.000000 eV  (added to PSCEN)


 Free energy of the ion-electron system (eV)
  ---------------------------------------------------
  alpha Z        PSCENC =        97.83521052
  Ewald energy   TEWEN  =     37438.51843529
  -Hartree energ DENC   =    -45273.55117900
  -exchange      EXHF   =       533.54630764
  -V(xc)+E(xc)   XCENC  =       566.28676905
  PAW double counting   =     26165.61415030   -26162.55803121
  entropy T*S    EENTRO =        -0.00003766
  eigenvalues    EBANDS =     -3103.82087447
  atomic energy  EATOM  =      9129.90159310
  ---------------------------------------------------
  free energy    TOTEN  =      -608.22768208 eV

  energy without entropy =     -608.22764443  energy(sigma->0) =     -608.22766325
  exchange ACFDT corr.  =        -0.00002628  see jH, gK, PRB 81, 115126


--------------------------------------------------------------------------------------------------------




--------------------------------------- Iteration      1(   9)  ---------------------------------------


    POTLOK:  cpu time    1.4061: real time    1.4062
    SETDIJ:  cpu time    2.1060: real time    2.1060
    TRIAL :  cpu time  504.0907: real time  504.1263
    CORREC:  cpu time    0.0018: real time    0.0021
    CHARGE:  cpu time    1.6503: real time    1.6503
    --------------------------------------------
      LOOP:  cpu time  509.2577: real time  509.2938

 eigenvalue-minimisations  :     0
 total energy-change (2. order) :-0.3522131E-01  (-0.3041924E-01)
 number of electron     238.9999988 magnetization      -0.9999136
 augmentation part       11.4774076 magnetization       0.1802488

 DIPCOR: dipole corrections for dipol
 direction  3 min pos     1,
 dipolmoment           0.000016     -0.000003     -0.017698 electrons x Angstroem
 Tr[quadrupol]     -6285.217706

 energy correction for charged system         0.000000 eV
 dipol+quadrupol energy correction            0.000009 eV
 added-field ion interaction          0.000000 eV  (added to PSCEN)


 Free energy of the ion-electron system (eV)
  ---------------------------------------------------
  alpha Z        PSCENC =        97.83521087
  Ewald energy   TEWEN  =     37438.51843529
  -Hartree energ DENC   =    -45274.69492542
  -exchange      EXHF   =       533.67984139
  -V(xc)+E(xc)   XCENC  =       566.35508624
  PAW double counting   =     26177.73761924   -26174.73373615
  entropy T*S    EENTRO =        -0.00002451
  eigenvalues    EBANDS =     -3102.86199030
  atomic energy  EATOM  =      9129.90159310
  ---------------------------------------------------
  free energy    TOTEN  =      -608.26290339 eV

  energy without entropy =     -608.26287888  energy(sigma->0) =     -608.26289114
  exchange ACFDT corr.  =        -0.00001481  see jH, gK, PRB 81, 115126


--------------------------------------------------------------------------------------------------------




--------------------------------------- Iteration      1(  10)  ---------------------------------------


    POTLOK:  cpu time    1.4039: real time    1.4039
    SETDIJ:  cpu time    2.1047: real time    2.1048
    TRIAL :  cpu time  504.2324: real time  504.2801
    CORREC:  cpu time    0.0018: real time    0.0021
    CHARGE:  cpu time    1.6558: real time    1.6558
    --------------------------------------------
      LOOP:  cpu time  509.4011: real time  509.4493

 eigenvalue-minimisations  :     0
 total energy-change (2. order) :-0.2786424E-01  (-0.2430920E-01)
 number of electron     238.9999988 magnetization      -0.9999390
 augmentation part       11.4806619 magnetization       0.1851855

 DIPCOR: dipole corrections for dipol
 direction  3 min pos     1,
 dipolmoment           0.000016     -0.000003     -0.018379 electrons x Angstroem
 Tr[quadrupol]     -6285.223846

 energy correction for charged system         0.000000 eV
 dipol+quadrupol energy correction            0.000010 eV
 added-field ion interaction          0.000000 eV  (added to PSCEN)


 Free energy of the ion-electron system (eV)
  ---------------------------------------------------
  alpha Z        PSCENC =        97.83521157
  Ewald energy   TEWEN  =     37438.51843529
  -Hartree energ DENC   =    -45275.10390970
  -exchange      EXHF   =       533.77491698
  -V(xc)+E(xc)   XCENC  =       566.39869334
  PAW double counting   =     26183.63181937   -26180.67780803
  entropy T*S    EENTRO =        -0.00001766
  eigenvalues    EBANDS =     -3102.56969505
  atomic energy  EATOM  =      9129.90159310
  ---------------------------------------------------
  free energy    TOTEN  =      -608.29076763 eV

  energy without entropy =     -608.29074996  energy(sigma->0) =     -608.29075879
  exchange ACFDT corr.  =        -0.00000924  see jH, gK, PRB 81, 115126


--------------------------------------------------------------------------------------------------------




--------------------------------------- Iteration      1(  11)  ---------------------------------------


    POTLOK:  cpu time    1.4018: real time    1.4019
    SETDIJ:  cpu time    2.1071: real time    2.1072
    TRIAL :  cpu time  504.4242: real time  504.4793
    CORREC:  cpu time    0.0017: real time    0.0020
    CHARGE:  cpu time    1.6478: real time    1.6478
    --------------------------------------------
      LOOP:  cpu time  509.5855: real time  509.6411

 eigenvalue-minimisations  :     0
 total energy-change (2. order) :-0.2250691E-01  (-0.1984438E-01)
 number of electron     238.9999988 magnetization      -0.9999525
 augmentation part       11.4828650 magnetization       0.1904465

 DIPCOR: dipole corrections for dipol
 direction  3 min pos     1,
 dipolmoment           0.000017     -0.000003     -0.019518 electrons x Angstroem
 Tr[quadrupol]     -6285.226109

 energy correction for charged system         0.000000 eV
 dipol+quadrupol energy correction            0.000011 eV
 added-field ion interaction          0.000000 eV  (added to PSCEN)


 Free energy of the ion-electron system (eV)
  ---------------------------------------------------
  alpha Z        PSCENC =        97.83521281
  Ewald energy   TEWEN  =     37438.51843529
  -Hartree energ DENC   =    -45275.21539828
  -exchange      EXHF   =       533.84846084
  -V(xc)+E(xc)   XCENC  =       566.42982339
  PAW double counting   =     26186.23769907   -26183.32229496
  entropy T*S    EENTRO =        -0.00001396
  eigenvalues    EBANDS =     -3102.54678812
  atomic energy  EATOM  =      9129.90159310
  ---------------------------------------------------
  free energy    TOTEN  =      -608.31327454 eV

  energy without entropy =     -608.31326058  energy(sigma->0) =     -608.31326756
  exchange ACFDT corr.  =        -0.00000645  see jH, gK, PRB 81, 115126


--------------------------------------------------------------------------------------------------------




--------------------------------------- Iteration      1(  12)  ---------------------------------------


    POTLOK:  cpu time    1.3965: real time    1.3965
    SETDIJ:  cpu time    2.1052: real time    2.1052
    TRIAL :  cpu time  504.1232: real time  504.1770
    CORREC:  cpu time    0.0019: real time    0.0022
    CHARGE:  cpu time    1.6474: real time    1.6476
    --------------------------------------------
      LOOP:  cpu time  509.2771: real time  509.3315

 eigenvalue-minimisations  :     0
 total energy-change (2. order) :-0.1853119E-01  (-0.1647354E-01)
 number of electron     238.9999988 magnetization      -0.9999602
 augmentation part       11.4846022 magnetization       0.1956526

 DIPCOR: dipole corrections for dipol
 direction  3 min pos     1,
 dipolmoment           0.000018     -0.000004     -0.020976 electrons x Angstroem
 Tr[quadrupol]     -6285.227646

 energy correction for charged system         0.000000 eV
 dipol+quadrupol energy correction            0.000013 eV
 added-field ion interaction          0.000000 eV  (added to PSCEN)


 Free energy of the ion-electron system (eV)
  ---------------------------------------------------
  alpha Z        PSCENC =        97.83521449
  Ewald energy   TEWEN  =     37438.51843529
  -Hartree energ DENC   =    -45275.27819410
  -exchange      EXHF   =       533.91051110
  -V(xc)+E(xc)   XCENC  =       566.45567606
  PAW double counting   =     26187.46747267   -26184.58202676
  entropy T*S    EENTRO =        -0.00001184
  eigenvalues    EBANDS =     -3102.56047362
  atomic energy  EATOM  =      9129.90159310
  ---------------------------------------------------
  free energy    TOTEN  =      -608.33180573 eV

  energy without entropy =     -608.33179389  energy(sigma->0) =     -608.33179981
  exchange ACFDT corr.  =        -0.00000497  see jH, gK, PRB 81, 115126


--------------------------------------------------------------------------------------------------------




--------------------------------------- Iteration      1(  13)  ---------------------------------------


    POTLOK:  cpu time    1.3929: real time    1.3929
    SETDIJ:  cpu time    2.1001: real time    2.1002
    TRIAL :  cpu time  503.4008: real time  503.4634
    CORREC:  cpu time    0.0018: real time    0.0021
    CHARGE:  cpu time    1.6466: real time    1.6468
    --------------------------------------------
      LOOP:  cpu time  508.5452: real time  508.6084

 eigenvalue-minimisations  :     0
 total energy-change (2. order) :-0.1549045E-01  (-0.1386657E-01)
 number of electron     238.9999988 magnetization      -0.9999647
 augmentation part       11.4862496 magnetization       0.2004989

 DIPCOR: dipole corrections for dipol
 direction  3 min pos     1,
 dipolmoment           0.000020     -0.000004     -0.022423 electrons x Angstroem
 Tr[quadrupol]     -6285.229375

 energy correction for charged system         0.000000 eV
 dipol+quadrupol energy correction            0.000014 eV
 added-field ion interaction          0.000000 eV  (added to PSCEN)


 Free energy of the ion-electron system (eV)
  ---------------------------------------------------
  alpha Z        PSCENC =        97.83521629
  Ewald energy   TEWEN  =     37438.51843529
  -Hartree energ DENC   =    -45275.36655241
  -exchange      EXHF   =       533.96533717
  -V(xc)+E(xc)   XCENC  =       566.47874789
  PAW double counting   =     26188.48403911   -26185.62558416
  entropy T*S    EENTRO =        -0.00001056
  eigenvalues    EBANDS =     -3102.53851662
  atomic energy  EATOM  =      9129.90159310
  ---------------------------------------------------
  free energy    TOTEN  =      -608.34729617 eV

  energy without entropy =     -608.34728561  energy(sigma->0) =     -608.34729089
  exchange ACFDT corr.  =        -0.00000413  see jH, gK, PRB 81, 115126


--------------------------------------------------------------------------------------------------------




--------------------------------------- Iteration      1(  14)  ---------------------------------------


    POTLOK:  cpu time    1.3893: real time    1.3894
    SETDIJ:  cpu time    2.1045: real time    2.1045
    TRIAL :  cpu time  503.8445: real time  503.8932
    CORREC:  cpu time    0.0018: real time    0.0021
    CHARGE:  cpu time    1.6426: real time    1.6427
    --------------------------------------------
      LOOP:  cpu time  508.9854: real time  509.0346

 eigenvalue-minimisations  :     0
 total energy-change (2. order) :-0.1311700E-01  (-0.1181498E-01)
 number of electron     238.9999988 magnetization      -0.9999675
 augmentation part       11.4878237 magnetization       0.2049349

 DIPCOR: dipole corrections for dipol
 direction  3 min pos     1,
 dipolmoment           0.000021     -0.000004     -0.023642 electrons x Angstroem
 Tr[quadrupol]     -6285.231307

 energy correction for charged system         0.000000 eV
 dipol+quadrupol energy correction            0.000016 eV
 added-field ion interaction          0.000000 eV  (added to PSCEN)


 Free energy of the ion-electron system (eV)
  ---------------------------------------------------
  alpha Z        PSCENC =        97.83521790
  Ewald energy   TEWEN  =     37438.51843529
  -Hartree energ DENC   =    -45275.47348547
  -exchange      EXHF   =       534.01444992
  -V(xc)+E(xc)   XCENC  =       566.49935086
  PAW double counting   =     26189.83850860   -26187.00670895
  entropy T*S    EENTRO =        -0.00000979
  eigenvalues    EBANDS =     -3102.48776385
  atomic energy  EATOM  =      9129.90159310
  ---------------------------------------------------
  free energy    TOTEN  =      -608.36041317 eV

  energy without entropy =     -608.36040338  energy(sigma->0) =     -608.36040828
  exchange ACFDT corr.  =        -0.00000363  see jH, gK, PRB 81, 115126


--------------------------------------------------------------------------------------------------------




--------------------------------------- Iteration      1(  15)  ---------------------------------------


    POTLOK:  cpu time    1.3889: real time    1.3891
    SETDIJ:  cpu time    2.1036: real time    2.1036
    TRIAL :  cpu time  504.7323: real time  504.7905
    CORREC:  cpu time    0.0018: real time    0.0021
    CHARGE:  cpu time    1.6462: real time    1.6463
    --------------------------------------------
      LOOP:  cpu time  509.8758: real time  509.9347

 eigenvalue-minimisations  :     0
 total energy-change (2. order) :-0.1123151E-01  (-0.1016671E-01)
 number of electron     238.9999988 magnetization      -0.9999690
 augmentation part       11.4891952 magnetization       0.2090577

 DIPCOR: dipole corrections for dipol
 direction  3 min pos     1,
 dipolmoment           0.000022     -0.000004     -0.024677 electrons x Angstroem
 Tr[quadrupol]     -6285.233314

 energy correction for charged system         0.000000 eV
 dipol+quadrupol energy correction            0.000017 eV
 added-field ion interaction          0.000000 eV  (added to PSCEN)


 Free energy of the ion-electron system (eV)
  ---------------------------------------------------
  alpha Z        PSCENC =        97.83521933
  Ewald energy   TEWEN  =     37438.51843529
  -Hartree energ DENC   =    -45275.58197400
  -exchange      EXHF   =       534.05871977
  -V(xc)+E(xc)   XCENC  =       566.51758900
  PAW double counting   =     26191.64473851   -26188.83844249
  entropy T*S    EENTRO =        -0.00000935
  eigenvalues    EBANDS =     -3102.42751339
  atomic energy  EATOM  =      9129.90159310
  ---------------------------------------------------
  free energy    TOTEN  =      -608.37164468 eV

  energy without entropy =     -608.37163533  energy(sigma->0) =     -608.37164001
  exchange ACFDT corr.  =        -0.00000333  see jH, gK, PRB 81, 115126


--------------------------------------------------------------------------------------------------------




--------------------------------------- Iteration      1(  16)  ---------------------------------------


    POTLOK:  cpu time    1.3855: real time    1.3856
    SETDIJ:  cpu time    2.1010: real time    2.1010
    TRIAL :  cpu time  504.5765: real time  504.6262
    CORREC:  cpu time    0.0017: real time    0.0020
    CHARGE:  cpu time    1.6415: real time    1.6415
    --------------------------------------------
      LOOP:  cpu time  509.7091: real time  509.7593

 eigenvalue-minimisations  :     0
 total energy-change (2. order) :-0.9704118E-02  (-0.8827715E-02)
 number of electron     238.9999988 magnetization      -0.9999697
 augmentation part       11.4903002 magnetization       0.2129594

 DIPCOR: dipole corrections for dipol
 direction  3 min pos     1,
 dipolmoment           0.000023     -0.000004     -0.025699 electrons x Angstroem
 Tr[quadrupol]     -6285.235236

 energy correction for charged system         0.000000 eV
 dipol+quadrupol energy correction            0.000019 eV
 added-field ion interaction          0.000000 eV  (added to PSCEN)


 Free energy of the ion-electron system (eV)
  ---------------------------------------------------
  alpha Z        PSCENC =        97.83522080
  Ewald energy   TEWEN  =     37438.51843529
  -Hartree energ DENC   =    -45275.68360725
  -exchange      EXHF   =       534.09886365
  -V(xc)+E(xc)   XCENC  =       566.53379530
  PAW double counting   =     26193.73894203   -26190.95547728
  entropy T*S    EENTRO =        -0.00000915
  eigenvalues    EBANDS =     -3102.36910509
  atomic energy  EATOM  =      9129.90159310
  ---------------------------------------------------
  free energy    TOTEN  =      -608.38134880 eV

  energy without entropy =     -608.38133965  energy(sigma->0) =     -608.38134423
  exchange ACFDT corr.  =        -0.00000315  see jH, gK, PRB 81, 115126


--------------------------------------------------------------------------------------------------------




--------------------------------------- Iteration      1(  17)  ---------------------------------------


    POTLOK:  cpu time    1.3848: real time    1.3852
    SETDIJ:  cpu time    2.1013: real time    2.1013
    TRIAL :  cpu time  503.3885: real time  503.4556
    CORREC:  cpu time    0.0019: real time    0.0022
    CHARGE:  cpu time    1.6430: real time    1.6431
    --------------------------------------------
      LOOP:  cpu time  508.5226: real time  508.5904

 eigenvalue-minimisations  :     0
 total energy-change (2. order) :-0.8454920E-02  (-0.7728469E-02)
 number of electron     238.9999988 magnetization      -0.9999698
 augmentation part       11.4911768 magnetization       0.2166697

 DIPCOR: dipole corrections for dipol
 direction  3 min pos     1,
 dipolmoment           0.000023     -0.000005     -0.026797 electrons x Angstroem
 Tr[quadrupol]     -6285.236891

 energy correction for charged system         0.000000 eV
 dipol+quadrupol energy correction            0.000021 eV
 added-field ion interaction          0.000000 eV  (added to PSCEN)


 Free energy of the ion-electron system (eV)
  ---------------------------------------------------
  alpha Z        PSCENC =        97.83522245
  Ewald energy   TEWEN  =     37438.51843529
  -Hartree energ DENC   =    -45275.77295451
  -exchange      EXHF   =       534.13534272
  -V(xc)+E(xc)   XCENC  =       566.54826216
  PAW double counting   =     26195.86752841   -26193.10378545
  entropy T*S    EENTRO =        -0.00000913
  eigenvalues    EBANDS =     -3102.31943874
  atomic energy  EATOM  =      9129.90159310
  ---------------------------------------------------
  free energy    TOTEN  =      -608.38980372 eV

  energy without entropy =     -608.38979459  energy(sigma->0) =     -608.38979916
  exchange ACFDT corr.  =        -0.00000306  see jH, gK, PRB 81, 115126


--------------------------------------------------------------------------------------------------------




--------------------------------------- Iteration      1(  18)  ---------------------------------------


    POTLOK:  cpu time    1.3812: real time    1.3813
    SETDIJ:  cpu time    2.1038: real time    2.1040
    TRIAL :  cpu time  504.0499: real time  504.1026
    CORREC:  cpu time    0.0018: real time    0.0022
    CHARGE:  cpu time    1.6472: real time    1.6473
    --------------------------------------------
      LOOP:  cpu time  509.1870: real time  509.2402

 eigenvalue-minimisations  :     0
 total energy-change (2. order) :-0.7423274E-02  (-0.6814691E-02)
 number of electron     238.9999988 magnetization      -0.9999694
 augmentation part       11.4919028 magnetization       0.2201830

 DIPCOR: dipole corrections for dipol
 direction  3 min pos     1,
 dipolmoment           0.000024     -0.000005     -0.027939 electrons x Angstroem
 Tr[quadrupol]     -6285.238195

 energy correction for charged system         0.000000 eV
 dipol+quadrupol energy correction            0.000022 eV
 added-field ion interaction          0.000000 eV  (added to PSCEN)


 Free energy of the ion-electron system (eV)
  ---------------------------------------------------
  alpha Z        PSCENC =        97.83522423
  Ewald energy   TEWEN  =     37438.51843529
  -Hartree energ DENC   =    -45275.84741236
  -exchange      EXHF   =       534.16845634
  -V(xc)+E(xc)   XCENC  =       566.56116899
[...]
  augment    30.69894    35.79986    38.58111    -0.72796    -0.80053     0.11728
  Kinetic  3513.87641  3498.95958  3973.83145     5.95223    -2.13865     1.11631
  Fock     -289.57243  -294.74185  -271.39569     0.99007     1.01824    -0.80418
  -------------------------------------------------------------------------------------
  Total     -12.19761   -61.40060    -0.27404     4.23812    -0.77876     0.88394
  in kB      -6.15154   -30.96576    -0.13821     2.13738    -0.39275     0.44579
  external pressure =      -12.42 kB  Pullay stress =        0.00 kB


 VOLUME and BASIS-vectors are now :
 -----------------------------------------------------------------------------
  energy-cutoff  :      500.00
  volume of cell :     3176.89
      direct lattice vectors                 reciprocal lattice vectors
    12.688400000  0.000000000  0.000000000     0.078812143 -0.000555449  0.000069147
     0.088565543 12.566487910  0.000000000     0.000000000  0.079576729 -0.000013686
    -0.017456691  0.003426670 19.924192058     0.000000000  0.000000000  0.050190241

  length of vectors
    12.688400000 12.566800000 19.924200000     0.078814131  0.079576730  0.050190241


 FORCES acting on ions:
    Electron-Ion                     Ewald-Force                    Non-Local-Force
 -----------------------------------------------------------------------------------------------
   -.220E+01 -.498E+00 -.440E+01   0.228E+01 0.376E+00 0.441E+01   -.103E+00 0.723E-01 -.278E-01
   -.354E+01 0.288E+00 -.777E+00   0.360E+01 -.217E+00 0.753E+00   -.932E-01 -.833E-01 0.269E-01
   0.491E+01 -.148E+01 -.258E+01   -.482E+01 0.153E+01 0.258E+01   -.572E-01 -.114E-01 0.150E-02
   -.227E+00 -.173E+01 -.172E+01   0.277E+00 0.182E+01 0.171E+01   -.517E-01 -.216E-01 0.115E-01
   -.416E+01 -.365E+01 -.233E+00   0.429E+01 0.393E+01 0.312E+00   -.262E+00 -.359E+00 0.780E-02
   -.262E+01 -.371E+01 -.609E+01   0.278E+01 0.417E+01 0.623E+01   -.187E+00 -.382E+00 -.140E+00
   0.486E+01 -.552E+01 -.132E+01   -.468E+01 0.574E+01 0.128E+01   -.707E-01 -.220E+00 0.374E-01
   -.119E+02 0.603E+00 -.542E+01   0.123E+02 -.646E+00 0.549E+01   -.397E+00 0.491E-01 -.519E-01
   -.125E+02 -.591E+01 0.489E+01   0.132E+02 0.593E+01 -.520E+01   -.713E+00 -.987E-01 0.309E+00
   0.528E+01 -.119E+02 -.128E+01   -.472E+01 0.121E+02 0.135E+01   -.518E+00 -.242E+00 -.602E-01
   -.780E+01 0.957E+01 -.436E+01   0.822E+01 -.101E+02 0.440E+01   -.402E+00 0.520E+00 -.453E-01
   -.245E+01 0.121E+02 0.209E+01   0.380E+01 -.122E+02 -.209E+01   -.119E+01 0.282E+00 0.120E-01
   0.229E+01 0.747E+01 -.117E+02   -.262E+01 -.852E+01 0.115E+02   0.207E+00 0.898E+00 0.667E-01
   -.359E+01 0.393E+01 -.103E+02   0.375E+01 -.432E+01 0.104E+02   -.213E+00 0.320E+00 -.789E-01
   -.644E+01 0.344E+01 -.299E+01   0.649E+01 -.353E+01 0.300E+01   -.161E+00 0.110E+00 -.113E-01
   0.599E+01 0.403E+01 -.547E+01   -.581E+01 -.437E+01 0.540E+01   -.107E+00 0.250E+00 0.555E-01
   0.449E+01 0.328E+01 -.729E+01   -.453E+01 -.340E+01 0.733E+01   0.868E-01 0.132E+00 -.409E-01
   -.135E+01 -.377E+01 0.922E+00   0.101E+01 0.360E+01 -.954E+00   0.309E+00 0.141E+00 0.441E-01
   -.496E+01 -.907E+01 -.133E+01   0.520E+01 0.945E+01 0.127E+01   -.212E+00 -.337E+00 0.685E-01
   0.538E+01 -.178E+01 -.269E+01   -.562E+01 0.180E+01 0.274E+01   0.247E+00 -.306E-01 -.465E-01
   0.699E+01 0.149E+01 0.100E+01   -.717E+01 -.181E+01 -.110E+01   0.180E+00 0.300E+00 0.121E+00
   0.199E+02 0.332E+01 -.106E+02   -.221E+02 -.588E+01 0.105E+02   0.228E+01 0.262E+01 0.109E+00
   0.395E+01 -.172E+02 -.313E+01   -.496E+01 0.184E+02 0.289E+01   0.925E+00 -.115E+01 0.304E+00
   0.253E+02 -.912E+01 0.269E+02   -.286E+02 0.134E+02 -.278E+02   0.306E+01 -.394E+01 0.961E+00
   0.119E+01 0.984E+01 -.138E+02   -.104E+01 -.110E+02 0.143E+02   0.374E-01 0.919E+00 -.616E+00
   0.533E+01 -.222E+01 -.192E+01   -.553E+01 0.268E+01 0.209E+01   0.146E+00 -.421E+00 -.209E+00
   0.102E+01 -.203E+01 -.449E+01   -.150E+01 0.216E+01 0.451E+01   0.403E+00 -.182E+00 -.343E-01
   -.245E+01 0.752E+00 -.553E+01   0.231E+01 -.833E+00 0.549E+01   0.808E-01 0.857E-01 0.434E-01
   0.909E+01 0.398E+01 -.769E+01   -.947E+01 -.437E+01 0.768E+01   0.458E+00 0.390E+00 -.162E-01
   0.317E+01 -.117E+01 0.592E-02   -.318E+01 0.126E+01 -.398E-02   0.870E-01 -.325E-01 0.101E-01
   -.734E+01 0.109E+01 0.899E+00   0.742E+01 -.105E+01 -.896E+00   -.129E+00 0.145E-01 0.896E-03
   -.859E+01 -.777E+00 -.137E+01   0.871E+01 0.611E+00 0.148E+01   -.165E+00 0.172E+00 -.898E-01
   0.328E+01 -.248E+01 0.109E+01   -.311E+01 0.230E+01 -.110E+01   -.119E+00 0.159E+00 0.213E-01
   0.512E+01 -.566E+01 0.110E+00   -.498E+01 0.570E+01 -.119E+00   -.102E+00 -.652E-01 0.771E-02
   -.375E+01 -.230E+01 -.296E-01   0.402E+01 0.249E+01 -.358E-01   -.322E+00 -.175E+00 0.710E-01
   -.206E+02 -.208E+02 -.107E+02   0.235E+02 0.210E+02 0.105E+02   -.314E+01 -.264E+00 0.286E+00
   -.233E+00 -.929E+01 -.126E+01   0.666E+00 0.928E+01 0.122E+01   -.319E+00 -.422E-01 0.400E-01
   0.546E+01 -.619E+01 -.531E+01   -.516E+01 0.636E+01 0.536E+01   -.238E+00 -.104E+00 -.571E-01
   -.165E+01 -.352E+01 -.432E+01   0.175E+01 0.355E+01 0.430E+01   -.706E-01 -.455E-01 0.494E-02
   -.319E+02 0.237E+02 0.116E+02   0.359E+02 -.242E+02 -.111E+02   -.411E+01 0.475E+00 -.409E+00
   0.106E+02 0.561E+01 -.592E+01   -.103E+02 -.577E+01 0.601E+01   -.196E+00 0.224E+00 -.107E+00
   0.242E+01 0.601E+01 -.741E+00   -.183E+01 -.615E+01 0.711E+00   -.457E+00 0.828E-01 0.119E-01
   -.110E+02 0.425E+01 -.897E+00   0.114E+02 -.437E+01 0.924E+00   -.498E+00 0.137E+00 -.414E-01
   -.969E+01 0.110E+01 0.432E+01   0.982E+01 -.879E+00 -.437E+01   -.141E+00 -.171E+00 0.474E-01
   -.436E+01 0.458E+01 0.698E+01   0.510E+01 -.434E+01 -.700E+01   -.607E+00 -.217E+00 0.455E-01
   -.527E+00 0.325E+01 -.274E+01   0.937E+00 -.331E+01 0.276E+01   -.386E+00 0.784E-01 -.328E-01
   -.874E+01 0.404E+01 0.149E+00   0.890E+01 -.418E+01 -.145E+00   -.200E+00 0.102E+00 0.684E-02
   -.620E+01 0.596E+00 0.164E+01   0.611E+01 -.605E+00 -.164E+01   0.264E-02 0.296E-01 0.763E-02
   0.353E+00 -.191E+01 0.190E+01   -.153E+00 0.204E+01 -.188E+01   -.172E+00 -.166E+00 -.954E-02
   0.448E+01 -.824E+00 0.295E+00   -.423E+01 0.793E+00 -.302E+00   -.141E+00 0.185E-01 0.208E-01
   -.162E+01 -.308E+02 0.315E+00   0.357E+01 0.356E+02 -.991E+00   -.218E+01 -.516E+01 0.433E+00
   -.924E+01 0.382E+02 0.117E+01   0.118E+02 -.427E+02 -.147E+01   -.315E+01 0.473E+01 0.176E+00
   -.432E+02 -.563E+02 -.117E+02   0.470E+02 0.627E+02 0.121E+02   -.417E+01 -.644E+01 -.664E+00
   0.284E+02 0.499E+02 0.136E+02   -.330E+02 -.552E+02 -.144E+02   0.491E+01 0.573E+01 0.765E+00
   0.510E+02 -.885E+02 -.509E+02   -.637E+02 0.108E+03 0.531E+02   0.121E+02 -.187E+02 -.213E+01
   0.455E+02 0.826E+02 0.670E+02   -.558E+02 -.100E+03 -.715E+02   0.977E+01 0.165E+02 0.407E+01
   -.569E+02 0.669E+01 0.230E+03   0.502E+02 -.281E+00 -.226E+03   0.639E+01 -.544E+01 -.393E+01
   0.964E+01 0.214E+02 -.167E+03   -.789E+01 -.248E+02 0.164E+03   0.220E+00 0.224E+01 0.356E+01
 -----------------------------------------------------------------------------------------------
   -.169E+02 0.706E+01 -.334E+01   -.995E-13 0.995E-13 -.284E-13   0.162E+02 -.677E+01 0.291E+01
 
 
 POSITION                                       TOTAL-FORCE (eV/Angst)
 -----------------------------------------------------------------------------------
      2.90201     12.53915      9.98483        -0.032103     -0.045637     -0.016289
      0.68906      1.23464      9.97093        -0.044700     -0.012449      0.004168
      1.48409     12.54686      9.97757         0.046825      0.035351      0.001846
      3.51713      1.21642      9.97801        -0.001546      0.077654      0.005106
      2.80852      2.44820      9.96433        -0.141915     -0.092382      0.088295
      0.69266      3.74042      9.97028        -0.045605      0.066698     -0.010803
      1.39107      2.48038      9.96697         0.119129     -0.016854      0.000036
      3.52254      3.68504      9.95490         0.027339      0.031037      0.012377
      0.75631      6.25735      9.92747        -0.108165     -0.095331      0.019769
      1.42427      4.97937      9.93609         0.030496     -0.048535      0.007054
      0.80726      8.76794      9.96098        -0.016277      0.038715     -0.010254
      1.52648      7.50132      9.92702         0.108522      0.154079      0.013370
      3.60718      8.79655      9.96476        -0.109237     -0.109584     -0.045057
      2.90735     10.04262      9.98741        -0.072894     -0.052336      0.010379
      0.79190     11.29185      9.97466        -0.136056      0.026683     -0.006193
      1.49187     10.03217      9.97651         0.082309     -0.074409     -0.013443
      3.60287     11.29663      9.99097         0.053492      0.025143     -0.001355
      7.13492     12.56689      9.97613        -0.025536     -0.019081      0.014568
      4.93630      1.24026      9.98523         0.011782      0.023613      0.019788
      5.71977     12.55674      9.98458         0.032309     -0.009010      0.005451
      7.75045      1.24781      9.99028         0.015453      0.007592      0.033217
      7.06699      2.49398     10.03763         0.215515      0.196624      0.001640
      5.63367      2.50236     10.00237        -0.030591     -0.013982      0.084958
      7.14179      7.62712      9.86173        -0.058603      0.070597      0.025461
      5.04371      8.79657      9.96670         0.187677     -0.218138     -0.153627
      7.84591      8.86181      9.93669        -0.043933      0.010099     -0.049958
      7.13776     10.08807      9.96519        -0.063953     -0.073184     -0.015478
      5.01805     11.30690      9.98653        -0.068165      0.007287      0.005671
      5.72390     10.05953      9.97800         0.113271      0.023061     -0.025191
      7.84157     11.32978      9.96559         0.086357      0.052220      0.012831
     11.36462     12.56132      9.96583        -0.071840      0.063110      0.003801
      9.16192      1.25425      9.98586        -0.067191      0.018030      0.013603
      9.86439      0.00343      9.96770         0.058235     -0.007266      0.009886
     11.96053      1.25186      9.97024         0.047325     -0.038848     -0.000719
     11.25490      2.51416      9.97649        -0.076450      0.008622      0.009816
      9.08476      3.76636     10.02995        -0.457905     -0.071591      0.022352
      9.83304      2.52117      9.99216         0.105745     -0.061892     -0.001172
     11.96127      3.76094      9.97953         0.053178      0.057885     -0.006209
     11.25936      5.02241      9.97351         0.018157     -0.031124     -0.012474
      9.18382      6.34000      9.90692        -0.395125     -0.007064      0.001169
      9.82179      5.03510      9.98089         0.088260      0.081018     -0.029980
     12.02296      6.26849      9.95093         0.115371     -0.045349     -0.017209
     11.34995      7.54036      9.94811        -0.109911      0.021862     -0.017025
      9.25528      8.82981      9.93151        -0.036977      0.047474     -0.000311
      9.93868      7.56694      9.92308         0.105681      0.014230      0.032129
     12.07247      8.78395      9.95855         0.012743      0.020888     -0.011277
     11.37700     10.04811      9.95637        -0.067358     -0.027942      0.011565
      9.25600     11.32044      9.95853        -0.100205      0.025980      0.009466
      9.96170     10.06899      9.94829         0.028195     -0.056940      0.003367
     12.06849     11.30331      9.96378         0.117170     -0.015669      0.014835
      2.81226      4.91223      9.89598        -0.343338     -0.557632     -0.222637
      2.95461      7.53347      9.89925        -0.750930      0.450445     -0.116697
      4.94977      3.75597     10.00103        -0.558658     -0.347609     -0.267441
      5.72138      7.53536      9.88162         0.650345      0.727774      0.037585
      7.70397      3.71785     10.11266         0.574767     -0.673046     -0.036398
      7.84222      6.43095      9.82403         0.325814      0.554946     -0.029709
      4.22525      6.05568      9.58214        -0.780981      0.696677      0.235948
      6.26700      5.37350     10.33712         1.384684     -0.812509      0.345398
 -----------------------------------------------------------------------------------
    total drift:                               -0.008146      0.001310     -0.007940


--------------------------------------------------------------------------------------------------------



  FREE ENERGIE OF THE ION-ELECTRON SYSTEM (eV)
  ---------------------------------------------------
  free  energy   TOTEN  =      -608.47507309 eV

  energy  without entropy=     -608.47504245  energy(sigma->0) =     -608.47505777
 


--------------------------------------------------------------------------------------------------------


    POTLOK:  cpu time    3.4683: real time    3.4685


--------------------------------------------------------------------------------------------------------


 stress matrix after NEB project (eV)
    -12.19761      4.23819      0.88394
      4.23812    -61.40060     -0.77354
      0.88398     -0.77876     -0.27404
  FORCES: max atom, RMS     1.642200    0.388287
  FORCE total and by dimension    2.957106    1.384684
  Stress total and by dimension   62.909313   61.400598
 writing wavefunctions
     LOOP+:  cpu time54091.7988: real time54103.0340
    4ORBIT:  cpu time    0.0000: real time    0.0000
 


 total charge     
 
# of ion       s       p       d       tot
------------------------------------------
    1        0.869   1.774   0.000   2.643
    2        0.867   1.765   0.000   2.632
    3        0.865   1.767   0.000   2.632
    4        0.869   1.779   0.000   2.649
    5        0.873   1.779   0.000   2.652
    6        0.866   1.753   0.000   2.619
    7        0.866   1.768   0.000   2.634
    8        0.876   1.754   0.000   2.630
    9        0.864   1.731   0.000   2.595
   10        0.867   1.776   0.000   2.643
   11        0.863   1.743   0.000   2.606
   12        0.856   1.721   0.000   2.577
   13        0.872   1.758   0.000   2.631
   14        0.869   1.770   0.000   2.640
   15        0.867   1.765   0.000   2.632
   16        0.865   1.764   0.000   2.629
   17        0.867   1.779   0.000   2.646
   18        0.868   1.776   0.000   2.644
   19        0.866   1.762   0.000   2.629
   20        0.867   1.776   0.000   2.642
   21        0.870   1.791   0.000   2.660
   22        0.867   1.733   0.000   2.599
   23        0.867   1.755   0.000   2.622
   24        0.869   1.732   0.000   2.601
   25        0.870   1.735   0.000   2.605
   26        0.873   1.802   0.000   2.675
   27        0.872   1.785   0.000   2.656
   28        0.868   1.768   0.000   2.635
   29        0.867   1.775   0.000   2.642
   30        0.869   1.783   0.000   2.652
   31        0.868   1.765   0.000   2.632
   32        0.869   1.765   0.000   2.634
   33        0.866   1.780   0.000   2.646
   34        0.864   1.767   0.000   2.630
   35        0.864   1.754   0.000   2.618
   36        0.850   1.682   0.000   2.533
   37        0.862   1.762   0.000   2.624
   38        0.863   1.766   0.000   2.629
   39        0.857   1.723   0.000   2.580
   40        0.862   1.722   0.000   2.584
   41        0.848   1.745   0.000   2.593
   42        0.858   1.750   0.000   2.608
   43        0.866   1.761   0.000   2.628
   44        0.870   1.770   0.000   2.641
   45        0.865   1.779   0.000   2.644
   46        0.862   1.759   0.000   2.621
   47        0.867   1.760   0.000   2.626
   48        0.867   1.769   0.000   2.636
   49        0.866   1.779   0.000   2.645
   50        0.865   1.772   0.000   2.637
   51        0.886   1.715   0.000   2.601
   52        0.868   1.640   0.000   2.508
   53        0.867   1.665   0.000   2.532
   54        0.857   1.681   0.000   2.539
   55        1.236   2.637   0.000   3.873
   56        1.241   2.720   0.000   3.961
   57        0.507   0.553   6.251   7.311
   58        0.466   0.631   3.492   4.589
--------------------------------------------------
tot         50.221 101.292   9.743 161.257
 


 magnetization (x)
 
# of ion       s       p       d       tot
------------------------------------------
    1       -0.001  -0.011   0.000  -0.012
    2       -0.001  -0.016   0.000  -0.017
    3        0.001   0.010   0.000   0.011
    4        0.000   0.005   0.000   0.005
    5       -0.001  -0.013   0.000  -0.014
    6       -0.003  -0.025   0.000  -0.027
    7        0.002   0.018   0.000   0.019
    8        0.003   0.027   0.000   0.030
    9       -0.003  -0.049   0.000  -0.052
   10        0.003   0.031   0.000   0.034
   11       -0.002  -0.016   0.000  -0.018
   12        0.002   0.026   0.000   0.028
   13        0.001   0.016   0.000   0.018
   14       -0.002  -0.019   0.000  -0.021
   15       -0.001  -0.011   0.000  -0.012
   16        0.001   0.012   0.000   0.014
   17        0.000   0.003   0.000   0.004
   18       -0.002  -0.023   0.000  -0.025
   19       -0.001  -0.014   0.000  -0.015
   20        0.001   0.009   0.000   0.010
   21        0.002   0.014   0.000   0.015
   22       -0.003  -0.044   0.000  -0.048
   23       -0.001   0.004   0.000   0.003
   24       -0.003  -0.009   0.000  -0.012
   25       -0.001  -0.018   0.000  -0.019
   26       -0.000   0.005   0.000   0.005
   27       -0.001  -0.008   0.000  -0.009
   28       -0.001  -0.013   0.000  -0.013
   29        0.001   0.005   0.000   0.006
   30        0.001   0.010   0.000   0.011
   31       -0.001  -0.009   0.000  -0.009
   32       -0.001  -0.016   0.000  -0.017
   33        0.001   0.009   0.000   0.010
   34        0.001   0.011   0.000   0.012
   35       -0.001  -0.011   0.000  -0.012
   36       -0.000  -0.003   0.000  -0.003
   37        0.001   0.010   0.000   0.011
   38        0.001   0.010   0.000   0.011
   39       -0.002  -0.029   0.000  -0.031
   40       -0.001  -0.018   0.000  -0.019
   41        0.000  -0.005   0.000  -0.005
   42        0.002   0.013   0.000   0.014
   43       -0.001  -0.014   0.000  -0.016
   44       -0.001  -0.014   0.000  -0.015
   45        0.001   0.011   0.000   0.013
   46        0.001   0.011   0.000   0.012
   47       -0.001  -0.013   0.000  -0.014
   48       -0.001  -0.018   0.000  -0.019
   49        0.001   0.008   0.000   0.009
   50        0.001   0.011   0.000   0.012
   51       -0.021  -0.137   0.000  -0.158
   52       -0.024  -0.122   0.000  -0.146
   53        0.005  -0.029   0.000  -0.024
   54        0.004   0.013   0.000   0.017
   55        0.004   0.009   0.000   0.013
   56        0.004   0.008   0.000   0.012
   57        0.025  -0.035   2.550   2.540
   58       -0.067  -0.045  -2.471  -2.583
--------------------------------------------------
tot         -0.079  -0.489   0.079  -0.489
 

 total amount of memory used by VASP MPI-rank0   188342. kBytes
=======================================================================

   base      :      30000. kBytes
   nonl-proj :       5351. kBytes
   fftplans  :      14250. kBytes
   grid      :      36827. kBytes
   one-center:         62. kBytes
   HF        :         23. kBytes
   nonlr-proj:      25482. kBytes
   wavefun   :      76347. kBytes
 
  
  
 General timing and accounting informations for this job:
 ========================================================
  
                  Total CPU time used (sec):    54185.270
                            User time (sec):    54116.032
                          System time (sec):       69.236
                         Elapsed time (sec):    54198.353
  
                   Maximum memory used (kb):      432984.
                   Average memory used (kb):           0.
  
                          Minor page faults:       387606
                          Major page faults:            1
                 Voluntary context switches:         1488
