 vasp.5.4.4.18Apr17-6-g9f103f2a35 (build Feb 25 2019 10:51:38) complex          
  
 executed on             LinuxIFC date 2021.06.16  00:50:12
 running on   48 total cores
 distrk:  each k-point on   24 cores,    2 groups
 distr:  one band on NCORES_PER_BAND=  24 cores,    1 groups


--------------------------------------------------------------------------------------------------------


 INCAR:
 POTCAR:    PAW_PBE C 08Apr2002                   
 POTCAR:    PAW_PBE N 08Apr2002                   
 POTCAR:    PAW_PBE Fe 06Sep2000                  
 POTCAR:    PAW_PBE Cr 06Sep2000                  

 ----------------------------------------------------------------------------- 
|                                                                             |
|           W    W    AA    RRRRR   N    N  II  N    N   GGGG   !!!           |
|           W    W   A  A   R    R  NN   N  II  NN   N  G    G  !!!           |
|           W    W  A    A  R    R  N N  N  II  N N  N  G       !!!           |
|           W WW W  AAAAAA  RRRRR   N  N N  II  N  N N  G  GGG   !            |
|           WW  WW  A    A  R   R   N   NN  II  N   NN  G    G                |
|           W    W  A    A  R    R  N    N  II  N    N   GGGG   !!!           |
|                                                                             |
|      For optimal performance we recommend to set                            |
|        NCORE= 4 - approx SQRT( number of cores)                             |
|      NCORE specifies how many cores store one orbital (NPAR=cpu/NCORE).     |
|      This setting can  greatly improve the performance of VASP for DFT.     |
|      The default,   NCORE=1            might be grossly inefficient         |
|      on modern multi-core architectures or massively parallel machines.     |
|      Do your own testing !!!!                                               |
|      Unfortunately you need to use the default for GW and RPA calculations. |
|      (for HF NCORE is supported but not extensively tested yet)             |
|                                                                             |
 ----------------------------------------------------------------------------- 


 ----------------------------------------------------------------------------- 
|                                                                             |
|           W    W    AA    RRRRR   N    N  II  N    N   GGGG   !!!           |
|           W    W   A  A   R    R  NN   N  II  NN   N  G    G  !!!           |
|           W    W  A    A  R    R  N N  N  II  N N  N  G       !!!           |
|           W WW W  AAAAAA  RRRRR   N  N N  II  N  N N  G  GGG   !            |
|           WW  WW  A    A  R   R   N   NN  II  N   NN  G    G                |
|           W    W  A    A  R    R  N    N  II  N    N   GGGG   !!!           |
|                                                                             |
|      You have enabled k-point parallelism (KPAR>1).                         |
|      This developmental code was originally  written by Paul Kent at ORNL,  |
|      and carefully double checked in Vienna.                                |
|      GW as well as linear response parallelism added by Martijn Marsman     |
|      and Georg Kresse.                                                      |
|      Carefully verify results versus KPAR=1.                                |
|      Report problems to Paul Kent and Vienna.                               |
|                                                                             |
 ----------------------------------------------------------------------------- 

 POTCAR:    PAW_PBE C 08Apr2002                   
   VRHFIN =C: s2p2                                                              
   LEXCH  = PE                                                                  
   EATOM  =   147.1560 eV,   10.8157 Ry                                         
                                                                                
   TITEL  = PAW_PBE C 08Apr2002                                                 
   LULTRA =        F    use ultrasoft PP ?                                      
   IUNSCR =        1    unscreen: 0-lin 1-nonlin 2-no                           
   RPACOR =    1.200    partial core radius                                     
   POMASS =   12.011; ZVAL   =    4.000    mass and valenz                      
   RCORE  =    1.500    outmost cutoff radius                                   
   RWIGS  =    1.630; RWIGS  =    0.863    wigner-seitz radius (au A)           
   ENMAX  =  400.000; ENMIN  =  300.000 eV                                      
   ICORE  =        2    local potential                                         
   LCOR   =        T    correct aug charges                                     
   LPAW   =        T    paw PP                                                  
   EAUG   =  644.873                                                            
   DEXC   =    0.000                                                            
   RMAX   =    1.529    core radius for proj-oper                               
   RAUG   =    1.300    factor for augmentation sphere                          
   RDEP   =    1.501    radius for radial grids                                 
   RDEPT  =    1.300    core radius for aug-charge                              
                                                                                
   Atomic configuration                                                         
    4 entries                                                                   
     n  l   j            E        occ.                                          
     1  0  0.50      -273.3789   2.0000                                         
     2  0  0.50       -13.7508   2.0000                                         
     2  1  0.50        -5.2854   2.0000                                         
     3  2  1.50        -5.4423   0.0000                                         
   Description                                                                  
     l       E           TYP  RCUT    TYP  RCUT                                 
     0    -13.7508458     23  1.200                                             
     0     -8.2022199     23  1.200                                             
     1     -5.2854383     23  1.500                                             
     1     34.0145650     23  1.500                                             
     2     -5.4423304      7  1.500                                             
  local pseudopotential read in
  partial core-charges read in
  partial kinetic energy density read in
  atomic valenz-charges read in
  non local Contribution for L=           0  read in
    real space projection operators read in
  non local Contribution for L=           0  read in
    real space projection operators read in
  non local Contribution for L=           1  read in
    real space projection operators read in
  non local Contribution for L=           1  read in
    real space projection operators read in
    PAW grid and wavefunctions read in
 
   number of l-projection  operators is LMAX  =           4
   number of lm-projection operators is LMMAX =           8
 
 POTCAR:    PAW_PBE N 08Apr2002                   
   VRHFIN =N: s2p3                                                              
   LEXCH  = PE                                                                  
   EATOM  =   264.5486 eV,   19.4438 Ry                                         
                                                                                
   TITEL  = PAW_PBE N 08Apr2002                                                 
   LULTRA =        F    use ultrasoft PP ?                                      
   IUNSCR =        1    unscreen: 0-lin 1-nonlin 2-no                           
   RPACOR =    1.200    partial core radius                                     
   POMASS =   14.001; ZVAL   =    5.000    mass and valenz                      
   RCORE  =    1.500    outmost cutoff radius                                   
   RWIGS  =    1.400; RWIGS  =    0.741    wigner-seitz radius (au A)           
   ENMAX  =  400.000; ENMIN  =  300.000 eV                                      
   ICORE  =        2    local potential                                         
   LCOR   =        T    correct aug charges                                     
   LPAW   =        T    paw PP                                                  
   EAUG   =  627.112                                                            
   DEXC   =    0.000                                                            
   RMAX   =    1.529    core radius for proj-oper                               
   RAUG   =    1.300    factor for augmentation sphere                          
   RDEP   =    1.514    radius for radial grids                                 
   RDEPT  =    1.338    core radius for aug-charge                              
                                                                                
   Atomic configuration                                                         
    4 entries                                                                   
     n  l   j            E        occ.                                          
     1  0  0.50      -384.7179   2.0000                                         
     2  0  0.50       -18.5828   2.0000                                         
     2  1  0.50        -7.0898   3.0000                                         
     3  2  1.50        -6.8029   0.0000                                         
   Description                                                                  
     l       E           TYP  RCUT    TYP  RCUT                                 
     0    -18.5828119     23  1.200                                             
     0    -13.5018863     23  1.200                                             
     1     -7.0897853     23  1.500                                             
     1      9.5240782     23  1.500                                             
     2     -6.8029130      7  1.500                                             
  local pseudopotential read in
  partial core-charges read in
  partial kinetic energy density read in
  atomic valenz-charges read in
  non local Contribution for L=           0  read in
    real space projection operators read in
  non local Contribution for L=           0  read in
    real space projection operators read in
  non local Contribution for L=           1  read in
    real space projection operators read in
  non local Contribution for L=           1  read in
    real space projection operators read in
    PAW grid and wavefunctions read in
 
   number of l-projection  operators is LMAX  =           4
   number of lm-projection operators is LMMAX =           8
 
 POTCAR:    PAW_PBE Fe 06Sep2000                  
   VRHFIN =Fe:  d7 s1                                                           
   LEXCH  = PE                                                                  
   EATOM  =   594.3153 eV,   43.6809 Ry                                         
                                                                                
   TITEL  = PAW_PBE Fe 06Sep2000                                                
   LULTRA =        F    use ultrasoft PP ?                                      
   IUNSCR =        1    unscreen: 0-lin 1-nonlin 2-no                           
   RPACOR =    2.000    partial core radius                                     
   POMASS =   55.847; ZVAL   =    8.000    mass and valenz                      
   RCORE  =    2.300    outmost cutoff radius                                   
   RWIGS  =    2.460; RWIGS  =    1.302    wigner-seitz radius (au A)           
   ENMAX  =  267.882; ENMIN  =  200.911 eV                                      
   RCLOC  =    1.701    cutoff for local pot                                    
   LCOR   =        T    correct aug charges                                     
   LPAW   =        T    paw PP                                                  
   EAUG   =  511.368                                                            
   DEXC   =    0.000                                                            
   RMAX   =    2.356    core radius for proj-oper                               
   RAUG   =    1.300    factor for augmentation sphere                          
   RDEP   =    2.442    radius for radial grids                                 
   RDEPT  =    1.890    core radius for aug-charge                              
                                                                                
   Atomic configuration                                                         
    9 entries                                                                   
     n  l   j            E        occ.                                          
     1  0  0.50     -6993.8440   2.0000                                         
     2  0  0.50      -814.6047   2.0000                                         
     2  1  1.50      -693.3689   6.0000                                         
     3  0  0.50       -89.4732   2.0000                                         
     3  1  1.50       -55.6373   6.0000                                         
     3  2  2.50        -3.8151   7.0000                                         
     4  0  0.50        -4.2551   1.0000                                         
     4  1  1.50        -3.4015   0.0000                                         
     4  3  2.50        -1.3606   0.0000                                         
   Description                                                                  
     l       E           TYP  RCUT    TYP  RCUT                                 
     2     -3.8151135     23  2.300                                             
     2     -5.1756961     23  2.300                                             
     0     -4.2550963     23  2.300                                             
     0      7.2035603     23  2.300                                             
     1     -2.7211652     23  2.300                                             
     1     18.4316424     23  2.300                                             
  local pseudopotential read in
  partial core-charges read in
  partial kinetic energy density read in
  atomic valenz-charges read in
  non local Contribution for L=           2  read in
    real space projection operators read in
  non local Contribution for L=           2  read in
    real space projection operators read in
  non local Contribution for L=           0  read in
    real space projection operators read in
  non local Contribution for L=           0  read in
    real space projection operators read in
  non local Contribution for L=           1  read in
    real space projection operators read in
  non local Contribution for L=           1  read in
    real space projection operators read in
    PAW grid and wavefunctions read in
 
   number of l-projection  operators is LMAX  =           6
   number of lm-projection operators is LMMAX =          18
 
 POTCAR:    PAW_PBE Cr 06Sep2000                  
   VRHFIN =Cr : d5 s1                                                           
   LEXCH  = PE                                                                  
   EATOM  =   276.8859 eV,   20.3505 Ry                                         
                                                                                
   TITEL  = PAW_PBE Cr 06Sep2000                                                
   LULTRA =        F    use ultrasoft PP ?                                      
   IUNSCR =        1    unscreen: 0-lin 1-nonlin 2-no                           
   RPACOR =    2.080    partial core radius                                     
   POMASS =   51.996; ZVAL   =    6.000    mass and valenz                      
   RCORE  =    2.500    outmost cutoff radius                                   
   RWIGS  =    2.500; RWIGS  =    1.323    wigner-seitz radius (au A)           
   ENMAX  =  227.080; ENMIN  =  170.310 eV                                      
   RCLOC  =    1.721    cutoff for local pot                                    
   LCOR   =        T    correct aug charges                                     
   LPAW   =        T    paw PP                                                  
   EAUG   =  402.108                                                            
   DEXC   =    0.000                                                            
   RMAX   =    2.552    core radius for proj-oper                               
   RAUG   =    1.300    factor for augmentation sphere                          
   RDEP   =    2.609    radius for radial grids                                 
   RDEPT  =    2.065    core radius for aug-charge                              
                                                                                
   Atomic configuration                                                         
    9 entries                                                                   
     n  l   j            E        occ.                                          
     1  0  0.50     -5880.4963   2.0000                                         
     2  0  0.50      -667.0865   2.0000                                         
     2  1  1.50      -560.6250   6.0000                                         
     3  0  0.50       -73.9860   2.0000                                         
     3  1  1.50       -45.4378   6.0000                                         
     3  2  2.50        -2.9137   5.0000                                         
     4  0  0.50        -4.0071   1.0000                                         
     4  1  0.50        -1.2789   0.0000                                         
     4  3  2.50        -1.3606   0.0000                                         
   Description                                                                  
     l       E           TYP  RCUT    TYP  RCUT                                 
     2     -2.9136677     23  2.500                                             
     2     -4.2742503     23  2.500                                             
     0     -4.0071322     23  2.500                                             
     0      9.4498801     23  2.500                                             
     1     -5.4423304     23  2.500                                             
     1     27.2116520     23  2.500                                             
  local pseudopotential read in
  partial core-charges read in
  partial kinetic energy density read in
  atomic valenz-charges read in
  non local Contribution for L=           2  read in
    real space projection operators read in
  non local Contribution for L=           2  read in
    real space projection operators read in
  non local Contribution for L=           0  read in
    real space projection operators read in
  non local Contribution for L=           0  read in
    real space projection operators read in
  non local Contribution for L=           1  read in
    real space projection operators read in
  non local Contribution for L=           1  read in
    real space projection operators read in
    PAW grid and wavefunctions read in
 
   number of l-projection  operators is LMAX  =           6
   number of lm-projection operators is LMMAX =          18
 

 ----------------------------------------------------------------------------- 
|                                                                             |
|  ADVICE TO THIS USER RUNNING 'VASP/VAMP'   (HEAR YOUR MASTER'S VOICE ...):  |
|                                                                             |
|      You have a (more or less) 'large supercell' and for larger cells       |
|      it might be more efficient to use real space projection opertators     |
|      So try LREAL= Auto  in the INCAR   file.                               |
|      Mind:          For very  accurate calculation you might also keep the  |
|      reciprocal projection scheme          (i.e. LREAL=.FALSE.)             |
|                                                                             |
 ----------------------------------------------------------------------------- 

  PAW_PBE C 08Apr2002                   :
 energy of atom  1       EATOM= -147.1560
 kinetic energy error for atom=    0.0076 (will be added to EATOM!!)
  PAW_PBE N 08Apr2002                   :
 energy of atom  2       EATOM= -264.5486
 kinetic energy error for atom=    0.0138 (will be added to EATOM!!)
  PAW_PBE Fe 06Sep2000                  :
 energy of atom  3       EATOM= -594.3153
 kinetic energy error for atom=    0.0026 (will be added to EATOM!!)
  PAW_PBE Cr 06Sep2000                  :
 energy of atom  4       EATOM= -276.8859
 kinetic energy error for atom=    0.0012 (will be added to EATOM!!)
 
 
 POSCAR:  C  N Fe Cr                             
  positions in cartesian coordinates
  No initial velocities read in
 exchange correlation table for  LEXCH =        8
   RHO(1)=    0.500       N(1)  =     2000
   RHO(2)=  100.500       N(2)  =     4000

 VTST: version 3.2, (02/03/18)

 CHAIN: initializing optimizer
 
 OPT: Using VASP Conjugate-Gradient optimizer
 CHAIN: Read ICHAIN            0
 
 POSCAR:  C  N Fe Cr                             
  positions in cartesian coordinates
  No initial velocities read in
 


--------------------------------------------------------------------------------------------------------


 ion  position               nearest neighbor table
   1  0.222  0.003  0.499-   3 1.43  19 1.43   4 1.44
   2  0.058  0.103  0.497-  36 1.43   3 1.43   7 1.44
   3  0.111  0.002  0.498-   1 1.43   2 1.43  17 1.43
   4  0.278  0.104  0.502-  21 1.42   1 1.44   5 1.44
   5  0.225  0.206  0.504-   7 1.44   4 1.44   8 1.45
   6  0.058  0.303  0.499-  40 1.43  11 1.43   7 1.43
   7  0.114  0.204  0.500-   6 1.43   5 1.44   2 1.44
   8  0.282  0.307  0.510-  25 1.45   5 1.45   9 1.48
   9  0.224  0.408  0.509-  53 1.39  11 1.44   8 1.48
  10  0.054  0.504  0.500-  14 1.43  44 1.44  11 1.45
  11  0.112  0.404  0.502-   6 1.43   9 1.44  10 1.45
  12  0.221  0.604  0.505-  53 1.40  14 1.43  15 1.44
  13  0.053  0.702  0.497-  14 1.43  18 1.43  48 1.44
  14  0.109  0.604  0.500-  10 1.43  13 1.43  12 1.43
  15  0.279  0.704  0.500-  56 1.40  16 1.44  12 1.44
  16  0.221  0.802  0.498-  18 1.43  15 1.44  19 1.44
  17  0.055  0.902  0.496-  52 1.43   3 1.43  18 1.44
  18  0.110  0.802  0.497-  13 1.43  16 1.43  17 1.44
  19  0.276  0.903  0.498-   1 1.43  30 1.43  16 1.44
  20  0.555  0.001  0.497-  23 1.42  32 1.42  22 1.42
  21  0.389  0.101  0.501-  26 1.42   4 1.42  22 1.43
  22  0.444  0.002  0.498-  30 1.42  20 1.42  21 1.43
  23  0.613  0.099  0.498-  24 1.41  20 1.42  34 1.43
  24  0.558  0.196  0.502-  27 1.41  23 1.41  26 1.43
  25  0.395  0.300  0.514-  54 1.38  26 1.43   8 1.45
  26  0.447  0.199  0.505-  21 1.42  24 1.43  25 1.43
  27  0.616  0.293  0.502-  28 1.39  24 1.41  38 1.42
  28  0.563  0.389  0.511-  55 1.37  54 1.38  27 1.39
  29  0.554  0.804  0.497-  57 1.39  32 1.41  31 1.44
  30  0.388  0.903  0.498-  31 1.42  22 1.42  19 1.43
  31  0.442  0.804  0.497-  56 1.39  30 1.42  29 1.44
  32  0.610  0.902  0.496-  29 1.41  20 1.42  50 1.43
  33  0.890  0.001  0.495-  35 1.43  52 1.43  36 1.44
  34  0.724  0.099  0.495-  23 1.43  35 1.43  39 1.43
  35  0.778  1.000  0.495-  50 1.43  34 1.43  33 1.43
  36  0.946  0.101  0.495-   2 1.43  37 1.43  33 1.44
  37  0.892  0.201  0.495-  39 1.42  36 1.43  40 1.43
  38  0.726  0.297  0.498-  27 1.42  39 1.42  43 1.43
  39  0.781  0.199  0.495-  38 1.42  37 1.42  34 1.43
  40  0.946  0.302  0.497-  37 1.43   6 1.43  41 1.44
  41  0.889  0.401  0.498-  43 1.43  44 1.43  40 1.44
  42  0.718  0.496  0.501-  55 1.38  43 1.44  47 1.45
  43  0.778  0.399  0.499-  41 1.43  38 1.43  42 1.44
  44  0.942  0.502  0.498-  41 1.43  10 1.44  45 1.45
  45  0.883  0.601  0.498-  48 1.43  44 1.45  47 1.46
  46  0.714  0.701  0.498-  57 1.39  51 1.44  47 1.46
  47  0.770  0.600  0.499-  42 1.45  45 1.46  46 1.46
  48  0.941  0.700  0.497-  49 1.43  45 1.43  13 1.44
  49  0.886  0.800  0.496-  48 1.43  51 1.43  52 1.44
  50  0.721  0.901  0.495-  35 1.43  32 1.43  51 1.44
  51  0.774  0.800  0.496-  49 1.43  50 1.44  46 1.44
  52  0.943  0.901  0.495-  33 1.43  17 1.43  49 1.44
  53  0.272  0.508  0.516-   9 1.39  12 1.40  58 1.85
  54  0.458  0.390  0.526-  28 1.38  25 1.38  58 1.84
  55  0.611  0.487  0.507-  28 1.37  42 1.38  59 1.99
  56  0.388  0.706  0.498-  31 1.39  15 1.40  59 2.00
  57  0.606  0.707  0.497-  46 1.39  29 1.39  59 1.97
  58  0.402  0.516  0.558-  54 1.84  53 1.85  59 1.96
  59  0.498  0.593  0.499-  58 1.96  57 1.97  55 1.99  56 2.00
 
  LATTYP: Found a triclinic cell.
 ALAT       =    26.7104922312
 B/A-ratio  =     0.4801671152
 C/A-ratio  =     0.4660902499
 COS(alpha) =     0.0109447412
 COS(beta)  =     0.4549354038
 COS(gamma) =     0.4929166768
  
  Lattice vectors:
  
 A1 = (  13.1660470656, -12.0081688254, -19.8974742457)
 A2 = (  12.8255000000,   0.0000000000,   0.0000000000)
 A3 = (   0.1362565558, -12.4487543313,   0.0000000000)


Analysis of symmetry for initial positions (statically):
=====================================================================
 Subroutine PRICEL returns:
 Original cell was already a primitive cell.
 

 Routine SETGRP: Setting up the symmetry group for a 
 triclinic supercell.


 Subroutine GETGRP returns: Found  1 space group operations
 (whereof  1 operations were pure point group operations)
 out of a pool of  2 trial point group operations.


The static configuration has the point symmetry C_1 .


Analysis of symmetry for dynamics (positions and initial velocities):
=====================================================================
 Subroutine PRICEL returns:
 Original cell was already a primitive cell.
 

 Routine SETGRP: Setting up the symmetry group for a 
 triclinic supercell.


 Subroutine GETGRP returns: Found  1 space group operations
 (whereof  1 operations were pure point group operations)
 out of a pool of  2 trial point group operations.


The dynamic configuration has the point symmetry C_1 .


Analysis of structural, dynamic, and magnetic symmetry:
=====================================================================
 Subroutine PRICEL returns:
 Original cell was already a primitive cell.
 

 Routine SETGRP: Setting up the symmetry group for a 
 triclinic supercell.


 Subroutine GETGRP returns: Found  1 space group operations
 (whereof  1 operations were pure point group operations)
 out of a pool of  2 trial point group operations.


The magnetic configuration has the point symmetry C_1 .


 Subroutine INISYM returns: Found  1 space group operations
 (whereof  1 operations are pure point group operations),
 and found     1 'primitive' translations

 
 
 KPOINTS: KPOINTS created by Atomic Simulation Env

Automatic generation of k-mesh.
Space group operators:
 irot       det(A)        alpha          n_x          n_y          n_z        tau_x        tau_y        tau_z
    1     1.000000     0.000000     1.000000     0.000000     0.000000     0.000000     0.000000     0.000000
 
 Subroutine IBZKPT returns following result:
 ===========================================
 
 Found      2 irreducible k-points:
 
 Following reciprocal coordinates:
            Coordinates               Weight
  0.250000  0.250000  0.000000      2.000000
 -0.250000  0.250000  0.000000      2.000000
 
 Following cartesian coordinates:
            Coordinates               Weight
  0.019492  0.020296  0.000650      2.000000
 -0.019492  0.019869  0.000240      2.000000
 
 
 Subroutine IBZKPT_HF returns following result:
 ==============================================
 
 Found      4 k-points in 1st BZ
 the following      4 k-points will be used (e.g. in the exchange kernel)
 Following reciprocal coordinates:   # in IRBZ
  0.250000  0.250000  0.000000    0.25000000   1 t-inv F
 -0.250000  0.250000  0.000000    0.25000000   2 t-inv F
 -0.250000 -0.250000 -0.000000    0.25000000   1 t-inv T
  0.250000 -0.250000  0.000000    0.25000000   2 t-inv T


--------------------------------------------------------------------------------------------------------




 Dimension of arrays:
   k-points           NKPTS =      2   k-points in BZ     NKDIM =      4   number of bands    NBANDS=    157
   number of dos      NEDOS =    301   number of ions     NIONS =     59
   non local maximal  LDIM  =      6   non local SUM 2l+1 LMDIM =     18
   total plane-waves  NPLWV = ******
   max r-space proj   IRMAX =      1   max aug-charges    IRDMAX=  22427
   dimension x,y,z NGX =    96 NGY =   96 NGZ =  150
   dimension x,y,z NGXF=   192 NGYF=  192 NGZF=  300
   support grid    NGXF=   192 NGYF=  192 NGZF=  300
   ions per type =              52   5   1   1
   NGX,Y,Z   is equivalent  to a cutoff of  12.44, 12.82, 12.53 a.u.
   NGXF,Y,Z  is equivalent  to a cutoff of  24.89, 25.64, 25.06 a.u.

 SYSTEM =  unknown system                          
 POSCAR =   C  N Fe Cr                             

 Startparameter for this run:
   NWRITE =      2    write-flag & timer
   PREC   = accura    normal or accurate (medium, high low for compatibility)
   ISTART =      1    job   : 0-new  1-cont  2-samecut
   ICHARG =      0    charge: 1-file 2-atom 10-const
   ISPIN  =      2    spin polarized calculation?
   LNONCOLLINEAR =      F non collinear calculations
   LSORBIT =      F    spin-orbit coupling
   INIWAV =      1    electr: 0-lowe 1-rand  2-diag
   LASPH  =      T    aspherical Exc in radial PAW
   METAGGA=      F    non-selfconsistent MetaGGA calc.

 Electronic Relaxation 1
   ENCUT  =  500.0 eV  36.75 Ry    6.06 a.u.  23.38 22.70 36.29*2*pi/ulx,y,z
   ENINI  =  500.0     initial cutoff
   ENAUG  =  644.9 eV  augmentation charge cutoff
   NELM   =    250;   NELMIN=  2; NELMDL=  0     # of ELM steps 
   EDIFF  = 0.1E-03   stopping-criterion for ELM
   LREAL  =      F    real-space projection
   NLSPLINE    = F    spline interpolate recip. space projectors
   LCOMPAT=      F    compatible to vasp.4.4
   GGA_COMPAT  = T    GGA compatible to vasp.4.4-vasp.4.6
   LMAXPAW     = -100 max onsite density
   LMAXMIX     =    2 max onsite mixed and CHGCAR
   VOSKOWN=      0    Vosko Wilk Nusair interpolation
   ROPT   =    0.00000   0.00000   0.00000   0.00000
 Ionic relaxation
   EDIFFG = -.3E-01   stopping-criterion for IOM
   NSW    =      0    number of steps for IOM
   NBLOCK =      1;   KBLOCK =      1    inner block; outer block 
   IBRION =     -1    ionic relax: 0-MD 1-quasi-New 2-CG
   NFREE  =      1    steps in history (QN), initial steepest desc. (CG)
   ISIF   =      2    stress and relaxation
   IWAVPR =     10    prediction:  0-non 1-charg 2-wave 3-comb
   ISYM   =      3    0-nonsym 1-usesym 2-fastsym
   LCORR  =      T    Harris-Foulkes like correction to forces

   POTIM  = 0.5000    time-step for ionic-motion
   TEIN   =    0.0    initial temperature
   TEBEG  =    0.0;   TEEND  =   0.0 temperature during run
   SMASS  =  -3.00    Nose mass-parameter (am)
   estimated Nose-frequenzy (Omega)   =  0.10E-29 period in steps =****** mass=  -0.376E-26a.u.
   SCALEE = 1.0000    scale energy and forces
   NPACO  =    256;   APACO  = 16.0  distance and # of slots for P.C.
   PSTRESS=    0.0 pullay stress

  Mass of Ions in am
   POMASS =  12.01 14.00 55.85 52.00
  Ionic Valenz
   ZVAL   =   4.00  5.00  8.00  6.00
  Atomic Wigner-Seitz radii
   RWIGS  =  -1.00 -1.00 -1.00 -1.00
  virtual crystal weights 
   VCA    =   1.00  1.00  1.00  1.00
   NELECT =     247.0000    total number of electrons
   NUPDOWN=      -1.0000    fix difference up-down

 DOS related values:
   EMIN   =  10.00;   EMAX   =-10.00  energy-range for DOS
   EFERMI =   0.00
   ISMEAR =     0;   SIGMA  =   0.10  broadening in eV -4-tet -1-fermi 0-gaus

 Electronic relaxation 2 (details)
   IALGO  =     53    algorithm
   LDIAG  =      T    sub-space diagonalisation (order eigenvalues)
   LSUBROT=      F    optimize rotation matrix (better conditioning)
   TURBO    =      0    0=normal 1=particle mesh
   IRESTART =      0    0=no restart 2=restart with 2 vectors
   NREBOOT  =      0    no. of reboots
   NMIN     =      0    reboot dimension
   EREF     =   0.00    reference energy to select bands
   IMIX   =      4    mixing-type and parameters
     AMIX     =   0.40;   BMIX     =  1.00
     AMIX_MAG =   1.60;   BMIX_MAG =  1.00
     AMIN     =   0.10
     WC   =   100.;   INIMIX=   1;  MIXPRE=   1;  MAXMIX= -45

 Intra band minimization:
   WEIMIN = 0.0000     energy-eigenvalue tresh-hold
   EBREAK =  0.16E-06  absolut break condition
   DEPER  =   0.30     relativ break condition  

   TIME   =   0.20     timestep for ELM

  volume/ion in A,a.u.               =      53.85       363.36
  Fermi-wavevector in a.u.,A,eV,Ry     =   0.698727  1.320403  6.642636  0.488220
  Thomas-Fermi vector in A             =   1.782411
 
 Write flags
   LWAVE        =      T    write WAVECAR
   LDOWNSAMPLE  =      F    k-point downsampling of WAVECAR
   LCHARG       =      T    write CHGCAR
   LVTOT        =      F    write LOCPOT, total local potential
   LVHAR        =      F    write LOCPOT, Hartree potential only
   LELF         =      F    write electronic localiz. function (ELF)
   LORBIT       =     11    0 simple, 1 ext, 2 COOP (PROOUT), +10 PAW based schemes


 Dipole corrections
   LMONO  =      F    monopole corrections only (constant potential shift)
   LDIPOL =      T    correct potential (dipole corrections)
   IDIPOL =      3    1-x, 2-y, 3-z, 4-all directions 
   EPSILON=  1.0000000 bulk dielectric constant

 Exchange correlation treatment:
   GGA     =    PE    GGA type
   LEXCH   =     8    internal setting for exchange type
   VOSKOWN=      0    Vosko Wilk Nusair interpolation
   EXXOEP  =     0    0=HF, 1=EXX-LHF (local Hartree Fock) 2=EXX OEP
   LHFCALC =     T    Hartree Fock is set to
   LSYMGRAD=     F    symmetrize gradient (conserves proper symmetry)
   PRECFOCK=normal    Normal, Fast or Accurate (Low or Medium for compatibility)
   LRHFCALC=     F    long range Hartree Fock
   LRSCOR  =     F    long range correlation only (use DFT for short range part)
   LTHOMAS =     F    Thomas Fermi screening in HF
   LMODELHF=     F    short range full HF, long range fraction AEXX
   ENCUT4O =  -1.0   cutoff for four orbital integrals eV
   LMAXFOCK=     4    L truncation for augmentation on plane wave grid
   LMAXFOCKAE=  -1    L truncation for all-electron charge restoration on plane wave grid
   NMAXFOCKAE=   1    number of basis functions for all-electron charge restoration
   LFOCKAEDFT=     F  apply the AE augmentation even for DFT
   NKREDX  =     1    reduce k-point grid by
   NKREDY  =     1    reduce k-point grid by
   NKREDZ  =     1    reduce k-point grid by
   SHIFTRED=     F    shift reduced grid of Gamma
   HFKIDENT=     F    idential grid for each k-point
   ODDONLY =     F    use only odd q-grid points
   EVENONLY=     F    use only even q-grid points
   HFALPHA =   -1.0000 decay constant for conv. correction
   MCALPHA =    0.0000 extent of test-charge in conv. correction in multipole expansion
   AEXX    =    0.2500 exact exchange contribution
   HFSCREEN=    0.2000 screening length (either q_TF or 0.3 A-1)
   HFSCREENC=   0.2000 screening length for correlation (either q_TF or 0.3 A-1)
   HFRCUT  =    0.0000 spherical cutoff for potential kernel
   ALDAX   =    0.7500 LDA exchange part
   AGGAX   =    0.7500 GGA exchange part
   ALDAC   =    1.0000 LDA correlation
   AGGAC   =    1.0000 GGA correlation
   ENCUTFOCK=  -1.0 apply spherical cutoff to Coloumb kernel
   NBANDSGWLOW=     1    first orbital included in HF term
   NBLOCK_FOCK=    64    blocking factor in FOCK_ACC
 Linear response parameters
   LEPSILON=     F    determine dielectric tensor
   LRPA    =     F    only Hartree local field effects (RPA)
   LNABLA  =     F    use nabla operator in PAW spheres
   LVEL    =     F    velocity operator in full k-point grid
   LINTERFAST=   F  fast interpolation
   KINTER  =     0    interpolate to denser k-point grid
   CSHIFT  =0.1000    complex shift for real part using Kramers Kronig
   OMEGAMAX=  -1.0    maximum frequency
   DEG_THRESHOLD= 0.2000000E-02 threshold for treating states as degnerate
   RTIME   =   -0.100 relaxation time in fs
  (WPLASMAI=    0.000 imaginary part of plasma frequency in eV, 0.658/RTIME)
   DFIELD  = 0.0000000 0.0000000 0.0000000 field for delta impulse in time
 
 Orbital magnetization related:
   ORBITALMAG=     F  switch on orbital magnetization
   LCHIMAG   =     F  perturbation theory with respect to B field
   DQ        =  0.001000  dq finite difference perturbation B field
   LLRAUG    =     F  two centre corrections for induced B field



--------------------------------------------------------------------------------------------------------


 Static calculation
 charge density and potential will be updated during run
 spin polarized calculation
 Conjugate gradient for all bands (Freysoldt, et al. PRB 79, 241103 (2009))
 perform sub-space diagonalisation
    before iterative eigenvector-optimisation
 modified Broyden-mixing scheme, WC =      100.0
 initial mixing is a Kerker type mixing with AMIX =  0.4000 and BMIX =      1.0000
 Hartree-type preconditioning will be used
 using additional bands           33
 reciprocal scheme for non local part
 use partial core corrections
 no Harris-corrections to forces 
 use gradient corrections 
 use of overlap-Matrix (Vanderbilt PP)
 Gauss-broadening in eV      SIGMA  =   0.10


--------------------------------------------------------------------------------------------------------


  energy-cutoff  :      500.00
  volume of cell :     3176.86
      direct lattice vectors                 reciprocal lattice vectors
    12.825500000  0.000000000  0.000000000     0.077969670  0.000853409  0.000819424
    -0.136256556 12.448754331  0.000000000     0.000000000  0.080329322  0.001778715
    -0.204290510 -0.440585506 19.897474246     0.000000000  0.000000000  0.050257635

  length of vectors
    12.825500000 12.449500000 19.903400000     0.077978646  0.080349013  0.050257635


 
 old parameters found on file WAVECAR:
  energy-cutoff  :      500.00
  volume of cell :     3176.86
      direct lattice vectors                 reciprocal lattice vectors
    12.825500000  0.000000000  0.000000000     0.077969670  0.000853409  0.000819424
    -0.136256556 12.448754331  0.000000000     0.000000000  0.080329322  0.001778715
    -0.204290510 -0.440585506 19.897474246     0.000000000  0.000000000  0.050257635

  length of vectors

 
 k-points in units of 2pi/SCALE and weight: KPOINTS created by Atomic Simulation Env
   0.01949242  0.02029568  0.00064953       0.500
  -0.01949242  0.01986898  0.00023982       0.500
 
 k-points in reciprocal lattice and weights: KPOINTS created by Atomic Simulation Env
   0.25000000  0.25000000  0.00000000       0.500
  -0.25000000  0.25000000  0.00000000       0.500
 
 position of ions in fractional coordinates (direct lattice) 
   0.22218175  0.00291202  0.49889252
   0.05761733  0.10255259  0.49730947
   0.11094779  0.00208515  0.49759314
   0.27829114  0.10382866  0.50163795
   0.22543917  0.20562081  0.50401885
   0.05780964  0.30292257  0.49894093
   0.11354475  0.20368428  0.49993321
   0.28244921  0.30684869  0.51039923
   0.22365209  0.40801950  0.50912642
   0.05440556  0.50350163  0.50022659
   0.11200190  0.40427242  0.50168322
   0.22092427  0.60446948  0.50463158
   0.05280822  0.70204096  0.49737319
   0.10946653  0.60395542  0.50024764
   0.27897388  0.70403492  0.49996192
   0.22134951  0.80221357  0.49789741
   0.05493836  0.90169482  0.49647116
   0.10953981  0.80165045  0.49730441
   0.27644554  0.90343244  0.49790857
   0.55516926  0.00086848  0.49708930
   0.38902259  0.10139028  0.50109305
   0.44425809  0.00219720  0.49833074
   0.61265575  0.09861703  0.49752545
   0.55777245  0.19623893  0.50193066
   0.39523342  0.29995265  0.51358218
   0.44664453  0.19942693  0.50478007
   0.61591213  0.29300255  0.50224608
   0.56292848  0.38898899  0.51139936
   0.55403853  0.80410021  0.49672918
   0.38796554  0.90313847  0.49784090
   0.44178499  0.80427702  0.49737780
   0.60988416  0.90224083  0.49611126
   0.88977984  0.00068475  0.49465077
   0.72381490  0.09933864  0.49529625
   0.77827142  0.99994419  0.49459696
   0.94631349  0.10102660  0.49521820
   0.89163902  0.20059408  0.49511633
   0.72589441  0.29702577  0.49757492
   0.78063368  0.19868727  0.49518479
   0.94607100  0.30164289  0.49661640
   0.88942539  0.40092171  0.49753850
   0.71827626  0.49577142  0.50131730
   0.77833985  0.39872060  0.49869624
   0.94246499  0.50243132  0.49834785
   0.88346536  0.60085894  0.49761322
   0.71438844  0.70149354  0.49767338
   0.76972032  0.59963030  0.49862733
   0.94060615  0.70047175  0.49659313
   0.88605938  0.80022745  0.49579790
   0.72130337  0.90099931  0.49541486
   0.77425812  0.80006814  0.49615250
   0.94325213  0.90050888  0.49537993
   0.27205252  0.50779159  0.51590155
   0.45807807  0.38955235  0.52562951
   0.61132548  0.48705731  0.50686978
   0.38820921  0.70639679  0.49819400
   0.60622044  0.70665758  0.49715690
   0.40191511  0.51562811  0.55766558
   0.49754531  0.59325876  0.49943244
 
 position of ions in cartesian coordinates  (Angst):
   2.74727629 -0.18355382  9.92670102
   0.62340194  1.05754464  9.89520233
   1.32102325 -0.19327476  9.90084676
   3.45259578  1.07152305  9.98132812
   2.76038667  2.33765961 10.02870213
   0.59823342  3.55118255  9.92766430
   1.32638329  2.31535228  9.94740815
   3.47647247  3.59500950 10.15565561
   2.70884480  4.85502080 10.13032987
   0.52698158  6.04757557  9.95324568
   1.27890650  4.81165370  9.98222903
   2.64800992  7.30255871 10.04089390
   0.48002558  8.52040006  9.89647022
   1.21947427  7.29809082  9.95366447
   3.37991265  8.54408174  9.94797952
   2.62789558  9.76719326  9.90690091
   0.48032574 11.00623925  9.87852220
   1.19407807  9.76044439  9.89510169
   3.32073569 11.02723714  9.90712303
   7.01865442 -0.20819879  9.89082153
   4.87322561  1.04140838  9.97048599
   5.59572849 -0.19220490  9.91552303
   7.74253941  1.00845665  9.89949975
   7.02443198  2.22178689  9.98715246
   4.92327573  3.50776004 10.21898825
   5.59814438  2.26021807 10.04384852
   7.75685336  3.42623442  9.99342849
   7.06236288  4.61711321 10.17555562
   6.89478023  9.79119433  9.88365609
   4.75108927 11.02360744  9.90577643
   5.45491575  9.79310955  9.89656204
   7.59778220 11.01319504  9.87136106
  11.31072559 -0.20941165  9.84230094
   9.16856819  1.01842200  9.85514432
   9.74442968 12.23014735  9.84123034
  12.02200969  1.03946930  9.85359146
  11.30723646  2.27900537  9.85156450
   9.16783727  3.47837653  9.90048410
   9.88378321  2.25523774  9.85292664
  11.99127876  3.53627622  9.88141203
  11.25105472  4.77176760  9.89975943
   9.04228565  5.95086343  9.97494803
   9.82639049  4.74385643  9.92279568
  11.91731745  6.03507919  9.91586347
  11.14735633  7.26070418  9.90124629
   8.96513592  8.51345310  9.90244320
   9.68847956  7.24496236  9.92142438
  11.86685105  8.50120905  9.88094899
  11.15383155  9.74339354  9.86512590
   9.02710071 10.99804645  9.85750450
   9.71987373  9.74125415  9.87218165
  11.87377848 10.99195659  9.85680950
   3.31462585  6.09407398 10.26513784
   5.71462005  4.61785671 10.45869959
   7.67064156  5.83993726 10.08542848
   4.78094967  8.57426304  9.91280228
   7.57722909  8.57796647  9.89216669
   4.97057868  6.17322830 11.09613659
   6.19840270  7.16528989  9.93744402
 


--------------------------------------------------------------------------------------------------------


 k-point  1 :   0.2500 0.2500 0.0000  plane waves:   80646
 k-point  2 :  -0.2500 0.2500 0.0000  plane waves:   80629

 maximum and minimum number of plane-waves per node :      3386     3328

 maximum number of plane-waves:     80646
 maximum index in each direction: 
   IXMAX=   23   IYMAX=   22   IZMAX=   36
   IXMIN=  -23   IYMIN=  -22   IZMIN=  -36


 parallel 3D FFT for wavefunctions:
    minimum data exchange during FFTs selected (reduces bandwidth)
 parallel 3D FFT for charge:
    minimum data exchange during FFTs selected (reduces bandwidth)


 FFT grid for exact exchange (Hartree Fock) 
  NGX = 72; NGY = 70; NGZ =112

 
 Radii for the augmentation spheres in the non-local exchange
 for species   1 augmentation radius   0.874 (default was   0.699)
       energy cutoff for augmentation   2000.0
 for species   2 augmentation radius   0.886 (default was   0.709)
       energy cutoff for augmentation   2000.0
 for species   3 augmentation radius   1.263 (default was   1.010)
       energy cutoff for augmentation   2000.0
 for species   4 augmentation radius   1.424 (default was   1.139)
       energy cutoff for augmentation   2000.0

 real space projection operators:
  total allocation   :       2699.00 KBytes
  max/ min on nodes  :        173.42         60.73

 Maximum index for augmentation-charges in exchange           82
  SETUP_FOCK is finished

 total amount of memory used by VASP MPI-rank0   210600. kBytes
=======================================================================

   base      :      30000. kBytes
   nonl-proj :       7113. kBytes
   fftplans  :      18630. kBytes
   grid      :      49102. kBytes
   one-center:         93. kBytes
   HF        :         23. kBytes
   nonlr-proj:       2307. kBytes
   wavefun   :     103332. kBytes
 
     INWAV:  cpu time    3.5666: real time    6.1237
 Broyden mixing: mesh for mixing (old mesh)
   NGX = 47   NGY = 45   NGZ = 73
  (NGX  =192   NGY  =192   NGZ  =300)
  gives a total of 154395 points

 charge density for first step will be calculated from the start-wavefunctions


--------------------------------------------------------------------------------------------------------


 Maximum index for augmentation-charges          950 (set IRDMAX)


--------------------------------------------------------------------------------------------------------


 initial charge from wavefunction
 First call to EWALD:  gamma=   0.121
 Maximum number of real-space cells 3x 3x 2
 Maximum number of reciprocal cells 2x 2x 4

    FEWALD:  cpu time    0.0029: real time    0.0029


--------------------------------------- Iteration      1(   1)  ---------------------------------------


    POTLOK:  cpu time    2.2077: real time    2.2101
    SETDIJ:  cpu time    2.0787: real time    2.0810
    TRIAL :  cpu time  347.6123: real time  347.9640
    CORREC:  cpu time    0.0009: real time    0.0009
    CHARGE:  cpu time    1.4117: real time    1.4127
    --------------------------------------------
      LOOP:  cpu time  353.3463: real time  353.7052

 eigenvalue-minimisations  :     0
 total energy-change (2. order) :-0.6198043E+03  (-0.4640620E+00)
 number of electron     247.0000003 magnetization       2.9814656
 augmentation part       12.8447043 magnetization       1.7368914

 DIPCOR: dipole corrections for dipol
 direction  3 min pos     1,
 dipolmoment           0.001034      0.002229     -0.100667 electrons x Angstroem
 Tr[quadrupol]     -6777.151856

 energy correction for charged system         0.000000 eV
 dipol+quadrupol energy correction           -0.000290 eV
 added-field ion interaction          0.059683 eV  (added to PSCEN)


 Free energy of the ion-electron system (eV)
  ---------------------------------------------------
  alpha Z        PSCENC =       103.53875455
  Ewald energy   TEWEN  =     39636.80279957
  -Hartree energ DENC   =    -48035.93279367
  -exchange      EXHF   =       557.69811612
  -V(xc)+E(xc)   XCENC  =       614.04116545
  PAW double counting   =     26551.79715978   -26574.91139815
  entropy T*S    EENTRO =        -0.02232944
  eigenvalues    EBANDS =     -3202.90650339
  atomic energy  EATOM  =      9730.09478762
  ---------------------------------------------------
  free energy    TOTEN  =      -619.80426013 eV

  energy without entropy =     -619.78193069  energy(sigma->0) =     -619.79309541
  exchange ACFDT corr.  =        -0.03796912  see jH, gK, PRB 81, 115126


--------------------------------------------------------------------------------------------------------




--------------------------------------- Iteration      1(   2)  ---------------------------------------


    POTLOK:  cpu time    2.2370: real time    2.2399
    SETDIJ:  cpu time    2.0862: real time    2.0872
    TRIAL :  cpu time  347.4466: real time  347.8137
    CORREC:  cpu time    0.0010: real time    0.0010
    CHARGE:  cpu time    1.4275: real time    1.4282
    --------------------------------------------
      LOOP:  cpu time  353.1995: real time  353.5736

 eigenvalue-minimisations  :     0
 total energy-change (2. order) :-0.3874498E+00  (-0.4255157E+00)
 number of electron     247.0000003 magnetization       2.9892615
 augmentation part       12.8146482 magnetization       1.7643410

 DIPCOR: dipole corrections for dipol
 direction  3 min pos     1,
 dipolmoment           0.001093      0.002357     -0.106439 electrons x Angstroem
 Tr[quadrupol]     -6776.982007

 energy correction for charged system         0.000000 eV
 dipol+quadrupol energy correction           -0.000324 eV
 added-field ion interaction          0.063104 eV  (added to PSCEN)


 Free energy of the ion-electron system (eV)
  ---------------------------------------------------
  alpha Z        PSCENC =       103.54214198
  Ewald energy   TEWEN  =     39636.80279957
  -Hartree energ DENC   =    -48020.38538240
  -exchange      EXHF   =       557.58203010
  -V(xc)+E(xc)   XCENC  =       613.66281598
  PAW double counting   =     26685.62154606   -26708.17998588
  entropy T*S    EENTRO =        -0.01716951
  eigenvalues    EBANDS =     -3218.91013356
  atomic energy  EATOM  =      9730.09478762
  ---------------------------------------------------
  free energy    TOTEN  =      -620.19170996 eV

  energy without entropy =     -620.17454044  energy(sigma->0) =     -620.18312520
  exchange ACFDT corr.  =        -0.02874645  see jH, gK, PRB 81, 115126


--------------------------------------------------------------------------------------------------------




--------------------------------------- Iteration      1(   3)  ---------------------------------------


    POTLOK:  cpu time    2.2640: real time    2.2657
    SETDIJ:  cpu time    2.0801: real time    2.0816
    TRIAL :  cpu time  347.7647: real time  348.6499
    CORREC:  cpu time    0.0010: real time    0.0010
    CHARGE:  cpu time    1.4065: real time    1.4073
    --------------------------------------------
      LOOP:  cpu time  353.5170: real time  354.4090

 eigenvalue-minimisations  :     0
 total energy-change (2. order) :-0.3340813E+00  (-0.2688015E+00)
 number of electron     247.0000003 magnetization       2.9937927
 augmentation part       12.8181999 magnetization       1.7861409

 DIPCOR: dipole corrections for dipol
 direction  3 min pos     1,
 dipolmoment           0.001303      0.002809     -0.126881 electrons x Angstroem
 Tr[quadrupol]     -6776.844820

 energy correction for charged system         0.000000 eV
 dipol+quadrupol energy correction           -0.000461 eV
 added-field ion interaction          0.075224 eV  (added to PSCEN)


 Free energy of the ion-electron system (eV)
  ---------------------------------------------------
  alpha Z        PSCENC =       103.55412495
  Ewald energy   TEWEN  =     39636.80279957
  -Hartree energ DENC   =    -48005.56451529
  -exchange      EXHF   =       557.54789324
  -V(xc)+E(xc)   XCENC  =       613.29019996
  PAW double counting   =     26856.15102393   -26878.37132183
  entropy T*S    EENTRO =        -0.01299167
  eigenvalues    EBANDS =     -3234.01361390
  atomic energy  EATOM  =      9730.09478762
  ---------------------------------------------------
  free energy    TOTEN  =      -620.52579127 eV

  energy without entropy =     -620.51279959  energy(sigma->0) =     -620.51929543
  exchange ACFDT corr.  =        -0.01988031  see jH, gK, PRB 81, 115126


--------------------------------------------------------------------------------------------------------




--------------------------------------- Iteration      1(   4)  ---------------------------------------


    POTLOK:  cpu time    2.2717: real time    2.2731
    SETDIJ:  cpu time    2.0780: real time    2.0801
    TRIAL :  cpu time  347.3832: real time  347.7039
    CORREC:  cpu time    0.0010: real time    0.0010
    CHARGE:  cpu time    1.4055: real time    1.4078
    --------------------------------------------
      LOOP:  cpu time  353.1402: real time  353.4694

 eigenvalue-minimisations  :     0
 total energy-change (2. order) :-0.2137937E+00  (-0.1750624E+00)
 number of electron     247.0000003 magnetization       2.9959487
 augmentation part       12.8301872 magnetization       1.7940603

 DIPCOR: dipole corrections for dipol
 direction  3 min pos     1,
 dipolmoment           0.001445      0.003116     -0.140723 electrons x Angstroem
 Tr[quadrupol]     -6776.820862

 energy correction for charged system         0.000000 eV
 dipol+quadrupol energy correction           -0.000567 eV
 added-field ion interaction          0.083431 eV  (added to PSCEN)


 Free energy of the ion-electron system (eV)
  ---------------------------------------------------
  alpha Z        PSCENC =       103.56222561
  Ewald energy   TEWEN  =     39636.80279957
  -Hartree energ DENC   =    -48000.08841795
  -exchange      EXHF   =       557.72748780
  -V(xc)+E(xc)   XCENC  =       613.16289132
  PAW double counting   =     26999.92052054   -27022.21492623
  entropy T*S    EENTRO =        -0.01021385
  eigenvalues    EBANDS =     -3239.69396157
  atomic energy  EATOM  =      9730.09478762
  ---------------------------------------------------
  free energy    TOTEN  =      -620.73958496 eV

  energy without entropy =     -620.72937111  energy(sigma->0) =     -620.73447803
  exchange ACFDT corr.  =        -0.01216533  see jH, gK, PRB 81, 115126


--------------------------------------------------------------------------------------------------------




--------------------------------------- Iteration      1(   5)  ---------------------------------------


    POTLOK:  cpu time    2.2707: real time    2.2718
    SETDIJ:  cpu time    2.0780: real time    2.0791
    TRIAL :  cpu time  346.0053: real time  346.3289
    CORREC:  cpu time    0.0013: real time    0.0013
    CHARGE:  cpu time    1.4110: real time    1.4119
    --------------------------------------------
      LOOP:  cpu time  351.7671: real time  352.0979

 eigenvalue-minimisations  :     0
 total energy-change (2. order) :-0.1461614E+00  (-0.1271630E+00)
 number of electron     247.0000003 magnetization       2.9970876
 augmentation part       12.8371792 magnetization       1.7922353

 DIPCOR: dipole corrections for dipol
 direction  3 min pos     1,
 dipolmoment           0.001522      0.003282     -0.148214 electrons x Angstroem
 Tr[quadrupol]     -6776.879437

 energy correction for charged system         0.000000 eV
 dipol+quadrupol energy correction           -0.000629 eV
 added-field ion interaction          0.087871 eV  (added to PSCEN)


 Free energy of the ion-electron system (eV)
  ---------------------------------------------------
  alpha Z        PSCENC =       103.56660456
  Ewald energy   TEWEN  =     39636.80279957
  -Hartree energ DENC   =    -48001.92861255
  -exchange      EXHF   =       558.05507603
  -V(xc)+E(xc)   XCENC  =       613.24476274
  PAW double counting   =     27101.29219805   -27123.72946402
  entropy T*S    EENTRO =        -0.00830947
  eigenvalues    EBANDS =     -3238.27368448
  atomic energy  EATOM  =      9730.09478762
  ---------------------------------------------------
  free energy    TOTEN  =      -620.88574633 eV

  energy without entropy =     -620.87743685  energy(sigma->0) =     -620.88159159
  exchange ACFDT corr.  =        -0.00829787  see jH, gK, PRB 81, 115126


--------------------------------------------------------------------------------------------------------




--------------------------------------- Iteration      1(   6)  ---------------------------------------


    POTLOK:  cpu time    2.2649: real time    2.2663
    SETDIJ:  cpu time    2.0778: real time    2.0787
    TRIAL :  cpu time  346.1835: real time  346.4953
    CORREC:  cpu time    0.0010: real time    0.0010
    CHARGE:  cpu time    1.4100: real time    1.4113
    --------------------------------------------
      LOOP:  cpu time  351.9380: real time  352.2559

 eigenvalue-minimisations  :     0
 total energy-change (2. order) :-0.1100189E+00  (-0.9624220E-01)
 number of electron     247.0000003 magnetization       2.9978337
 augmentation part       12.8420928 magnetization       1.7874527

 DIPCOR: dipole corrections for dipol
 direction  3 min pos     1,
 dipolmoment           0.001590      0.003429     -0.154874 electrons x Angstroem
 Tr[quadrupol]     -6776.960179

 energy correction for charged system         0.000000 eV
 dipol+quadrupol energy correction           -0.000687 eV
 added-field ion interaction          0.091820 eV  (added to PSCEN)


 Free energy of the ion-electron system (eV)
  ---------------------------------------------------
  alpha Z        PSCENC =       103.57049543
  Ewald energy   TEWEN  =     39636.80279957
  -Hartree energ DENC   =    -48006.22780936
  -exchange      EXHF   =       558.40361424
  -V(xc)+E(xc)   XCENC  =       613.40514560
  PAW double counting   =     27166.06776465   -27188.54846593
  entropy T*S    EENTRO =        -0.00686271
  eigenvalues    EBANDS =     -3234.55578759
  atomic energy  EATOM  =      9730.09478762
  ---------------------------------------------------
  free energy    TOTEN  =      -620.99576524 eV

  energy without entropy =     -620.98890253  energy(sigma->0) =     -620.99233388
  exchange ACFDT corr.  =        -0.00613164  see jH, gK, PRB 81, 115126


--------------------------------------------------------------------------------------------------------




--------------------------------------- Iteration      1(   7)  ---------------------------------------


    POTLOK:  cpu time    2.2566: real time    2.2578
    SETDIJ:  cpu time    2.0821: real time    2.0831
    TRIAL :  cpu time  345.8534: real time  346.1335
    CORREC:  cpu time    0.0009: real time    0.0009
    CHARGE:  cpu time    1.4063: real time    1.4071
    --------------------------------------------
      LOOP:  cpu time  351.6002: real time  351.8857

 eigenvalue-minimisations  :     0
 total energy-change (2. order) :-0.8543623E-01  (-0.7555359E-01)
 number of electron     247.0000003 magnetization       2.9983588
 augmentation part       12.8492380 magnetization       1.7836835

 DIPCOR: dipole corrections for dipol
 direction  3 min pos     1,
 dipolmoment           0.001649      0.003556     -0.160601 electrons x Angstroem
 Tr[quadrupol]     -6777.025979

 energy correction for charged system         0.000000 eV
 dipol+quadrupol energy correction           -0.000738 eV
 added-field ion interaction          0.095215 eV  (added to PSCEN)


 Free energy of the ion-electron system (eV)
  ---------------------------------------------------
  alpha Z        PSCENC =       103.57383903
  Ewald energy   TEWEN  =     39636.80279957
  -Hartree energ DENC   =    -48010.15703856
  -exchange      EXHF   =       558.69945047
  -V(xc)+E(xc)   XCENC  =       613.56013028
  PAW double counting   =     27204.81709298   -27227.30852887
  entropy T*S    EENTRO =        -0.00572135
  eigenvalues    EBANDS =     -3231.15687128
  atomic energy  EATOM  =      9730.09478762
  ---------------------------------------------------
  free energy    TOTEN  =      -621.08120147 eV

  energy without entropy =     -621.07548012  energy(sigma->0) =     -621.07834079
  exchange ACFDT corr.  =        -0.00471709  see jH, gK, PRB 81, 115126


--------------------------------------------------------------------------------------------------------




--------------------------------------- Iteration      1(   8)  ---------------------------------------


    POTLOK:  cpu time    2.2495: real time    2.2505
    SETDIJ:  cpu time    2.0844: real time    2.0864
    TRIAL :  cpu time  346.1744: real time  346.4907
    CORREC:  cpu time    0.0010: real time    0.0010
    CHARGE:  cpu time    1.4037: real time    1.4047
    --------------------------------------------
      LOOP:  cpu time  351.9136: real time  352.2367

 eigenvalue-minimisations  :     0
 total energy-change (2. order) :-0.6870191E-01  (-0.6190540E-01)
 number of electron     247.0000003 magnetization       2.9987103
 augmentation part       12.8574454 magnetization       1.7808874

 DIPCOR: dipole corrections for dipol
 direction  3 min pos     1,
 dipolmoment           0.001688      0.003641     -0.164419 electrons x Angstroem
 Tr[quadrupol]     -6777.066933

 energy correction for charged system         0.000000 eV
 dipol+quadrupol energy correction           -0.000774 eV
 added-field ion interaction          0.097479 eV  (added to PSCEN)


 Free energy of the ion-electron system (eV)
  ---------------------------------------------------
  alpha Z        PSCENC =       103.57606697
  Ewald energy   TEWEN  =     39636.80279957
  -Hartree energ DENC   =    -48012.83436476
  -exchange      EXHF   =       558.92564964
  -V(xc)+E(xc)   XCENC  =       613.68082315
  PAW double counting   =     27226.83057628   -27249.37686717
  entropy T*S    EENTRO =        -0.00483639
  eigenvalues    EBANDS =     -3228.84365334
  atomic energy  EATOM  =      9730.09478762
  ---------------------------------------------------
  free energy    TOTEN  =      -621.14990338 eV

  energy without entropy =     -621.14506699  energy(sigma->0) =     -621.14748519
  exchange ACFDT corr.  =        -0.00372177  see jH, gK, PRB 81, 115126


--------------------------------------------------------------------------------------------------------




--------------------------------------- Iteration      1(   9)  ---------------------------------------


    POTLOK:  cpu time    2.2423: real time    2.2450
    SETDIJ:  cpu time    2.0814: real time    2.0823
    TRIAL :  cpu time  346.8497: real time  347.1659
    CORREC:  cpu time    0.0010: real time    0.0010
    CHARGE:  cpu time    1.4051: real time    1.4064
    --------------------------------------------
      LOOP:  cpu time  352.5803: real time  352.9038

 eigenvalue-minimisations  :     0
 total energy-change (2. order) :-0.5711268E-01  (-0.5184146E-01)
 number of electron     247.0000003 magnetization       2.9989319
 augmentation part       12.8642971 magnetization       1.7779336

 DIPCOR: dipole corrections for dipol
 direction  3 min pos     1,
 dipolmoment           0.001713      0.003694     -0.166838 electrons x Angstroem
 Tr[quadrupol]     -6777.087952

 energy correction for charged system         0.000000 eV
 dipol+quadrupol energy correction           -0.000797 eV
 added-field ion interaction          0.098913 eV  (added to PSCEN)


 Free energy of the ion-electron system (eV)
  ---------------------------------------------------
  alpha Z        PSCENC =       103.57747838
  Ewald energy   TEWEN  =     39636.80279957
  -Hartree energ DENC   =    -48014.29038125
  -exchange      EXHF   =       559.09271848
  -V(xc)+E(xc)   XCENC  =       613.76631099
  PAW double counting   =     27238.74573765   -27261.37772221
  entropy T*S    EENTRO =        -0.00416884
  eigenvalues    EBANDS =     -3227.61390890
  atomic energy  EATOM  =      9730.09478762
  ---------------------------------------------------
  free energy    TOTEN  =      -621.20701606 eV

  energy without entropy =     -621.20284722  energy(sigma->0) =     -621.20493164
  exchange ACFDT corr.  =        -0.00300987  see jH, gK, PRB 81, 115126


--------------------------------------------------------------------------------------------------------




--------------------------------------- Iteration      1(  10)  ---------------------------------------


    POTLOK:  cpu time    2.2405: real time    2.2421
    SETDIJ:  cpu time    2.0788: real time    2.0798
    TRIAL :  cpu time  346.7338: real time  347.0447
    CORREC:  cpu time    0.0011: real time    0.0011
    CHARGE:  cpu time    1.4072: real time    1.4084
    --------------------------------------------
      LOOP:  cpu time  352.4624: real time  352.7797

 eigenvalue-minimisations  :     0
 total energy-change (2. order) :-0.4827281E-01  (-0.4405801E-01)
 number of electron     247.0000003 magnetization       2.9990675
 augmentation part       12.8690254 magnetization       1.7741369

 DIPCOR: dipole corrections for dipol
 direction  3 min pos     1,
 dipolmoment           0.001731      0.003733     -0.168581 electrons x Angstroem
 Tr[quadrupol]     -6777.097507

 energy correction for charged system         0.000000 eV
 dipol+quadrupol energy correction           -0.000814 eV
 added-field ion interaction          0.099947 eV  (added to PSCEN)


 Free energy of the ion-electron system (eV)
  ---------------------------------------------------
  alpha Z        PSCENC =       103.57849505
  Ewald energy   TEWEN  =     39636.80279957
  -Hartree energ DENC   =    -48014.91077622
  -exchange      EXHF   =       559.21961362
  -V(xc)+E(xc)   XCENC  =       613.82678931
  PAW double counting   =     27244.90728244   -27267.61889179
  entropy T*S    EENTRO =        -0.00367064
  eigenvalues    EBANDS =     -3227.15121965
  atomic energy  EATOM  =      9730.09478762
  ---------------------------------------------------
  free energy    TOTEN  =      -621.25528887 eV

  energy without entropy =     -621.25161823  energy(sigma->0) =     -621.25345355
  exchange ACFDT corr.  =        -0.00250261  see jH, gK, PRB 81, 115126


--------------------------------------------------------------------------------------------------------




--------------------------------------- Iteration      1(  11)  ---------------------------------------


    POTLOK:  cpu time    2.2335: real time    2.2352
    SETDIJ:  cpu time    2.0856: real time    2.0873
    TRIAL :  cpu time  346.0120: real time  346.3382
    CORREC:  cpu time    0.0009: real time    0.0009
    CHARGE:  cpu time    1.4016: real time    1.4026
    --------------------------------------------
      LOOP:  cpu time  351.7343: real time  352.0674

 eigenvalue-minimisations  :     0
 total energy-change (2. order) :-0.4130751E-01  (-0.3781541E-01)
 number of electron     247.0000003 magnetization       2.9991510
 augmentation part       12.8724069 magnetization       1.7695237

 DIPCOR: dipole corrections for dipol
 direction  3 min pos     1,
 dipolmoment           0.001744      0.003760     -0.169816 electrons x Angstroem
 Tr[quadrupol]     -6777.102090

 energy correction for charged system         0.000000 eV
 dipol+quadrupol energy correction           -0.000826 eV
 added-field ion interaction          0.100679 eV  (added to PSCEN)


 Free energy of the ion-electron system (eV)
  ---------------------------------------------------
  alpha Z        PSCENC =       103.57921529
  Ewald energy   TEWEN  =     39636.80279957
  -Hartree energ DENC   =    -48015.11692088
  -exchange      EXHF   =       559.32309011
  -V(xc)+E(xc)   XCENC  =       613.87355180
  PAW double counting   =     27248.06215126   -27270.83179945
  entropy T*S    EENTRO =        -0.00329428
  eigenvalues    EBANDS =     -3227.07980106
  atomic energy  EATOM  =      9730.09478762
  ---------------------------------------------------
  free energy    TOTEN  =      -621.29659638 eV

  energy without entropy =     -621.29330209  energy(sigma->0) =     -621.29494924
  exchange ACFDT corr.  =        -0.00213972  see jH, gK, PRB 81, 115126


--------------------------------------------------------------------------------------------------------




--------------------------------------- Iteration      1(  12)  ---------------------------------------


    POTLOK:  cpu time    2.2286: real time    2.2302
    SETDIJ:  cpu time    2.0839: real time    2.0857
    TRIAL :  cpu time  344.9891: real time  345.2953
    CORREC:  cpu time    0.0009: real time    0.0009
    CHARGE:  cpu time    1.4073: real time    1.4079
    --------------------------------------------
      LOOP:  cpu time  350.7106: real time  351.0233

 eigenvalue-minimisations  :     0
 total energy-change (2. order) :-0.3562947E-01  (-0.3264203E-01)
 number of electron     247.0000003 magnetization       2.9992040
 augmentation part       12.8754963 magnetization       1.7645694

 DIPCOR: dipole corrections for dipol
 direction  3 min pos     1,
 dipolmoment           0.001751      0.003776     -0.170545 electrons x Angstroem
 Tr[quadrupol]     -6777.105083

 energy correction for charged system         0.000000 eV
 dipol+quadrupol energy correction           -0.000833 eV
 added-field ion interaction          0.101111 eV  (added to PSCEN)


 Free energy of the ion-electron system (eV)
  ---------------------------------------------------
  alpha Z        PSCENC =       103.57964033
  Ewald energy   TEWEN  =     39636.80279957
  -Hartree energ DENC   =    -48015.20139434
  -exchange      EXHF   =       559.41340602
  -V(xc)+E(xc)   XCENC  =       613.91419518
  PAW double counting   =     27249.92383807   -27272.73668113
  entropy T*S    EENTRO =        -0.00300241
  eigenvalues    EBANDS =     -3227.11952289
  atomic energy  EATOM  =      9730.09478762
  ---------------------------------------------------
  free energy    TOTEN  =      -621.33222585 eV

  energy without entropy =     -621.32922344  energy(sigma->0) =     -621.33072464
  exchange ACFDT corr.  =        -0.00187465  see jH, gK, PRB 81, 115126


--------------------------------------------------------------------------------------------------------




--------------------------------------- Iteration      1(  13)  ---------------------------------------


    POTLOK:  cpu time    2.2235: real time    2.2262
    SETDIJ:  cpu time    2.0839: real time    2.0849
    TRIAL :  cpu time  345.2797: real time  345.8909
    CORREC:  cpu time    0.0009: real time    0.0009
    CHARGE:  cpu time    1.4032: real time    1.4044
    --------------------------------------------
      LOOP:  cpu time  350.9922: real time  351.6116

 eigenvalue-minimisations  :     0
 total energy-change (2. order) :-0.3086801E-01  (-0.2825966E-01)
 number of electron     247.0000003 magnetization       2.9992384
 augmentation part       12.8786984 magnetization       1.7596548

 DIPCOR: dipole corrections for dipol
 direction  3 min pos     1,
 dipolmoment           0.001756      0.003786     -0.170987 electrons x Angstroem
 Tr[quadrupol]     -6777.107849

 energy correction for charged system         0.000000 eV
 dipol+quadrupol energy correction           -0.000837 eV
 added-field ion interaction          0.101373 eV  (added to PSCEN)


 Free energy of the ion-electron system (eV)
  ---------------------------------------------------
  alpha Z        PSCENC =       103.57989774
  Ewald energy   TEWEN  =     39636.80279957
  -Hartree energ DENC   =    -48015.30269663
  -exchange      EXHF   =       559.49533563
  -V(xc)+E(xc)   XCENC  =       613.95209010
  PAW double counting   =     27251.56387878   -27274.41719341
  entropy T*S    EENTRO =        -0.00277049
  eigenvalues    EBANDS =     -3227.12899085
  atomic energy  EATOM  =      9730.09478762
  ---------------------------------------------------
  free energy    TOTEN  =      -621.36309386 eV

  energy without entropy =     -621.36032337  energy(sigma->0) =     -621.36170861
  exchange ACFDT corr.  =        -0.00167481  see jH, gK, PRB 81, 115126


--------------------------------------------------------------------------------------------------------




--------------------------------------- Iteration      1(  14)  ---------------------------------------


    POTLOK:  cpu time    2.2205: real time    2.2242
    SETDIJ:  cpu time    2.0846: real time    2.0857
    TRIAL :  cpu time  345.7222: real time  346.0486
    CORREC:  cpu time    0.0009: real time    0.0009
    CHARGE:  cpu time    1.3992: real time    1.4001
    --------------------------------------------
      LOOP:  cpu time  351.4281: real time  351.7637

 eigenvalue-minimisations  :     0
 total energy-change (2. order) :-0.2679413E-01  (-0.2448526E-01)
 number of electron     247.0000003 magnetization       2.9992599
 augmentation part       12.8817811 magnetization       1.7548226

 DIPCOR: dipole corrections for dipol
 direction  3 min pos     1,
 dipolmoment           0.001760      0.003796     -0.171417 electrons x Angstroem
 Tr[quadrupol]     -6777.110677

 energy correction for charged system         0.000000 eV
 dipol+quadrupol energy correction           -0.000841 eV
 added-field ion interaction          0.101628 eV  (added to PSCEN)


 Free energy of the ion-electron system (eV)
  ---------------------------------------------------
  alpha Z        PSCENC =       103.58014870
  Ewald energy   TEWEN  =     39636.80279957
  -Hartree energ DENC   =    -48015.44311521
  -exchange      EXHF   =       559.57057600
  -V(xc)+E(xc)   XCENC  =       613.98785403
  PAW double counting   =     27253.53875929   -27276.43430441
  entropy T*S    EENTRO =        -0.00258379
  eigenvalues    EBANDS =     -3227.08462310
  atomic energy  EATOM  =      9730.09478762
  ---------------------------------------------------
  free energy    TOTEN  =      -621.38988799 eV

  energy without entropy =     -621.38730420  energy(sigma->0) =     -621.38859609
  exchange ACFDT corr.  =        -0.00151980  see jH, gK, PRB 81, 115126


--------------------------------------------------------------------------------------------------------




--------------------------------------- Iteration      1(  15)  ---------------------------------------


    POTLOK:  cpu time    2.2192: real time    2.2206
    SETDIJ:  cpu time    2.0859: real time    2.0870
    TRIAL :  cpu time  345.7863: real time  346.1246
    CORREC:  cpu time    0.0009: real time    0.0009
    CHARGE:  cpu time    1.3991: real time    1.3999
    --------------------------------------------
      LOOP:  cpu time  351.4923: real time  351.8366

 eigenvalue-minimisations  :     0
 total energy-change (2. order) :-0.2325689E-01  (-0.2120556E-01)
 number of electron     247.0000003 magnetization       2.9992718
 augmentation part       12.8844590 magnetization       1.7499691

 DIPCOR: dipole corrections for dipol
 direction  3 min pos     1,
 dipolmoment           0.001765      0.003806     -0.171897 electrons x Angstroem
 Tr[quadrupol]     -6777.113416

 energy correction for charged system         0.000000 eV
 dipol+quadrupol energy correction           -0.000846 eV
 added-field ion interaction          0.101913 eV  (added to PSCEN)


 Free energy of the ion-electron system (eV)
  ---------------------------------------------------
  alpha Z        PSCENC =       103.58042862
  Ewald energy   TEWEN  =     39636.80279957
  -Hartree energ DENC   =    -48015.59405589
  -exchange      EXHF   =       559.63968544
  -V(xc)+E(xc)   XCENC  =       614.02112549
  PAW double counting   =     27255.97288542   -27278.90901677
  entropy T*S    EENTRO =        -0.00243291
  eigenvalues    EBANDS =     -3227.01920058
  atomic energy  EATOM  =      9730.09478762
  ---------------------------------------------------
  free energy    TOTEN  =      -621.41314488 eV

  energy without entropy =     -621.41071197  energy(sigma->0) =     -621.41192842
  exchange ACFDT corr.  =        -0.00139747  see jH, gK, PRB 81, 115126


--------------------------------------------------------------------------------------------------------




--------------------------------------- Iteration      1(  16)  ---------------------------------------


    POTLOK:  cpu time    2.2191: real time    2.2209
    SETDIJ:  cpu time    2.0821: real time    2.0830
    TRIAL :  cpu time  345.6331: real time  345.9599
    CORREC:  cpu time    0.0009: real time    0.0009
    CHARGE:  cpu time    1.4011: real time    1.4019
    --------------------------------------------
      LOOP:  cpu time  351.3382: real time  351.6709

 eigenvalue-minimisations  :     0
 total energy-change (2. order) :-0.2016769E-01  (-0.1834889E-01)
 number of electron     247.0000003 magnetization       2.9992764
 augmentation part       12.8867279 magnetization       1.7450940

 DIPCOR: dipole corrections for dipol
 direction  3 min pos     1,
 dipolmoment           0.001769      0.003815     -0.172291 electrons x Angstroem
 Tr[quadrupol]     -6777.115721

 energy correction for charged system         0.000000 eV
 dipol+quadrupol energy correction           -0.000850 eV
 added-field ion interaction          0.102146 eV  (added to PSCEN)


 Free energy of the ion-electron system (eV)
  ---------------------------------------------------
  alpha Z        PSCENC =       103.58065825
  Ewald energy   TEWEN  =     39636.80279957
  -Hartree energ DENC   =    -48015.72577208
  -exchange      EXHF   =       559.70297913
  -V(xc)+E(xc)   XCENC  =       614.05168086
  PAW double counting   =     27258.67989088   -27281.65140422
  entropy T*S    EENTRO =        -0.00231066
  eigenvalues    EBANDS =     -3226.96649967
  atomic energy  EATOM  =      9730.09478762
  ---------------------------------------------------
  free energy    TOTEN  =      -621.43331257 eV

  energy without entropy =     -621.43100191  energy(sigma->0) =     -621.43215724
  exchange ACFDT corr.  =        -0.00130019  see jH, gK, PRB 81, 115126


--------------------------------------------------------------------------------------------------------




--------------------------------------- Iteration      1(  17)  ---------------------------------------


    POTLOK:  cpu time    2.2192: real time    2.2220
    SETDIJ:  cpu time    2.0784: real time    2.0797
    TRIAL :  cpu time  344.1577: real time  344.4923
    CORREC:  cpu time    0.0009: real time    0.0009
    CHARGE:  cpu time    1.3988: real time    1.3997
    --------------------------------------------
      LOOP:  cpu time  349.8559: real time  350.1982

 eigenvalue-minimisations  :     0
 total energy-change (2. order) :-0.1746820E-01  (-0.1585746E-01)
 number of electron     247.0000003 magnetization       2.9992756
 augmentation part       12.8887620 magnetization       1.7403284

 DIPCOR: dipole corrections for dipol
 direction  3 min pos     1,
 dipolmoment           0.001771      0.003820     -0.172503 electrons x Angstroem
 Tr[quadrupol]     -6777.117320

 energy correction for charged system         0.000000 eV
 dipol+quadrupol energy correction           -0.000852 eV
 added-field ion interaction          0.102271 eV  (added to PSCEN)


 Free energy of the ion-electron system (eV)
  ---------------------------------------------------
  alpha Z        PSCENC =       103.58078157
  Ewald energy   TEWEN  =     39636.80279957
  -Hartree energ DENC   =    -48015.82561453
  -exchange      EXHF   =       559.76073743
  -V(xc)+E(xc)   XCENC  =       614.07961303
  PAW double counting   =     27261.37185649   -27284.37390885
  entropy T*S    EENTRO =        -0.00221105
  eigenvalues    EBANDS =     -3226.93952244
  atomic energy  EATOM  =      9730.09478762
  ---------------------------------------------------
  free energy    TOTEN  =      -621.45078077 eV

  energy without entropy =     -621.44856972  energy(sigma->0) =     -621.44967524
  exchange ACFDT corr.  =        -0.00122236  see jH, gK, PRB 81, 115126


[...]
  Total     -43.18406   -43.15803     1.12379     0.23549    -1.12753    -1.64429
  in kB     -21.77890   -21.76577     0.56676     0.11876    -0.56865    -0.82926
  external pressure =      -14.33 kB  Pullay stress =        0.00 kB


 VOLUME and BASIS-vectors are now :
 -----------------------------------------------------------------------------
  energy-cutoff  :      500.00
  volume of cell :     3176.86
      direct lattice vectors                 reciprocal lattice vectors
    12.825500000  0.000000000  0.000000000     0.077969670  0.000853409  0.000819424
    -0.136256556 12.448754331  0.000000000     0.000000000  0.080329322  0.001778715
    -0.204290510 -0.440585506 19.897474246     0.000000000  0.000000000  0.050257635

  length of vectors
    12.825500000 12.449500000 19.903400000     0.077978646  0.080349013  0.050257635


 FORCES acting on ions:
    Electron-Ion                     Ewald-Force                    Non-Local-Force
 -----------------------------------------------------------------------------------------------
   0.457E+01 -.455E+01 0.745E+01   -.462E+01 0.443E+01 -.748E+01   0.152E+00 -.702E-01 0.259E-01
   -.178E+01 -.141E+01 0.120E+02   0.193E+01 0.132E+01 -.120E+02   -.154E+00 0.376E-01 0.298E-01
   0.596E+01 -.467E+00 0.894E+01   -.597E+01 0.358E+00 -.889E+01   -.649E-01 0.780E-01 -.481E-01
   0.133E+02 0.841E+00 0.658E+00   -.135E+02 -.965E+00 -.566E+00   0.310E+00 0.172E+00 -.955E-01
   0.607E+01 0.362E+01 -.429E+01   -.618E+01 -.377E+01 0.425E+01   0.977E-01 0.113E+00 0.338E-01
   0.239E+01 0.457E+01 0.148E+02   -.227E+01 -.487E+01 -.149E+02   -.592E-01 0.328E+00 0.564E-01
   0.388E+01 0.465E+01 0.775E+01   -.391E+01 -.475E+01 -.773E+01   0.109E-01 0.106E+00 -.131E-01
   0.192E+02 0.110E+02 -.212E+02   -.195E+02 -.113E+02 0.211E+02   0.344E+00 0.197E+00 0.639E-01
   0.224E+02 0.471E+02 -.329E+01   -.243E+02 -.500E+02 0.264E+01   0.180E+01 0.333E+01 0.710E+00
   0.135E+02 0.441E+01 0.918E+01   -.138E+02 -.423E+01 -.906E+01   0.279E+00 -.952E-01 -.114E+00
   0.151E+02 0.845E+01 0.146E+02   -.156E+02 -.881E+01 -.147E+02   0.511E+00 0.197E+00 0.149E+00
   0.261E+02 -.309E+02 0.141E+02   -.280E+02 0.344E+02 -.149E+02   0.187E+01 -.326E+01 0.854E+00
   0.106E+02 -.424E+01 0.172E+02   -.108E+02 0.448E+01 -.172E+02   0.277E+00 -.221E+00 0.593E-01
   0.178E+02 -.709E+01 0.141E+02   -.181E+02 0.764E+01 -.142E+02   0.296E+00 -.460E+00 0.590E-01
   0.314E+02 -.740E+01 0.228E+02   -.346E+02 0.743E+01 -.231E+02   0.294E+01 -.909E-01 0.228E+00
   0.140E+02 -.933E+01 0.170E+02   -.144E+02 0.932E+01 -.170E+02   0.329E+00 -.149E+00 0.743E-01
   0.241E+01 -.172E+01 0.127E+02   -.232E+01 0.181E+01 -.127E+02   -.770E-01 -.150E-01 0.466E-01
   0.783E+01 -.556E+01 0.126E+02   -.812E+01 0.538E+01 -.125E+02   0.261E+00 0.107E+00 -.986E-01
   0.107E+02 -.728E+01 0.134E+02   -.111E+02 0.775E+01 -.134E+02   0.224E+00 -.256E+00 0.733E-01
   -.993E+00 0.416E+00 0.150E+02   0.730E+00 -.432E+00 -.149E+02   0.235E+00 -.324E-01 -.144E-01
   0.684E+01 0.719E+01 0.886E+01   -.737E+01 -.763E+01 -.895E+01   0.443E+00 0.435E+00 0.962E-01
   0.379E+01 -.397E+01 0.130E+02   -.358E+01 0.392E+01 -.130E+02   -.156E+00 0.489E-02 0.261E-01
   -.844E+01 0.658E+01 0.164E+02   0.863E+01 -.707E+01 -.165E+02   -.144E+00 0.531E+00 0.869E-01
   -.700E+00 0.179E+02 0.537E+01   0.622E+00 -.187E+02 -.508E+01   0.106E+00 0.766E+00 -.278E+00
   0.389E+02 0.401E+02 -.225E+02   -.415E+02 -.435E+02 0.215E+02   0.263E+01 0.336E+01 0.105E+01
   0.759E+01 0.172E+02 0.384E+01   -.785E+01 -.179E+02 -.400E+01   0.198E+00 0.663E+00 0.201E+00
   -.204E+02 0.230E+02 0.169E+02   0.212E+02 -.243E+02 -.172E+02   -.685E+00 0.120E+01 0.380E+00
   -.295E+02 0.268E+02 -.188E+02   0.322E+02 -.304E+02 0.181E+02   -.261E+01 0.361E+01 0.807E+00
   0.644E+01 -.229E+02 0.189E+02   -.805E+01 0.260E+02 -.189E+02   0.150E+01 -.306E+01 -.750E-02
   0.646E+01 -.125E+02 0.131E+02   -.643E+01 0.127E+02 -.131E+02   0.104E+00 -.343E+00 -.439E-01
   -.114E+02 -.285E+02 0.211E+02   0.128E+02 0.315E+02 -.211E+02   -.126E+01 -.288E+01 0.100E+00
   -.926E+01 -.106E+02 0.163E+02   0.910E+01 0.111E+02 -.163E+02   0.113E+00 -.332E+00 0.365E-01
   -.512E+01 -.543E+00 0.186E+02   0.527E+01 0.486E+00 -.186E+02   -.113E+00 0.328E-01 0.194E-01
   -.817E+01 0.366E+01 0.212E+02   0.823E+01 -.379E+01 -.212E+02   -.115E+00 0.151E+00 -.194E-02
   -.753E+01 0.140E+01 0.199E+02   0.769E+01 -.143E+01 -.200E+02   -.179E+00 -.212E-01 0.436E-01
   -.111E+01 0.290E+01 0.188E+02   0.129E+01 -.306E+01 -.188E+02   -.154E+00 0.129E+00 0.400E-01
   -.802E+01 0.197E+01 0.221E+02   0.828E+01 -.203E+01 -.220E+02   -.265E+00 0.826E-01 0.167E-01
   -.192E+02 0.550E+01 0.249E+02   0.199E+02 -.564E+01 -.252E+02   -.731E+00 0.141E+00 0.240E+00
   -.988E+01 0.686E+01 0.254E+02   0.101E+02 -.717E+01 -.255E+02   -.263E+00 0.321E+00 0.623E-01
   -.202E+01 -.308E+00 0.191E+02   0.214E+01 0.226E+00 -.191E+02   -.158E+00 0.436E-01 0.437E-01
   -.803E+01 0.104E+01 0.149E+02   0.851E+01 -.856E+00 -.149E+02   -.401E+00 -.145E+00 0.175E-01
   -.427E+02 -.208E+02 0.736E+01   0.469E+02 0.215E+02 -.766E+01   -.413E+01 -.721E+00 0.294E+00
   -.182E+02 -.427E+01 0.134E+02   0.187E+02 0.424E+01 -.133E+02   -.566E+00 0.406E-01 -.800E-02
   0.200E+01 -.573E+01 0.107E+02   -.215E+01 0.603E+01 -.107E+02   0.128E+00 -.341E+00 -.167E-01
   0.327E+01 0.202E-01 0.120E+02   -.324E+01 0.275E+00 -.120E+02   0.329E-01 -.165E+00 0.290E-01
   -.357E+02 0.127E+02 0.964E+01   0.390E+02 -.127E+02 -.954E+01   -.356E+01 0.211E+00 -.161E+00
   -.766E+01 -.715E+01 0.104E+02   0.787E+01 0.739E+01 -.105E+02   -.177E+00 -.317E+00 0.300E-01
   0.130E+01 -.447E+00 0.149E+02   -.126E+01 0.275E+00 -.149E+02   -.113E+00 0.107E+00 0.731E-02
   -.334E+01 -.179E+01 0.142E+02   0.357E+01 0.158E+01 -.142E+02   -.267E+00 0.180E+00 0.251E-01
   -.112E+02 -.215E+01 0.157E+02   0.114E+02 0.235E+01 -.157E+02   -.232E+00 -.119E+00 0.133E-01
   -.128E+02 0.727E+00 0.125E+02   0.133E+02 -.697E+00 -.125E+02   -.341E+00 -.539E-01 0.322E-01
   0.289E+00 0.239E+01 0.151E+02   -.206E+00 -.241E+01 -.151E+02   -.769E-01 0.563E-01 0.316E-02
   0.110E+02 0.411E+00 -.338E+02   0.584E+01 0.449E+00 0.363E+02   -.161E+02 -.117E+01 -.277E+01
   0.150E+02 0.202E+02 -.122E+03   -.224E+02 -.744E+01 0.128E+03   0.735E+01 -.122E+02 -.667E+01
   -.144E+02 -.732E+02 -.880E+01   0.436E+01 0.914E+02 0.942E+01   0.953E+01 -.175E+02 -.481E+00
   -.134E+02 0.336E+02 0.513E+02   0.225E+02 -.501E+02 -.531E+02   -.876E+01 0.154E+02 0.192E+01
   0.188E+01 0.483E+02 0.292E+02   -.116E+02 -.654E+02 -.295E+02   0.959E+01 0.162E+02 0.288E+00
   0.663E+01 -.759E+02 -.646E+03   -.149E+02 0.658E+02 0.645E+03   0.567E+01 0.915E+01 0.418E+01
   -.301E+02 -.249E+02 0.130E+03   0.356E+02 0.299E+02 -.133E+03   -.325E+01 -.325E+01 0.860E-01
 -----------------------------------------------------------------------------------------------
   -.259E+01 -.107E+02 -.124E+01   0.369E-12 0.711E-13 0.398E-12   0.219E+01 0.103E+02 0.180E+01
 
 
 POSITION                                       TOTAL-FORCE (eV/Angst)
 -----------------------------------------------------------------------------------
      2.74728     -0.18355      9.92670         0.095933     -0.197883     -0.002955
      0.62340      1.05754      9.89520        -0.022141     -0.055945      0.006488
      1.32102     -0.19327      9.90085        -0.080621     -0.025059     -0.001157
      3.45260      1.07152      9.98133         0.085515      0.054298     -0.009488
      2.76039      2.33766     10.02870        -0.012571     -0.041442     -0.005117
      0.59823      3.55118      9.92766         0.057172      0.041833      0.013985
      1.32638      2.31535      9.94741        -0.020208      0.015165      0.003243
      3.47647      3.59501     10.15566         0.091117     -0.136504     -0.035164
      2.70884      4.85502     10.13033         0.043539      0.613790      0.094223
      0.52698      6.04758      9.95325         0.035570      0.082730      0.000261
      1.27891      4.81165      9.98223        -0.024150     -0.154558      0.023943
      2.64801      7.30256     10.04089         0.008347      0.016863      0.044623
      0.48003      8.52040      9.89647         0.062377      0.007812      0.021944
      1.21947      7.29809      9.95366        -0.062760      0.062997      0.037914
      3.37991      8.54408      9.94798        -0.115328     -0.055338     -0.002633
      2.62790      9.76719      9.90690         0.003381     -0.170633      0.015560
      0.48033     11.00624      9.87852         0.000931      0.073316      0.012789
      1.19408      9.76044      9.89510        -0.015830     -0.071412     -0.002532
      3.32074     11.02724      9.90712        -0.100948      0.199040      0.013082
      7.01865     -0.20820      9.89082        -0.013355     -0.047941      0.013154
      4.87323      1.04141      9.97049        -0.067349      0.018504      0.015154
      5.59573     -0.19220      9.91552         0.052544     -0.051787     -0.007544
      7.74254      1.00846      9.89950         0.026224      0.062313      0.001880
      7.02443      2.22179      9.98715         0.041030      0.037469     -0.002688
      4.92328      3.50776     10.21899         0.162592      0.138696      0.023887
      5.59814      2.26022     10.04385        -0.050115      0.007117      0.054343
      7.75685      3.42623      9.99343         0.054263      0.036645      0.074793
      7.06236      4.61711     10.17556        -0.106785      0.158646      0.105111
      6.89478      9.79119      9.88366        -0.020103     -0.121230     -0.007780
      4.75109     11.02361      9.90578         0.143384     -0.089948     -0.013420
      5.45492      9.79311      9.89656         0.074166     -0.026129      0.049671
      7.59778     11.01320      9.87136        -0.050356      0.069482      0.011114
     11.31073     -0.20941      9.84230         0.019146     -0.027133      0.018869
      9.16857      1.01842      9.85514        -0.063603      0.025755      0.023479
      9.74443     12.23015      9.84123        -0.028250     -0.048255      0.014557
     12.02201      1.03947      9.85359         0.019279     -0.026062      0.020300
     11.30724      2.27901      9.85156        -0.018739      0.033207      0.026232
      9.16784      3.47838      9.90048        -0.024535      0.000540      0.046070
      9.88378      2.25524      9.85293        -0.017938      0.034891      0.025251
     11.99128      3.53628      9.88141        -0.049380     -0.040504      0.021821
     11.25105      4.77177      9.89976         0.057350      0.039210      0.015849
      9.04229      5.95086      9.97495        -0.157846     -0.047817      0.007190
      9.82639      4.74386      9.92280        -0.042877      0.003856     -0.000682
     11.91732      6.03508      9.91586        -0.019460     -0.061734      0.001543
     11.14736      7.26070      9.90125         0.066608      0.125548      0.008250
      8.96514      8.51345      9.90244        -0.493295      0.138946     -0.070130
      9.68848      7.24496      9.92142         0.027005     -0.100454      0.002598
     11.86685      8.50121      9.88095        -0.086368     -0.057694      0.005129
     11.15383      9.74339      9.86513        -0.052177     -0.031288      0.013861
      9.02710     10.99805      9.85750        -0.047205      0.072390      0.006548
      9.71987      9.74125      9.87218         0.090865     -0.026006      0.000839
     11.87378     10.99196      9.85681         0.003799      0.048293      0.010386
      3.31463      6.09407     10.26514        -0.666935     -0.412293     -0.526262
      5.71462      4.61786     10.45870         0.571891     -0.525059     -0.768870
      7.67064      5.83994     10.08543         0.327724     -0.842042      0.104472
      4.78095      8.57426      9.91280        -0.406211      0.223626      0.244585
      7.57723      8.57797      9.89217         0.690281      0.579076     -0.028274
      4.97058      6.17323     11.09614        -1.566743     -0.650574      1.771031
      6.19840      7.16529      9.93744         1.592152      1.120670     -1.541325
 -----------------------------------------------------------------------------------
    total drift:                                0.027589      0.045072     -0.002669


--------------------------------------------------------------------------------------------------------



  FREE ENERGIE OF THE ION-ELECTRON SYSTEM (eV)
  ---------------------------------------------------
  free  energy   TOTEN  =      -621.56699314 eV

  energy  without entropy=     -621.56535814  energy(sigma->0) =     -621.56617564
 


--------------------------------------------------------------------------------------------------------


    POTLOK:  cpu time    4.3001: real time    4.3019


--------------------------------------------------------------------------------------------------------


 stress matrix after NEB project (eV)
    -43.18406      0.23560     -1.64429
      0.23549    -43.15803     -1.12562
     -1.64519     -1.12753      1.12379
  FORCES: max atom, RMS     2.483251    0.543286
  FORCE total and by dimension    4.173056    1.771031
  Stress total and by dimension   61.129381   43.184059
 writing wavefunctions
     LOOP+:  cpu time26343.1465: real time26375.3194
    4ORBIT:  cpu time    0.0000: real time    0.0000
 


 total charge     
 
# of ion       s       p       d       tot
------------------------------------------
    1        0.863   1.764   0.000   2.627
    2        0.864   1.753   0.000   2.617
    3        0.863   1.768   0.000   2.631
    4        0.860   1.762   0.000   2.622
    5        0.858   1.729   0.000   2.588
    6        0.863   1.755   0.000   2.618
    7        0.859   1.757   0.000   2.616
    8        0.844   1.732   0.000   2.576
    9        0.851   1.685   0.000   2.537
   10        0.863   1.742   0.000   2.605
   11        0.859   1.759   0.000   2.617
   12        0.850   1.732   0.000   2.582
   13        0.861   1.763   0.000   2.624
   14        0.865   1.768   0.000   2.633
   15        0.848   1.716   0.000   2.565
   16        0.863   1.753   0.000   2.616
   17        0.863   1.755   0.000   2.618
   18        0.862   1.761   0.000   2.623
   19        0.863   1.764   0.000   2.627
   20        0.868   1.792   0.000   2.660
   21        0.869   1.772   0.000   2.641
   22        0.865   1.780   0.000   2.645
   23        0.870   1.792   0.000   2.662
   24        0.873   1.787   0.000   2.660
   25        0.856   1.714   0.000   2.570
   26        0.866   1.785   0.000   2.651
   27        0.878   1.835   0.000   2.712
   28        0.867   1.741   0.000   2.609
   29        0.858   1.751   0.000   2.610
   30        0.869   1.780   0.000   2.649
   31        0.857   1.742   0.000   2.598
   32        0.870   1.789   0.000   2.659
   33        0.864   1.758   0.000   2.622
   34        0.866   1.769   0.000   2.635
   35        0.865   1.776   0.000   2.641
   36        0.863   1.766   0.000   2.629
   37        0.867   1.763   0.000   2.630
   38        0.871   1.781   0.000   2.652
   39        0.868   1.783   0.000   2.650
   40        0.861   1.760   0.000   2.621
   41        0.866   1.755   0.000   2.621
   42        0.855   1.704   0.000   2.559
   43        0.863   1.777   0.000   2.640
   44        0.859   1.758   0.000   2.618
   45        0.856   1.728   0.000   2.584
   46        0.850   1.690   0.000   2.540
   47        0.846   1.740   0.000   2.586
   48        0.860   1.761   0.000   2.621
   49        0.863   1.749   0.000   2.611
   50        0.866   1.759   0.000   2.625
   51        0.861   1.763   0.000   2.623
   52        0.862   1.759   0.000   2.621
   53        1.224   2.673   0.000   3.898
   54        1.227   2.705   0.000   3.932
   55        1.233   2.702   0.000   3.935
   56        1.219   2.677   0.000   3.896
   57        1.228   2.677   0.000   3.904
   58        0.474   0.434   6.663   7.571
   59        0.476   0.641   4.523   5.640
--------------------------------------------------
tot         51.902 105.886  11.186 168.975
 


 magnetization (x)
 
# of ion       s       p       d       tot
------------------------------------------
    1        0.000   0.000   0.000   0.000
    2        0.000   0.002   0.000   0.002
    3       -0.000  -0.002   0.000  -0.002
    4       -0.000  -0.000   0.000  -0.001
    5        0.000   0.002   0.000   0.002
    6        0.000   0.002   0.000   0.002
    7       -0.000  -0.001   0.000  -0.001
    8       -0.000   0.000   0.000   0.000
    9        0.001   0.005   0.000   0.006
   10        0.000   0.007   0.000   0.007
   11        0.000  -0.001   0.000  -0.001
   12        0.001   0.007   0.000   0.008
   13        0.000   0.001   0.000   0.001
   14       -0.000  -0.003   0.000  -0.003
   15        0.001  -0.001   0.000  -0.000
   16       -0.000   0.000   0.000   0.000
   17        0.000   0.003   0.000   0.003
   18       -0.000  -0.002   0.000  -0.002
   19       -0.000  -0.002   0.000  -0.002
   20        0.000   0.003   0.000   0.004
   21        0.000   0.002   0.000   0.002
   22       -0.000  -0.002   0.000  -0.002
   23       -0.000  -0.004   0.000  -0.005
   24        0.001   0.007   0.000   0.007
   25        0.001   0.005   0.000   0.006
   26       -0.000  -0.002   0.000  -0.002
   27       -0.001  -0.007   0.000  -0.007
   28        0.002   0.020   0.000   0.023
   29        0.003   0.015   0.000   0.018
   30        0.000  -0.000   0.000  -0.000
   31        0.002   0.005   0.000   0.007
   32       -0.000  -0.005   0.000  -0.005
   33        0.000   0.003   0.000   0.003
   34        0.001   0.008   0.000   0.009
   35       -0.000  -0.005   0.000  -0.005
   36       -0.000  -0.002   0.000  -0.002
   37        0.000   0.004   0.000   0.004
   38        0.001   0.009   0.000   0.009
   39       -0.000  -0.004   0.000  -0.005
   40       -0.000  -0.003   0.000  -0.004
   41        0.000   0.004   0.000   0.004
   42        0.001   0.013   0.000   0.014
   43       -0.001  -0.006   0.000  -0.007
   44       -0.000  -0.003   0.000  -0.004
   45        0.000   0.005   0.000   0.005
   46        0.001   0.010   0.000   0.011
   47       -0.000  -0.003   0.000  -0.003
   48       -0.000  -0.002   0.000  -0.002
   49        0.000   0.004   0.000   0.004
   50        0.001   0.008   0.000   0.009
   51       -0.001  -0.005   0.000  -0.005
   52       -0.000  -0.002   0.000  -0.002
   53        0.004   0.018   0.000   0.022
   54        0.003   0.003   0.000   0.005
   55       -0.008  -0.040   0.000  -0.048
   56       -0.009  -0.041   0.000  -0.050
   57       -0.006  -0.038   0.000  -0.044
   58        0.022   0.052  -0.747  -0.674
   59        0.082   0.048   3.231   3.360
--------------------------------------------------
tot          0.098   0.086   2.483   2.667
 

 total amount of memory used by VASP MPI-rank0   230616. kBytes
=======================================================================

   base      :      30000. kBytes
   nonl-proj :       7113. kBytes
   fftplans  :      18630. kBytes
   grid      :      49102. kBytes
   one-center:         93. kBytes
   HF        :         23. kBytes
   nonlr-proj:      22323. kBytes
   wavefun   :     103332. kBytes
 
  
  
 General timing and accounting informations for this job:
 ========================================================
  
                  Total CPU time used (sec):    26396.621
                            User time (sec):    26363.347
                          System time (sec):       33.274
                         Elapsed time (sec):    26435.385
  
                   Maximum memory used (kb):      499464.
                   Average memory used (kb):           0.
  
                          Minor page faults:       955385
                          Major page faults:          209
                 Voluntary context switches:       296724
