 vasp.5.4.4.18Apr17-6-g9f103f2a35 (build Feb 25 2019 10:51:38) complex          
  
 executed on             LinuxIFC date 2021.03.06  03:18:15
 running on   80 total cores
 distrk:  each k-point on   40 cores,    2 groups
 distr:  one band on NCORES_PER_BAND=  40 cores,    1 groups


--------------------------------------------------------------------------------------------------------


 INCAR:
 POTCAR:    PAW_PBE C 08Apr2002                   
 POTCAR:    PAW_PBE N 08Apr2002                   
 POTCAR:    PAW_PBE Co 02Aug2007                  
 POTCAR:    PAW_PBE Fe 06Sep2000                  

 ----------------------------------------------------------------------------- 
|                                                                             |
|           W    W    AA    RRRRR   N    N  II  N    N   GGGG   !!!           |
|           W    W   A  A   R    R  NN   N  II  NN   N  G    G  !!!           |
|           W    W  A    A  R    R  N N  N  II  N N  N  G       !!!           |
|           W WW W  AAAAAA  RRRRR   N  N N  II  N  N N  G  GGG   !            |
|           WW  WW  A    A  R   R   N   NN  II  N   NN  G    G                |
|           W    W  A    A  R    R  N    N  II  N    N   GGGG   !!!           |
|                                                                             |
|      For optimal performance we recommend to set                            |
|        NCORE= 4 - approx SQRT( number of cores)                             |
|      NCORE specifies how many cores store one orbital (NPAR=cpu/NCORE).     |
|      This setting can  greatly improve the performance of VASP for DFT.     |
|      The default,   NCORE=1            might be grossly inefficient         |
|      on modern multi-core architectures or massively parallel machines.     |
|      Do your own testing !!!!                                               |
|      Unfortunately you need to use the default for GW and RPA calculations. |
|      (for HF NCORE is supported but not extensively tested yet)             |
|                                                                             |
 ----------------------------------------------------------------------------- 


 ----------------------------------------------------------------------------- 
|                                                                             |
|           W    W    AA    RRRRR   N    N  II  N    N   GGGG   !!!           |
|           W    W   A  A   R    R  NN   N  II  NN   N  G    G  !!!           |
|           W    W  A    A  R    R  N N  N  II  N N  N  G       !!!           |
|           W WW W  AAAAAA  RRRRR   N  N N  II  N  N N  G  GGG   !            |
|           WW  WW  A    A  R   R   N   NN  II  N   NN  G    G                |
|           W    W  A    A  R    R  N    N  II  N    N   GGGG   !!!           |
|                                                                             |
|      You have enabled k-point parallelism (KPAR>1).                         |
|      This developmental code was originally  written by Paul Kent at ORNL,  |
|      and carefully double checked in Vienna.                                |
|      GW as well as linear response parallelism added by Martijn Marsman     |
|      and Georg Kresse.                                                      |
|      Carefully verify results versus KPAR=1.                                |
|      Report problems to Paul Kent and Vienna.                               |
|                                                                             |
 ----------------------------------------------------------------------------- 

 POTCAR:    PAW_PBE C 08Apr2002                   
   VRHFIN =C: s2p2                                                              
   LEXCH  = PE                                                                  
   EATOM  =   147.1560 eV,   10.8157 Ry                                         
                                                                                
   TITEL  = PAW_PBE C 08Apr2002                                                 
   LULTRA =        F    use ultrasoft PP ?                                      
   IUNSCR =        1    unscreen: 0-lin 1-nonlin 2-no                           
   RPACOR =    1.200    partial core radius                                     
   POMASS =   12.011; ZVAL   =    4.000    mass and valenz                      
   RCORE  =    1.500    outmost cutoff radius                                   
   RWIGS  =    1.630; RWIGS  =    0.863    wigner-seitz radius (au A)           
   ENMAX  =  400.000; ENMIN  =  300.000 eV                                      
   ICORE  =        2    local potential                                         
   LCOR   =        T    correct aug charges                                     
   LPAW   =        T    paw PP                                                  
   EAUG   =  644.873                                                            
   DEXC   =    0.000                                                            
   RMAX   =    1.529    core radius for proj-oper                               
   RAUG   =    1.300    factor for augmentation sphere                          
   RDEP   =    1.501    radius for radial grids                                 
   RDEPT  =    1.300    core radius for aug-charge                              
                                                                                
   Atomic configuration                                                         
    4 entries                                                                   
     n  l   j            E        occ.                                          
     1  0  0.50      -273.3789   2.0000                                         
     2  0  0.50       -13.7508   2.0000                                         
     2  1  0.50        -5.2854   2.0000                                         
     3  2  1.50        -5.4423   0.0000                                         
   Description                                                                  
     l       E           TYP  RCUT    TYP  RCUT                                 
     0    -13.7508458     23  1.200                                             
     0     -8.2022199     23  1.200                                             
     1     -5.2854383     23  1.500                                             
     1     34.0145650     23  1.500                                             
     2     -5.4423304      7  1.500                                             
  local pseudopotential read in
  partial core-charges read in
  partial kinetic energy density read in
  atomic valenz-charges read in
  non local Contribution for L=           0  read in
    real space projection operators read in
  non local Contribution for L=           0  read in
    real space projection operators read in
  non local Contribution for L=           1  read in
    real space projection operators read in
  non local Contribution for L=           1  read in
    real space projection operators read in
    PAW grid and wavefunctions read in
 
   number of l-projection  operators is LMAX  =           4
   number of lm-projection operators is LMMAX =           8
 
 POTCAR:    PAW_PBE N 08Apr2002                   
   VRHFIN =N: s2p3                                                              
   LEXCH  = PE                                                                  
   EATOM  =   264.5486 eV,   19.4438 Ry                                         
                                                                                
   TITEL  = PAW_PBE N 08Apr2002                                                 
   LULTRA =        F    use ultrasoft PP ?                                      
   IUNSCR =        1    unscreen: 0-lin 1-nonlin 2-no                           
   RPACOR =    1.200    partial core radius                                     
   POMASS =   14.001; ZVAL   =    5.000    mass and valenz                      
   RCORE  =    1.500    outmost cutoff radius                                   
   RWIGS  =    1.400; RWIGS  =    0.741    wigner-seitz radius (au A)           
   ENMAX  =  400.000; ENMIN  =  300.000 eV                                      
   ICORE  =        2    local potential                                         
   LCOR   =        T    correct aug charges                                     
   LPAW   =        T    paw PP                                                  
   EAUG   =  627.112                                                            
   DEXC   =    0.000                                                            
   RMAX   =    1.529    core radius for proj-oper                               
   RAUG   =    1.300    factor for augmentation sphere                          
   RDEP   =    1.514    radius for radial grids                                 
   RDEPT  =    1.338    core radius for aug-charge                              
                                                                                
   Atomic configuration                                                         
    4 entries                                                                   
     n  l   j            E        occ.                                          
     1  0  0.50      -384.7179   2.0000                                         
     2  0  0.50       -18.5828   2.0000                                         
     2  1  0.50        -7.0898   3.0000                                         
     3  2  1.50        -6.8029   0.0000                                         
   Description                                                                  
     l       E           TYP  RCUT    TYP  RCUT                                 
     0    -18.5828119     23  1.200                                             
     0    -13.5018863     23  1.200                                             
     1     -7.0897853     23  1.500                                             
     1      9.5240782     23  1.500                                             
     2     -6.8029130      7  1.500                                             
  local pseudopotential read in
  partial core-charges read in
  partial kinetic energy density read in
  atomic valenz-charges read in
  non local Contribution for L=           0  read in
    real space projection operators read in
  non local Contribution for L=           0  read in
    real space projection operators read in
  non local Contribution for L=           1  read in
    real space projection operators read in
  non local Contribution for L=           1  read in
    real space projection operators read in
    PAW grid and wavefunctions read in
 
   number of l-projection  operators is LMAX  =           4
   number of lm-projection operators is LMMAX =           8
 
 POTCAR:    PAW_PBE Co 02Aug2007                  
   VRHFIN =Co: d8 s1                                                            
   LEXCH  = PE                                                                  
   EATOM  =   813.3670 eV,   59.7808 Ry                                         
                                                                                
   TITEL  = PAW_PBE Co 02Aug2007                                                
   LULTRA =        F    use ultrasoft PP ?                                      
   IUNSCR =        1    unscreen: 0-lin 1-nonlin 2-no                           
   RPACOR =    2.000    partial core radius                                     
   POMASS =   58.933; ZVAL   =    9.000    mass and valenz                      
   RCORE  =    2.300    outmost cutoff radius                                   
   RWIGS  =    2.460; RWIGS  =    1.302    wigner-seitz radius (au A)           
   ENMAX  =  267.968; ENMIN  =  200.976 eV                                      
   RCLOC  =    1.203    cutoff for local pot                                    
   LCOR   =        T    correct aug charges                                     
   LPAW   =        T    paw PP                                                  
   EAUG   =  477.818                                                            
   DEXC   =    0.000                                                            
   RMAX   =    2.360    core radius for proj-oper                               
   RAUG   =    1.300    factor for augmentation sphere                          
   RDEP   =    2.393    radius for radial grids                                 
   RDEPT  =    1.864    core radius for aug-charge                              
                                                                                
   Atomic configuration                                                         
    9 entries                                                                   
     n  l   j            E        occ.                                          
     1  0  0.50     -7587.6674   2.0000                                         
     2  0  0.50      -893.6084   2.0000                                         
     2  1  1.50      -764.5805   6.0000                                         
     3  0  0.50       -97.5973   2.0000                                         
     3  1  1.50       -60.9648   6.0000                                         
     3  2  2.50        -4.2382   8.0000                                         
     4  0  0.50        -4.3746   1.0000                                         
     4  1  1.50        -4.0817   0.0000                                         
     4  3  2.50        -1.3606   0.0000                                         
   Description                                                                  
     l       E           TYP  RCUT    TYP  RCUT                                 
     2     -4.2382362     23  2.300                                             
     2     -5.5988188     23  2.300                                             
     0     -4.3745797     23  2.300                                             
     0      5.7660125     23  2.300                                             
     1     -2.7211652     23  2.300                                             
     1     16.9860234     23  2.300                                             
  local pseudopotential read in
  partial core-charges read in
  partial kinetic energy density read in
  atomic valenz-charges read in
  non local Contribution for L=           2  read in
    real space projection operators read in
  non local Contribution for L=           2  read in
    real space projection operators read in
  non local Contribution for L=           0  read in
    real space projection operators read in
  non local Contribution for L=           0  read in
    real space projection operators read in
  non local Contribution for L=           1  read in
    real space projection operators read in
  non local Contribution for L=           1  read in
    real space projection operators read in
    PAW grid and wavefunctions read in
 
   number of l-projection  operators is LMAX  =           6
   number of lm-projection operators is LMMAX =          18
 
 POTCAR:    PAW_PBE Fe 06Sep2000                  
   VRHFIN =Fe:  d7 s1                                                           
   LEXCH  = PE                                                                  
   EATOM  =   594.3153 eV,   43.6809 Ry                                         
                                                                                
   TITEL  = PAW_PBE Fe 06Sep2000                                                
   LULTRA =        F    use ultrasoft PP ?                                      
   IUNSCR =        1    unscreen: 0-lin 1-nonlin 2-no                           
   RPACOR =    2.000    partial core radius                                     
   POMASS =   55.847; ZVAL   =    8.000    mass and valenz                      
   RCORE  =    2.300    outmost cutoff radius                                   
   RWIGS  =    2.460; RWIGS  =    1.302    wigner-seitz radius (au A)           
   ENMAX  =  267.882; ENMIN  =  200.911 eV                                      
   RCLOC  =    1.701    cutoff for local pot                                    
   LCOR   =        T    correct aug charges                                     
   LPAW   =        T    paw PP                                                  
   EAUG   =  511.368                                                            
   DEXC   =    0.000                                                            
   RMAX   =    2.356    core radius for proj-oper                               
   RAUG   =    1.300    factor for augmentation sphere                          
   RDEP   =    2.442    radius for radial grids                                 
   RDEPT  =    1.890    core radius for aug-charge                              
                                                                                
   Atomic configuration                                                         
    9 entries                                                                   
     n  l   j            E        occ.                                          
     1  0  0.50     -6993.8440   2.0000                                         
     2  0  0.50      -814.6047   2.0000                                         
     2  1  1.50      -693.3689   6.0000                                         
     3  0  0.50       -89.4732   2.0000                                         
     3  1  1.50       -55.6373   6.0000                                         
     3  2  2.50        -3.8151   7.0000                                         
     4  0  0.50        -4.2551   1.0000                                         
     4  1  1.50        -3.4015   0.0000                                         
     4  3  2.50        -1.3606   0.0000                                         
   Description                                                                  
     l       E           TYP  RCUT    TYP  RCUT                                 
     2     -3.8151135     23  2.300                                             
     2     -5.1756961     23  2.300                                             
     0     -4.2550963     23  2.300                                             
     0      7.2035603     23  2.300                                             
     1     -2.7211652     23  2.300                                             
     1     18.4316424     23  2.300                                             
  local pseudopotential read in
  partial core-charges read in
  partial kinetic energy density read in
  atomic valenz-charges read in
  non local Contribution for L=           2  read in
    real space projection operators read in
  non local Contribution for L=           2  read in
    real space projection operators read in
  non local Contribution for L=           0  read in
    real space projection operators read in
  non local Contribution for L=           0  read in
    real space projection operators read in
  non local Contribution for L=           1  read in
    real space projection operators read in
  non local Contribution for L=           1  read in
    real space projection operators read in
    PAW grid and wavefunctions read in
 
   number of l-projection  operators is LMAX  =           6
   number of lm-projection operators is LMMAX =          18
 

 ----------------------------------------------------------------------------- 
|                                                                             |
|  ADVICE TO THIS USER RUNNING 'VASP/VAMP'   (HEAR YOUR MASTER'S VOICE ...):  |
|                                                                             |
|      You have a (more or less) 'large supercell' and for larger cells       |
|      it might be more efficient to use real space projection opertators     |
|      So try LREAL= Auto  in the INCAR   file.                               |
|      Mind:          For very  accurate calculation you might also keep the  |
|      reciprocal projection scheme          (i.e. LREAL=.FALSE.)             |
|                                                                             |
 ----------------------------------------------------------------------------- 

  PAW_PBE C 08Apr2002                   :
 energy of atom  1       EATOM= -147.1560
 kinetic energy error for atom=    0.0076 (will be added to EATOM!!)
  PAW_PBE N 08Apr2002                   :
 energy of atom  2       EATOM= -264.5486
 kinetic energy error for atom=    0.0138 (will be added to EATOM!!)
  PAW_PBE Co 02Aug2007                  :
 energy of atom  3       EATOM= -813.3670
 kinetic energy error for atom=    0.0028 (will be added to EATOM!!)
  PAW_PBE Fe 06Sep2000                  :
 energy of atom  4       EATOM= -594.3153
 kinetic energy error for atom=    0.0026 (will be added to EATOM!!)
 
 
 POSCAR:  C  N Co Fe                             
  positions in cartesian coordinates
  No initial velocities read in
 exchange correlation table for  LEXCH =        8
   RHO(1)=    0.500       N(1)  =     2000
   RHO(2)=  100.500       N(2)  =     4000

 VTST: version 3.2, (02/03/18)

 CHAIN: initializing optimizer
 
 OPT: Using VASP Conjugate-Gradient optimizer
 CHAIN: Read ICHAIN            0
 
 POSCAR:  C  N Co Fe                             
  positions in cartesian coordinates
  No initial velocities read in
 


--------------------------------------------------------------------------------------------------------


 ion  position               nearest neighbor table
   1  0.222  0.999  0.500-   3 1.41   4 1.41  17 1.42
   2  0.055  0.100  0.500-  34 1.42   7 1.43   3 1.43
   3  0.110  1.000  0.500-   1 1.41  15 1.43   2 1.43
   4  0.277  0.096  0.500-  19 1.41   1 1.41   5 1.42
   5  0.223  0.195  0.500-   7 1.42   4 1.42   8 1.42
   6  0.058  0.300  0.500-   7 1.44  38 1.44  10 1.45
   7  0.111  0.199  0.500-   5 1.42   2 1.43   6 1.44
   8  0.281  0.292  0.500-  51 1.37  53 1.38   5 1.42
   9  0.064  0.498  0.500-  10 1.45  12 1.46  42 1.47
  10  0.121  0.397  0.500-  51 1.42   6 1.45   9 1.45
  11  0.059  0.699  0.500-  46 1.43  16 1.43  12 1.45
  12  0.119  0.601  0.500-  52 1.38  11 1.45   9 1.46
  13  0.278  0.703  0.500-  52 1.37  14 1.41  25 1.42
  14  0.223  0.802  0.500-  13 1.41  16 1.41  17 1.42
  15  0.056  0.899  0.500-  50 1.41  16 1.43   3 1.43
  16  0.111  0.800  0.500-  14 1.41  15 1.43  11 1.43
  17  0.278  0.900  0.500-  28 1.41  14 1.42   1 1.42
  18  0.556  0.999  0.500-  20 1.41  21 1.42  30 1.42
  19  0.389  0.096  0.500-  23 1.41   4 1.41  20 1.42
  20  0.445  0.998  0.500-  18 1.41  19 1.42  28 1.42
  21  0.611  0.097  0.500-  22 1.41  32 1.41  18 1.42
  22  0.556  0.195  0.500-  54 1.37  21 1.41  23 1.42
  23  0.443  0.194  0.500-  53 1.38  19 1.41  22 1.42
  24  0.552  0.608  0.500-  55 1.37  56 1.38  26 1.42
  25  0.391  0.704  0.500-  56 1.38  29 1.41  13 1.42
  26  0.611  0.704  0.500-  27 1.41  44 1.42  24 1.42
  27  0.556  0.803  0.500-  29 1.41  26 1.41  30 1.42
  28  0.389  0.900  0.500-  17 1.41  29 1.42  20 1.42
  29  0.445  0.802  0.500-  25 1.41  27 1.41  28 1.42
  30  0.612  0.900  0.500-  48 1.41  27 1.42  18 1.42
  31  0.889  1.000  0.500-  33 1.41  34 1.43  50 1.44
  32  0.723  0.099  0.500-  21 1.41  33 1.43  37 1.44
  33  0.778  1.000  0.500-  31 1.41  32 1.43  48 1.43
  34  0.943  0.101  0.500-   2 1.42  31 1.43  35 1.44
  35  0.888  0.201  0.500-  37 1.43  34 1.44  38 1.44
  36  0.714  0.299  0.500-  54 1.38  37 1.45  41 1.46
  37  0.775  0.201  0.500-  35 1.43  32 1.44  36 1.45
  38  0.944  0.302  0.500-  39 1.44  35 1.44   6 1.44
  39  0.886  0.401  0.500-  38 1.44  42 1.45  41 1.48
  40  0.714  0.503  0.500-  55 1.41  45 1.44  41 1.45
  41  0.769  0.401  0.500-  40 1.45  36 1.46  39 1.48
  42  0.948  0.498  0.500-  43 1.44  39 1.45   9 1.47
  43  0.890  0.598  0.500-  46 1.44  45 1.44  42 1.44
  44  0.723  0.700  0.500-  26 1.42  49 1.43  45 1.44
  45  0.776  0.599  0.500-  44 1.44  40 1.44  43 1.44
  46  0.946  0.698  0.500-  11 1.43  47 1.44  43 1.44
  47  0.891  0.799  0.500-  49 1.42  50 1.44  46 1.44
  48  0.724  0.900  0.500-  30 1.41  33 1.43  49 1.43
  49  0.779  0.799  0.500-  47 1.42  44 1.43  48 1.43
  50  0.944  0.899  0.500-  15 1.41  47 1.44  31 1.44
  51  0.233  0.390  0.500-   8 1.37  10 1.42  57 1.91
  52  0.228  0.606  0.500-  13 1.37  12 1.38  57 1.98
  53  0.390  0.291  0.500-   8 1.38  23 1.38  58 1.92
  54  0.606  0.293  0.500-  22 1.37  36 1.38  58 2.04
  55  0.602  0.510  0.500-  24 1.37  40 1.41  58 1.94
  56  0.443  0.607  0.500-  24 1.38  25 1.38  57 1.91
  57  0.340  0.496  0.500-  56 1.91  51 1.91  52 1.98  58 2.19
  58  0.490  0.406  0.501-  53 1.92  55 1.94  54 2.04  57 2.19
 
  LATTYP: Found a triclinic cell.
 ALAT       =    34.4751150416
 B/A-ratio  =     0.3636686387
 C/A-ratio  =     0.5808817333
 COS(alpha) =     0.0000792994
 COS(beta)  =     0.5811842975
 COS(gamma) =     0.7263524408
  
  Lattice vectors:
  
 A1 = (  12.6258460456, -25.0573786883, -20.0312092004)
 A2 = (  -0.0169525239, -12.5375066834,  -0.0005008136)
 A3 = (   0.0066459167,  -0.0007970922, -20.0259634622)


Analysis of symmetry for initial positions (statically):
=====================================================================
 Subroutine PRICEL returns:
 Original cell was already a primitive cell.
 

 Routine SETGRP: Setting up the symmetry group for a 
 triclinic supercell.


 Subroutine GETGRP returns: Found  1 space group operations
 (whereof  1 operations were pure point group operations)
 out of a pool of  2 trial point group operations.


The static configuration has the point symmetry C_1 .


Analysis of symmetry for dynamics (positions and initial velocities):
=====================================================================
 Subroutine PRICEL returns:
 Original cell was already a primitive cell.
 

 Routine SETGRP: Setting up the symmetry group for a 
 triclinic supercell.


 Subroutine GETGRP returns: Found  1 space group operations
 (whereof  1 operations were pure point group operations)
 out of a pool of  2 trial point group operations.


The dynamic configuration has the point symmetry C_1 .


Analysis of structural, dynamic, and magnetic symmetry:
=====================================================================
 Subroutine PRICEL returns:
 Original cell was already a primitive cell.
 

 Routine SETGRP: Setting up the symmetry group for a 
 triclinic supercell.


 Subroutine GETGRP returns: Found  1 space group operations
 (whereof  1 operations were pure point group operations)
 out of a pool of  2 trial point group operations.


The magnetic configuration has the point symmetry C_1 .


 Subroutine INISYM returns: Found  1 space group operations
 (whereof  1 operations are pure point group operations),
 and found     1 'primitive' translations

 
 
 KPOINTS: KPOINTS created by Atomic Simulation Env

Automatic generation of k-mesh.
Space group operators:
 irot       det(A)        alpha          n_x          n_y          n_z        tau_x        tau_y        tau_z
    1     1.000000     0.000000     1.000000     0.000000     0.000000     0.000000     0.000000     0.000000
 
 Subroutine IBZKPT returns following result:
 ===========================================
 
 Found      2 irreducible k-points:
 
 Following reciprocal coordinates:
            Coordinates               Weight
  0.250000  0.250000  0.000000      2.000000
 -0.250000  0.250000  0.000000      2.000000
 
 Following cartesian coordinates:
            Coordinates               Weight
  0.019729  0.019913  0.000006      2.000000
 -0.019787  0.019967 -0.000007      2.000000
 
 
 Subroutine IBZKPT_HF returns following result:
 ==============================================
 
 Found      4 k-points in 1st BZ
 the following      4 k-points will be used (e.g. in the exchange kernel)
 Following reciprocal coordinates:   # in IRBZ
  0.250000  0.250000  0.000000    0.25000000   1 t-inv F
 -0.250000  0.250000  0.000000    0.25000000   2 t-inv F
 -0.250000 -0.250000  0.000000    0.25000000   1 t-inv T
  0.250000 -0.250000  0.000000    0.25000000   2 t-inv T


--------------------------------------------------------------------------------------------------------




 Dimension of arrays:
   k-points           NKPTS =      2   k-points in BZ     NKDIM =      4   number of bands    NBANDS=    155
   number of dos      NEDOS =    301   number of ions     NIONS =     58
   non local maximal  LDIM  =      6   non local SUM 2l+1 LMDIM =     18
   total plane-waves  NPLWV = ******
   max r-space proj   IRMAX =      1   max aug-charges    IRDMAX=  17359
   dimension x,y,z NGX =    96 NGY =   96 NGZ =  150
   dimension x,y,z NGXF=   192 NGYF=  192 NGZF=  300
   support grid    NGXF=   192 NGYF=  192 NGZF=  300
   ions per type =              50   6   1   1
   NGX,Y,Z   is equivalent  to a cutoff of  12.61, 12.73, 12.45 a.u.
   NGXF,Y,Z  is equivalent  to a cutoff of  25.23, 25.46, 24.90 a.u.

 SYSTEM =  unknown system                          
 POSCAR =   C  N Co Fe                             

 Startparameter for this run:
   NWRITE =      2    write-flag & timer
   PREC   = accura    normal or accurate (medium, high low for compatibility)
   ISTART =      1    job   : 0-new  1-cont  2-samecut
   ICHARG =      0    charge: 1-file 2-atom 10-const
   ISPIN  =      2    spin polarized calculation?
   LNONCOLLINEAR =      F non collinear calculations
   LSORBIT =      F    spin-orbit coupling
   INIWAV =      1    electr: 0-lowe 1-rand  2-diag
   LASPH  =      T    aspherical Exc in radial PAW
   METAGGA=      F    non-selfconsistent MetaGGA calc.

 Electronic Relaxation 1
   ENCUT  =  500.0 eV  36.75 Ry    6.06 a.u.  23.07 22.86 36.51*2*pi/ulx,y,z
   ENINI  =  500.0     initial cutoff
   ENAUG  =  644.9 eV  augmentation charge cutoff
   NELM   =    250;   NELMIN=  2; NELMDL=  0     # of ELM steps 
   EDIFF  = 0.1E-03   stopping-criterion for ELM
   LREAL  =      F    real-space projection
   NLSPLINE    = F    spline interpolate recip. space projectors
   LCOMPAT=      F    compatible to vasp.4.4
   GGA_COMPAT  = T    GGA compatible to vasp.4.4-vasp.4.6
   LMAXPAW     = -100 max onsite density
   LMAXMIX     =    2 max onsite mixed and CHGCAR
   VOSKOWN=      0    Vosko Wilk Nusair interpolation
   ROPT   =    0.00000   0.00000   0.00000   0.00000
 Ionic relaxation
   EDIFFG = -.3E-01   stopping-criterion for IOM
   NSW    =      0    number of steps for IOM
   NBLOCK =      1;   KBLOCK =      1    inner block; outer block 
   IBRION =     -1    ionic relax: 0-MD 1-quasi-New 2-CG
   NFREE  =      1    steps in history (QN), initial steepest desc. (CG)
   ISIF   =      2    stress and relaxation
   IWAVPR =     10    prediction:  0-non 1-charg 2-wave 3-comb
   ISYM   =      3    0-nonsym 1-usesym 2-fastsym
   LCORR  =      T    Harris-Foulkes like correction to forces

   POTIM  = 0.5000    time-step for ionic-motion
   TEIN   =    0.0    initial temperature
   TEBEG  =    0.0;   TEEND  =   0.0 temperature during run
   SMASS  =  -3.00    Nose mass-parameter (am)
   estimated Nose-frequenzy (Omega)   =  0.10E-29 period in steps =****** mass=  -0.366E-26a.u.
   SCALEE = 1.0000    scale energy and forces
   NPACO  =    256;   APACO  = 16.0  distance and # of slots for P.C.
   PSTRESS=    0.0 pullay stress

  Mass of Ions in am
   POMASS =  12.01 14.00 58.93 55.85
  Ionic Valenz
   ZVAL   =   4.00  5.00  9.00  8.00
  Atomic Wigner-Seitz radii
   RWIGS  =  -1.00 -1.00 -1.00 -1.00
  virtual crystal weights 
   VCA    =   1.00  1.00  1.00  1.00
   NELECT =     247.0000    total number of electrons
   NUPDOWN=      -1.0000    fix difference up-down

 DOS related values:
   EMIN   =  10.00;   EMAX   =-10.00  energy-range for DOS
   EFERMI =   0.00
   ISMEAR =     0;   SIGMA  =   0.10  broadening in eV -4-tet -1-fermi 0-gaus

 Electronic relaxation 2 (details)
   IALGO  =     53    algorithm
   LDIAG  =      T    sub-space diagonalisation (order eigenvalues)
   LSUBROT=      F    optimize rotation matrix (better conditioning)
   TURBO    =      0    0=normal 1=particle mesh
   IRESTART =      0    0=no restart 2=restart with 2 vectors
   NREBOOT  =      0    no. of reboots
   NMIN     =      0    reboot dimension
   EREF     =   0.00    reference energy to select bands
   IMIX   =      4    mixing-type and parameters
     AMIX     =   0.40;   BMIX     =  1.00
     AMIX_MAG =   1.60;   BMIX_MAG =  1.00
     AMIN     =   0.10
     WC   =   100.;   INIMIX=   1;  MIXPRE=   1;  MAXMIX= -45

 Intra band minimization:
   WEIMIN = 0.0000     energy-eigenvalue tresh-hold
   EBREAK =  0.16E-06  absolut break condition
   DEPER  =   0.30     relativ break condition  

   TIME   =   0.20     timestep for ELM

  volume/ion in A,a.u.               =      54.77       369.63
  Fermi-wavevector in a.u.,A,eV,Ry     =   0.698726  1.320401  6.642609  0.488218
  Thomas-Fermi vector in A             =   1.782409
 
 Write flags
   LWAVE        =      T    write WAVECAR
   LDOWNSAMPLE  =      F    k-point downsampling of WAVECAR
   LCHARG       =      T    write CHGCAR
   LVTOT        =      F    write LOCPOT, total local potential
   LVHAR        =      T    write LOCPOT, Hartree potential only
   LELF         =      F    write electronic localiz. function (ELF)
   LORBIT       =     11    0 simple, 1 ext, 2 COOP (PROOUT), +10 PAW based schemes


 Dipole corrections
   LMONO  =      F    monopole corrections only (constant potential shift)
   LDIPOL =      T    correct potential (dipole corrections)
   IDIPOL =      3    1-x, 2-y, 3-z, 4-all directions 
   EPSILON=  1.0000000 bulk dielectric constant

 Exchange correlation treatment:
   GGA     =    PE    GGA type
   LEXCH   =     8    internal setting for exchange type
   VOSKOWN=      0    Vosko Wilk Nusair interpolation
   EXXOEP  =     0    0=HF, 1=EXX-LHF (local Hartree Fock) 2=EXX OEP
   LHFCALC =     T    Hartree Fock is set to
   LSYMGRAD=     F    symmetrize gradient (conserves proper symmetry)
   PRECFOCK=normal    Normal, Fast or Accurate (Low or Medium for compatibility)
   LRHFCALC=     F    long range Hartree Fock
   LRSCOR  =     F    long range correlation only (use DFT for short range part)
   LTHOMAS =     F    Thomas Fermi screening in HF
   LMODELHF=     F    short range full HF, long range fraction AEXX
   ENCUT4O =  -1.0   cutoff for four orbital integrals eV
   LMAXFOCK=     4    L truncation for augmentation on plane wave grid
   LMAXFOCKAE=  -1    L truncation for all-electron charge restoration on plane wave grid
   NMAXFOCKAE=   1    number of basis functions for all-electron charge restoration
   LFOCKAEDFT=     F  apply the AE augmentation even for DFT
   NKREDX  =     1    reduce k-point grid by
   NKREDY  =     1    reduce k-point grid by
   NKREDZ  =     1    reduce k-point grid by
   SHIFTRED=     F    shift reduced grid of Gamma
   HFKIDENT=     F    idential grid for each k-point
   ODDONLY =     F    use only odd q-grid points
   EVENONLY=     F    use only even q-grid points
   HFALPHA =   -1.0000 decay constant for conv. correction
   MCALPHA =    0.0000 extent of test-charge in conv. correction in multipole expansion
   AEXX    =    0.2500 exact exchange contribution
   HFSCREEN=    0.2000 screening length (either q_TF or 0.3 A-1)
   HFSCREENC=   0.2000 screening length for correlation (either q_TF or 0.3 A-1)
   HFRCUT  =    0.0000 spherical cutoff for potential kernel
   ALDAX   =    0.7500 LDA exchange part
   AGGAX   =    0.7500 GGA exchange part
   ALDAC   =    1.0000 LDA correlation
   AGGAC   =    1.0000 GGA correlation
   ENCUTFOCK=  -1.0 apply spherical cutoff to Coloumb kernel
   NBANDSGWLOW=     1    first orbital included in HF term
   NBLOCK_FOCK=    64    blocking factor in FOCK_ACC
 Linear response parameters
   LEPSILON=     F    determine dielectric tensor
   LRPA    =     F    only Hartree local field effects (RPA)
   LNABLA  =     F    use nabla operator in PAW spheres
   LVEL    =     F    velocity operator in full k-point grid
   LINTERFAST=   F  fast interpolation
   KINTER  =     0    interpolate to denser k-point grid
   CSHIFT  =0.1000    complex shift for real part using Kramers Kronig
   OMEGAMAX=  -1.0    maximum frequency
   DEG_THRESHOLD= 0.2000000E-02 threshold for treating states as degnerate
   RTIME   =   -0.100 relaxation time in fs
  (WPLASMAI=    0.000 imaginary part of plasma frequency in eV, 0.658/RTIME)
   DFIELD  = 0.0000000 0.0000000 0.0000000 field for delta impulse in time
 
 Orbital magnetization related:
   ORBITALMAG=     F  switch on orbital magnetization
   LCHIMAG   =     F  perturbation theory with respect to B field
   DQ        =  0.001000  dq finite difference perturbation B field
   LLRAUG    =     F  two centre corrections for induced B field



--------------------------------------------------------------------------------------------------------


 Static calculation
 charge density and potential will be updated during run
 spin polarized calculation
 Conjugate gradient for all bands (Freysoldt, et al. PRB 79, 241103 (2009))
 perform sub-space diagonalisation
    before iterative eigenvector-optimisation
 modified Broyden-mixing scheme, WC =      100.0
 initial mixing is a Kerker type mixing with AMIX =  0.4000 and BMIX =      1.0000
 Hartree-type preconditioning will be used
 using additional bands           31
 reciprocal scheme for non local part
 use partial core corrections
 no Harris-corrections to forces 
 use gradient corrections 
 use of overlap-Matrix (Vanderbilt PP)
 Gauss-broadening in eV      SIGMA  =   0.10


--------------------------------------------------------------------------------------------------------


  energy-cutoff  :      500.00
  volume of cell :     3176.88
      direct lattice vectors                 reciprocal lattice vectors
    12.653105177  0.018431771 -0.004244111     0.079032148 -0.000106864  0.000026232
     0.016952524 12.537506683  0.000500814    -0.000116189  0.079760833 -0.000003213
    -0.006645917  0.000797092 20.025963462     0.000016752 -0.000002017  0.049935181

  length of vectors
    12.653119313 12.537518154 20.025964581     0.079032225  0.079760917  0.049935184


 
 old parameters found on file WAVECAR:
  energy-cutoff  :      500.00
  volume of cell :     3176.88
      direct lattice vectors                 reciprocal lattice vectors
    12.810000000  0.000000000  0.000000000     0.078064012  0.000000000  0.000000000
     0.000000000 12.400000000  0.000000000     0.000000000  0.080645161  0.000000000
     0.000000000  0.000000000 20.000000000     0.000000000  0.000000000  0.050000000

  length of vectors

 
 k-points in units of 2pi/SCALE and weight: KPOINTS created by Atomic Simulation Env
   0.01972899  0.01991349  0.00000575       0.500
  -0.01978708  0.01996692 -0.00000736       0.500
 
 k-points in reciprocal lattice and weights: KPOINTS created by Atomic Simulation Env
   0.25000000  0.25000000  0.00000000       0.500
  -0.25000000  0.25000000  0.00000000       0.500
 
 position of ions in fractional coordinates (direct lattice) 
   0.22163223  0.99870452  0.49996914
   0.05516314  0.09968449  0.49996721
   0.11010445  0.99951647  0.49998303
   0.27729811  0.09638227  0.49999095
   0.22283385  0.19533568  0.50003567
   0.05810807  0.30042760  0.49999939
   0.11096123  0.19872998  0.49998197
   0.28124938  0.29175391  0.50020985
   0.06448325  0.49792532  0.50002256
   0.12081494  0.39666977  0.50007425
   0.05852200  0.69868304  0.49999875
   0.11943536  0.60050397  0.50002536
   0.27795833  0.70337425  0.50002978
   0.22286736  0.80151366  0.50000622
   0.05570711  0.89947727  0.50000984
   0.11115069  0.79982543  0.50001145
   0.27762270  0.90022969  0.49997805
   0.55615589  0.99867858  0.49992232
   0.38897574  0.09630162  0.50000240
   0.44493360  0.99823506  0.49992943
   0.61092342  0.09737246  0.49996818
   0.55565728  0.19536824  0.50010562
   0.44306645  0.19436203  0.50016250
   0.55209413  0.60759147  0.50013476
   0.39055240  0.70405744  0.50004208
   0.61068917  0.70389237  0.49997894
   0.55634406  0.80263979  0.49993756
   0.38880076  0.90043247  0.49994510
   0.44465902  0.80223355  0.49996599
   0.61212245  0.90032928  0.49992310
   0.88939860  0.99994020  0.49999497
   0.72264510  0.09929276  0.49996699
   0.77801690  0.99969773  0.49997070
   0.94318297  0.10051522  0.49997264
   0.88815907  0.20137321  0.49996529
   0.71438090  0.29860780  0.50010945
   0.77535486  0.20056503  0.49999327
   0.94393254  0.30161110  0.49997727
   0.88598638  0.40087224  0.50001516
   0.71365294  0.50283265  0.50015537
   0.76940474  0.40122490  0.50011040
   0.94797487  0.49829532  0.49998996
   0.89009545  0.59769258  0.49996673
   0.72271671  0.70044817  0.49997265
   0.77606934  0.59895634  0.50000967
   0.94574262  0.69790636  0.49996998
   0.89055980  0.79863839  0.49998332
   0.72359289  0.89959067  0.49995429
   0.77853465  0.79941767  0.49996204
   0.94435089  0.89925700  0.50000904
   0.23253882  0.38960381  0.50020971
   0.22810935  0.60619477  0.50005729
   0.39010651  0.29108888  0.50037412
   0.60552221  0.29255654  0.50022303
   0.60229708  0.51045580  0.50032889
   0.44291046  0.60697784  0.50014681
   0.34048664  0.49563317  0.50024303
   0.48968016  0.40614217  0.50055648
 
 position of ions in cartesian coordinates  (Angst):
   2.81794371 12.52574817 10.01192318
   0.69635221  1.25121022 10.01214087
   1.40678467 12.53387234 10.01267518
   3.50699324  1.21390298 10.01167182
   2.81952839  2.45352814 10.01284820
   0.73701760  3.76808263 10.01287340
   1.40405026  2.49402217 10.01224933
   3.56029961  3.66344929 10.01613666
   0.82103130  6.24432912 10.01340917
   1.53208521  4.97587532 10.01415447
   0.74900645  8.76122049 10.01305817
   1.51808509  7.53142253 10.01328341
   3.52563675  8.82408122 10.01275072
   2.83022878 10.05348920 10.01256184
   0.71679327 11.27862767 10.01339276
   1.41663739 10.03026390 10.01313985
   3.52472758 11.29215142 10.01181479
   7.05070661 12.53158880 10.00956593
   4.92006058  1.21495032 10.01142709
   5.64339173 12.52397811 10.01018009
   7.72840628  1.23246678 10.00980045
   7.03077829  2.46007097 10.01283650
   5.60613728  2.44538043 10.01445280
   6.99268149  7.62825688 10.01364147
   4.95031289  8.83472207 10.01251957
   7.73572418  8.83670991 10.01032072
   7.04976417 10.07375460 10.00977215
   4.93147896 11.29674295 10.01068313
   5.63659454 10.06660287 10.01081527
   7.75719014 11.29956530 10.00929469
  11.26728256 12.55354862 10.00960701
   9.14206498  1.25860182 10.00930343
   9.85795426 12.54845569 10.00959366
  11.93257458  1.27799330 10.00848120
  11.23806115  2.54148688 10.00861812
   9.04087514  3.75736320 10.01229123
   9.81072378  2.52927508 10.00965664
  11.94546801  3.79924812 10.00867139
  11.21395164  5.04266727 10.00972578
   9.03512594  6.31782023 10.01331612
   9.73883719  5.04493996 10.01212806
  11.99995015  6.26525233 10.00900696
  11.26928099  7.51037924 10.00883711
   9.15316217  8.79559306 10.00971752
   9.82651779  7.52412206 10.01018163
  11.97508932  8.76783587 10.00871629
  11.27856287 10.02974723 10.00926811
   9.16762457 11.29235969 10.00944595
   9.86111021 10.03745262 10.00931772
  11.96089278 11.29224525 10.00960523
   2.94561851  4.88934525 10.01638960
   2.89324477  7.60477398 10.01346444
   4.93766796  3.65711799 10.01896392
   7.66337129  3.67948919 10.01502474
   7.62625667  6.41134325 10.01726753
   5.61115854  7.61855102 10.01434604
   4.31329098  6.22067864 10.01665178
   6.19953307  5.10143486 10.02225090
 


--------------------------------------------------------------------------------------------------------


 k-point  1 :   0.2500 0.2500 0.0000  plane waves:   80665
 k-point  2 :  -0.2500 0.2500 0.0000  plane waves:   80656

 maximum and minimum number of plane-waves per node :      2051     1990

 maximum number of plane-waves:     80665
 maximum index in each direction: 
   IXMAX=   23   IYMAX=   22   IZMAX=   36
   IXMIN=  -23   IYMIN=  -23   IZMIN=  -36


 parallel 3D FFT for wavefunctions:
    minimum data exchange during FFTs selected (reduces bandwidth)
 parallel 3D FFT for charge:
    minimum data exchange during FFTs selected (reduces bandwidth)


 FFT grid for exact exchange (Hartree Fock) 
  NGX = 70; NGY = 70; NGZ =112

 
 Radii for the augmentation spheres in the non-local exchange
 for species   1 augmentation radius   0.874 (default was   0.699)
       energy cutoff for augmentation   2000.0
 for species   2 augmentation radius   0.886 (default was   0.709)
       energy cutoff for augmentation   2000.0
 for species   3 augmentation radius   1.307 (default was   1.045)
       energy cutoff for augmentation   2000.0
 for species   4 augmentation radius   1.263 (default was   1.010)
       energy cutoff for augmentation   2000.0

 real space projection operators:
  total allocation   :       2487.61 KBytes
  max/ min on nodes  :         92.27         42.42

 Maximum index for augmentation-charges in exchange           71
  SETUP_FOCK is finished

 total amount of memory used by VASP MPI-rank0   141249. kBytes
=======================================================================

   base      :      30000. kBytes
   nonl-proj :       4282. kBytes
   fftplans  :      11851. kBytes
   grid      :      31266. kBytes
   one-center:         62. kBytes
   HF        :         23. kBytes
   nonlr-proj:       1716. kBytes
   wavefun   :      62049. kBytes
 
     INWAV:  cpu time    5.1447: real time    5.1586
 Broyden mixing: mesh for mixing (old mesh)
   NGX = 47   NGY = 45   NGZ = 73
  (NGX  =192   NGY  =192   NGZ  =300)
  gives a total of 154395 points

 charge density for first step will be calculated from the start-wavefunctions


--------------------------------------------------------------------------------------------------------


 Maximum index for augmentation-charges          335 (set IRDMAX)


--------------------------------------------------------------------------------------------------------


 initial charge from wavefunction
 First call to EWALD:  gamma=   0.121
 Maximum number of real-space cells 3x 3x 2
 Maximum number of reciprocal cells 2x 2x 4

    FEWALD:  cpu time    0.0039: real time    0.0039


--------------------------------------- Iteration      1(   1)  ---------------------------------------


    POTLOK:  cpu time    1.1130: real time    1.1164
    SETDIJ:  cpu time    1.2180: real time    1.2241
    TRIAL :  cpu time  207.2895: real time  208.0337
    CORREC:  cpu time    0.0010: real time    0.0010
    CHARGE:  cpu time    1.1972: real time    1.2005
    --------------------------------------------
      LOOP:  cpu time  210.8406: real time  211.5997

 eigenvalue-minimisations  :     0
 total energy-change (2. order) :-0.6073563E+03  (-0.4989197E+00)
 number of electron     246.9999996 magnetization      -3.0703589
 augmentation part       15.3959863 magnetization      -2.6999420

 DIPCOR: dipole corrections for dipol
 direction  3 min pos     1,
 dipolmoment           0.000000     -0.000000     -0.000365 electrons x Angstroem
 Tr[quadrupol]     -6682.886625

 energy correction for charged system         0.000000 eV
 dipol+quadrupol energy correction            0.000000 eV
 added-field ion interaction          0.000000 eV  (added to PSCEN)


 Free energy of the ion-electron system (eV)
  ---------------------------------------------------
  alpha Z        PSCENC =       100.26428616
  Ewald energy   TEWEN  =     40493.17898311
  -Hartree energ DENC   =    -49323.82960517
  -exchange      EXHF   =       563.21826245
  -V(xc)+E(xc)   XCENC  =       636.39322920
  PAW double counting   =     26822.56414826   -26910.88293936
  entropy T*S    EENTRO =        -0.00966269
  eigenvalues    EBANDS =     -3225.90694449
  atomic energy  EATOM  =     10237.65472164
  ---------------------------------------------------
  free energy    TOTEN  =      -607.35626783 eV

  energy without entropy =     -607.34660514  energy(sigma->0) =     -607.35143648
  exchange ACFDT corr.  =        -0.00469799  see jH, gK, PRB 81, 115126


--------------------------------------------------------------------------------------------------------




--------------------------------------- Iteration      1(   2)  ---------------------------------------


    POTLOK:  cpu time    1.1326: real time    1.1381
    SETDIJ:  cpu time    1.2537: real time    1.2569
    TRIAL :  cpu time  207.4445: real time  208.1414
    CORREC:  cpu time    0.0010: real time    0.0010
    CHARGE:  cpu time    1.2009: real time    1.2068
    --------------------------------------------
      LOOP:  cpu time  211.0345: real time  211.7486

 eigenvalue-minimisations  :     0
 total energy-change (2. order) :-0.3668408E+00  (-0.5262707E+00)
 number of electron     246.9999996 magnetization      -3.0611016
 augmentation part       15.3577486 magnetization      -2.7710858

 DIPCOR: dipole corrections for dipol
 direction  3 min pos     1,
 dipolmoment           0.000000     -0.000000     -0.000712 electrons x Angstroem
 Tr[quadrupol]     -6682.729795

 energy correction for charged system         0.000000 eV
 dipol+quadrupol energy correction            0.000000 eV
 added-field ion interaction          0.000000 eV  (added to PSCEN)


 Free energy of the ion-electron system (eV)
  ---------------------------------------------------
  alpha Z        PSCENC =       100.26428617
  Ewald energy   TEWEN  =     40493.17898311
  -Hartree energ DENC   =    -49311.63454303
  -exchange      EXHF   =       563.14900454
  -V(xc)+E(xc)   XCENC  =       636.08180148
  PAW double counting   =     26948.58026609   -27037.27816148
  entropy T*S    EENTRO =        -0.00861846
  eigenvalues    EBANDS =     -3237.70980442
  atomic energy  EATOM  =     10237.65472164
  ---------------------------------------------------
  free energy    TOTEN  =      -607.72310861 eV

  energy without entropy =     -607.71449014  energy(sigma->0) =     -607.71879937
  exchange ACFDT corr.  =        -0.00539827  see jH, gK, PRB 81, 115126


--------------------------------------------------------------------------------------------------------




--------------------------------------- Iteration      1(   3)  ---------------------------------------


    POTLOK:  cpu time    1.1518: real time    1.1578
    SETDIJ:  cpu time    1.2368: real time    1.2407
    TRIAL :  cpu time  207.0809: real time  207.7683
    CORREC:  cpu time    0.0009: real time    0.0009
    CHARGE:  cpu time    1.1960: real time    1.1997
    --------------------------------------------
      LOOP:  cpu time  210.6680: real time  211.3735

 eigenvalue-minimisations  :     0
 total energy-change (2. order) :-0.3281810E+00  (-0.3500320E+00)
 number of electron     246.9999996 magnetization      -3.0535357
 augmentation part       15.3536274 magnetization      -2.8231512

 DIPCOR: dipole corrections for dipol
 direction  3 min pos     1,
 dipolmoment           0.000000     -0.000000     -0.000307 electrons x Angstroem
 Tr[quadrupol]     -6682.545456

 energy correction for charged system         0.000000 eV
 dipol+quadrupol energy correction            0.000000 eV
 added-field ion interaction          0.000000 eV  (added to PSCEN)


 Free energy of the ion-electron system (eV)
  ---------------------------------------------------
  alpha Z        PSCENC =       100.26428616
  Ewald energy   TEWEN  =     40493.17898311
  -Hartree energ DENC   =    -49293.32046566
  -exchange      EXHF   =       563.04210926
  -V(xc)+E(xc)   XCENC  =       635.62403240
  PAW double counting   =     27103.08720752   -27190.33319120
  entropy T*S    EENTRO =        -0.00775723
  eigenvalues    EBANDS =     -3257.24035438
  atomic energy  EATOM  =     10237.65472164
  ---------------------------------------------------
  free energy    TOTEN  =      -608.05128962 eV

  energy without entropy =     -608.04353240  energy(sigma->0) =     -608.04741101
  exchange ACFDT corr.  =        -0.00576918  see jH, gK, PRB 81, 115126


--------------------------------------------------------------------------------------------------------




--------------------------------------- Iteration      1(   4)  ---------------------------------------


    POTLOK:  cpu time    1.1658: real time    1.1689
    SETDIJ:  cpu time    1.2353: real time    1.2385
    TRIAL :  cpu time  207.6268: real time  208.3080
    CORREC:  cpu time    0.0009: real time    0.0009
    CHARGE:  cpu time    1.2161: real time    1.2195
    --------------------------------------------
      LOOP:  cpu time  211.2466: real time  211.9422

 eigenvalue-minimisations  :     0
 total energy-change (2. order) :-0.2249552E+00  (-0.1685112E+00)
 number of electron     246.9999996 magnetization      -3.0469775
 augmentation part       15.3551588 magnetization      -2.8625769

 DIPCOR: dipole corrections for dipol
 direction  3 min pos     1,
 dipolmoment           0.000000     -0.000000     -0.000747 electrons x Angstroem
 Tr[quadrupol]     -6682.495099

 energy correction for charged system         0.000000 eV
 dipol+quadrupol energy correction            0.000000 eV
 added-field ion interaction          0.000000 eV  (added to PSCEN)


 Free energy of the ion-electron system (eV)
  ---------------------------------------------------
  alpha Z        PSCENC =       100.26428617
  Ewald energy   TEWEN  =     40493.17898311
  -Hartree energ DENC   =    -49288.47208054
  -exchange      EXHF   =       563.25221246
  -V(xc)+E(xc)   XCENC  =       635.54063386
  PAW double counting   =     27240.74870262   -27328.48797266
  entropy T*S    EENTRO =        -0.00698990
  eigenvalues    EBANDS =     -3261.94797426
  atomic energy  EATOM  =     10237.65472164
  ---------------------------------------------------
  free energy    TOTEN  =      -608.27624483 eV

  energy without entropy =     -608.26925493  energy(sigma->0) =     -608.27274988
  exchange ACFDT corr.  =        -0.00578059  see jH, gK, PRB 81, 115126


--------------------------------------------------------------------------------------------------------




--------------------------------------- Iteration      1(   5)  ---------------------------------------


    POTLOK:  cpu time    1.1459: real time    1.1535
    SETDIJ:  cpu time    1.2568: real time    1.2617
    TRIAL :  cpu time  207.8582: real time  208.5278
    CORREC:  cpu time    0.0013: real time    0.0013
    CHARGE:  cpu time    1.1989: real time    1.2021
    --------------------------------------------
      LOOP:  cpu time  211.4644: real time  212.1538

 eigenvalue-minimisations  :     0
 total energy-change (2. order) :-0.1381572E+00  (-0.1155835E+00)
 number of electron     246.9999996 magnetization      -3.0416932
 augmentation part       15.3629789 magnetization      -2.8867436

 DIPCOR: dipole corrections for dipol
 direction  3 min pos     1,
 dipolmoment           0.000000     -0.000000     -0.000757 electrons x Angstroem
 Tr[quadrupol]     -6682.524869

 energy correction for charged system         0.000000 eV
 dipol+quadrupol energy correction            0.000000 eV
 added-field ion interaction          0.000000 eV  (added to PSCEN)


 Free energy of the ion-electron system (eV)
  ---------------------------------------------------
  alpha Z        PSCENC =       100.26428617
  Ewald energy   TEWEN  =     40493.17898311
  -Hartree energ DENC   =    -49288.85007289
  -exchange      EXHF   =       563.55568515
  -V(xc)+E(xc)   XCENC  =       635.58978681
  PAW double counting   =     27340.06807292   -27427.69113687
  entropy T*S    EENTRO =        -0.00635110
  eigenvalues    EBANDS =     -3262.17773812
  atomic energy  EATOM  =     10237.65472164
  ---------------------------------------------------
  free energy    TOTEN  =      -608.41440199 eV

  energy without entropy =     -608.40805089  energy(sigma->0) =     -608.41122644
  exchange ACFDT corr.  =        -0.00496598  see jH, gK, PRB 81, 115126


--------------------------------------------------------------------------------------------------------




--------------------------------------- Iteration      1(   6)  ---------------------------------------


    POTLOK:  cpu time    1.1458: real time    1.1489
    SETDIJ:  cpu time    1.2351: real time    1.2383
    TRIAL :  cpu time  206.7194: real time  207.4125
    CORREC:  cpu time    0.0009: real time    0.0009
    CHARGE:  cpu time    1.1999: real time    1.2032
    --------------------------------------------
      LOOP:  cpu time  210.3030: real time  211.0107

 eigenvalue-minimisations  :     0
 total energy-change (2. order) :-0.9680536E-01  (-0.9127041E-01)
 number of electron     246.9999996 magnetization      -3.0373166
 augmentation part       15.3725558 magnetization      -2.8989771

 DIPCOR: dipole corrections for dipol
 direction  3 min pos     1,
 dipolmoment           0.000000     -0.000000     -0.000753 electrons x Angstroem
 Tr[quadrupol]     -6682.587127

 energy correction for charged system         0.000000 eV
 dipol+quadrupol energy correction            0.000000 eV
 added-field ion interaction          0.000000 eV  (added to PSCEN)


 Free energy of the ion-electron system (eV)
  ---------------------------------------------------
  alpha Z        PSCENC =       100.26428617
  Ewald energy   TEWEN  =     40493.17898311
  -Hartree energ DENC   =    -49292.44181884
  -exchange      EXHF   =       563.88488141
  -V(xc)+E(xc)   XCENC  =       635.72210376
  PAW double counting   =     27404.61093584   -27492.22363305
  entropy T*S    EENTRO =        -0.00580585
  eigenvalues    EBANDS =     -3259.15531629
  atomic energy  EATOM  =     10237.65472164
  ---------------------------------------------------
  free energy    TOTEN  =      -608.51120735 eV

  energy without entropy =     -608.50540150  energy(sigma->0) =     -608.50830443
  exchange ACFDT corr.  =        -0.00432305  see jH, gK, PRB 81, 115126


--------------------------------------------------------------------------------------------------------




--------------------------------------- Iteration      1(   7)  ---------------------------------------


    POTLOK:  cpu time    1.1432: real time    1.1466
    SETDIJ:  cpu time    1.2527: real time    1.2582
    TRIAL :  cpu time  206.5873: real time  207.2905
    CORREC:  cpu time    0.0012: real time    0.0012
    CHARGE:  cpu time    1.1979: real time    1.2011
    --------------------------------------------
      LOOP:  cpu time  210.1843: real time  210.9039

 eigenvalue-minimisations  :     0
 total energy-change (2. order) :-0.7784519E-01  (-0.6659848E-01)
 number of electron     246.9999996 magnetization      -3.0336287
 augmentation part       15.3775465 magnetization      -2.9071805

 DIPCOR: dipole corrections for dipol
 direction  3 min pos     1,
 dipolmoment           0.000000     -0.000000     -0.000867 electrons x Angstroem
 Tr[quadrupol]     -6682.643745

 energy correction for charged system         0.000000 eV
 dipol+quadrupol energy correction            0.000000 eV
 added-field ion interaction          0.000000 eV  (added to PSCEN)


 Free energy of the ion-electron system (eV)
  ---------------------------------------------------
  alpha Z        PSCENC =       100.26428618
  Ewald energy   TEWEN  =     40493.17898311
  -Hartree energ DENC   =    -49296.60453730
  -exchange      EXHF   =       564.17214845
  -V(xc)+E(xc)   XCENC  =       635.86767649
  PAW double counting   =     27443.02345508   -27530.89350234
  entropy T*S    EENTRO =        -0.00533309
  eigenvalues    EBANDS =     -3255.24647799
  atomic energy  EATOM  =     10237.65472164
  ---------------------------------------------------
  free energy    TOTEN  =      -608.58905254 eV

  energy without entropy =     -608.58371945  energy(sigma->0) =     -608.58638600
  exchange ACFDT corr.  =        -0.00380231  see jH, gK, PRB 81, 115126


--------------------------------------------------------------------------------------------------------




--------------------------------------- Iteration      1(   8)  ---------------------------------------


    POTLOK:  cpu time    1.1385: real time    1.1416
    SETDIJ:  cpu time    1.2166: real time    1.2220
    TRIAL :  cpu time  206.6289: real time  207.3212
    CORREC:  cpu time    0.0010: real time    0.0010
    CHARGE:  cpu time    1.1973: real time    1.2006
    --------------------------------------------
      LOOP:  cpu time  210.1840: real time  210.8928

 eigenvalue-minimisations  :     0
 total energy-change (2. order) :-0.6018082E-01  (-0.5501008E-01)
 number of electron     246.9999996 magnetization      -3.0305599
 augmentation part       15.3804588 magnetization      -2.9140507

 DIPCOR: dipole corrections for dipol
 direction  3 min pos     1,
 dipolmoment           0.000000     -0.000000     -0.000900 electrons x Angstroem
 Tr[quadrupol]     -6682.675086

 energy correction for charged system         0.000000 eV
 dipol+quadrupol energy correction            0.000000 eV
 added-field ion interaction          0.000000 eV  (added to PSCEN)


 Free energy of the ion-electron system (eV)
  ---------------------------------------------------
  alpha Z        PSCENC =       100.26428618
  Ewald energy   TEWEN  =     40493.17898311
  -Hartree energ DENC   =    -49298.84259057
  -exchange      EXHF   =       564.37814708
  -V(xc)+E(xc)   XCENC  =       635.95832515
  PAW double counting   =     27463.81154189   -27551.74845349
  entropy T*S    EENTRO =        -0.00492965
  eigenvalues    EBANDS =     -3253.29886125
  atomic energy  EATOM  =     10237.65472164
  ---------------------------------------------------
  free energy    TOTEN  =      -608.64923336 eV

  energy without entropy =     -608.64430371  energy(sigma->0) =     -608.64676854
  exchange ACFDT corr.  =        -0.00337613  see jH, gK, PRB 81, 115126


--------------------------------------------------------------------------------------------------------




--------------------------------------- Iteration      1(   9)  ---------------------------------------


    POTLOK:  cpu time    1.1440: real time    1.1563
    SETDIJ:  cpu time    1.2350: real time    1.2382
    TRIAL :  cpu time  206.8300: real time  207.5285
    CORREC:  cpu time    0.0009: real time    0.0009
    CHARGE:  cpu time    1.1904: real time    1.1964
    --------------------------------------------
      LOOP:  cpu time  210.4021: real time  211.1269

 eigenvalue-minimisations  :     0
 total energy-change (2. order) :-0.5016072E-01  (-0.4604851E-01)
 number of electron     246.9999996 magnetization      -3.0280766
 augmentation part       15.3840732 magnetization      -2.9199543

 DIPCOR: dipole corrections for dipol
 direction  3 min pos     1,
 dipolmoment           0.000000     -0.000000     -0.000877 electrons x Angstroem
 Tr[quadrupol]     -6682.687510

 energy correction for charged system         0.000000 eV
 dipol+quadrupol energy correction            0.000000 eV
 added-field ion interaction          0.000000 eV  (added to PSCEN)


 Free energy of the ion-electron system (eV)
  ---------------------------------------------------
  alpha Z        PSCENC =       100.26428618
  Ewald energy   TEWEN  =     40493.17898311
  -Hartree energ DENC   =    -49299.60155573
  -exchange      EXHF   =       564.52276423
  -V(xc)+E(xc)   XCENC  =       636.00474595
  PAW double counting   =     27474.51309013   -27562.41884468
  entropy T*S    EENTRO =        -0.00459628
  eigenvalues    EBANDS =     -3252.81265525
  atomic energy  EATOM  =     10237.65472164
  ---------------------------------------------------
  free energy    TOTEN  =      -608.69939408 eV

  energy without entropy =     -608.69479780  energy(sigma->0) =     -608.69709594
  exchange ACFDT corr.  =        -0.00302884  see jH, gK, PRB 81, 115126


--------------------------------------------------------------------------------------------------------




--------------------------------------- Iteration      1(  10)  ---------------------------------------


    POTLOK:  cpu time    1.1327: real time    1.1358
    SETDIJ:  cpu time    1.2517: real time    1.2549
    TRIAL :  cpu time  206.8265: real time  207.5119
    CORREC:  cpu time    0.0009: real time    0.0009
    CHARGE:  cpu time    1.1972: real time    1.2005
    --------------------------------------------
      LOOP:  cpu time  210.4114: real time  211.1103

 eigenvalue-minimisations  :     0
 total energy-change (2. order) :-0.4303777E-01  (-0.4045009E-01)
 number of electron     246.9999996 magnetization      -3.0261698
 augmentation part       15.3873258 magnetization      -2.9252810

 DIPCOR: dipole corrections for dipol
 direction  3 min pos     1,
 dipolmoment           0.000000     -0.000000     -0.000890 electrons x Angstroem
 Tr[quadrupol]     -6682.693013

 energy correction for charged system         0.000000 eV
 dipol+quadrupol energy correction            0.000000 eV
 added-field ion interaction          0.000000 eV  (added to PSCEN)


 Free energy of the ion-electron system (eV)
  ---------------------------------------------------
  alpha Z        PSCENC =       100.26428618
  Ewald energy   TEWEN  =     40493.17898311
  -Hartree energ DENC   =    -49299.98329700
  -exchange      EXHF   =       564.63609828
  -V(xc)+E(xc)   XCENC  =       636.03632781
  PAW double counting   =     27480.06571559   -27568.03556771
  entropy T*S    EENTRO =        -0.00433608
  eigenvalues    EBANDS =     -3252.55510345
  atomic energy  EATOM  =     10237.65472164
  ---------------------------------------------------
  free energy    TOTEN  =      -608.74243185 eV

  energy without entropy =     -608.73809576  energy(sigma->0) =     -608.74026380
  exchange ACFDT corr.  =        -0.00275019  see jH, gK, PRB 81, 115126


--------------------------------------------------------------------------------------------------------




--------------------------------------- Iteration      1(  11)  ---------------------------------------


    POTLOK:  cpu time    1.1307: real time    1.1346
    SETDIJ:  cpu time    1.2339: real time    1.2384
    TRIAL :  cpu time  206.3769: real time  207.0520
    CORREC:  cpu time    0.0009: real time    0.0009
    CHARGE:  cpu time    1.1917: real time    1.1949
    --------------------------------------------
      LOOP:  cpu time  209.9363: real time  210.6279

 eigenvalue-minimisations  :     0
 total energy-change (2. order) :-0.3811188E-01  (-0.3610428E-01)
 number of electron     246.9999996 magnetization      -3.0247722
 augmentation part       15.3896075 magnetization      -2.9302319

 DIPCOR: dipole corrections for dipol
 direction  3 min pos     1,
 dipolmoment           0.000000     -0.000000     -0.000916 electrons x Angstroem
 Tr[quadrupol]     -6682.697306

 energy correction for charged system         0.000000 eV
 dipol+quadrupol energy correction            0.000000 eV
 added-field ion interaction          0.000000 eV  (added to PSCEN)


 Free energy of the ion-electron system (eV)
  ---------------------------------------------------
  alpha Z        PSCENC =       100.26428618
  Ewald energy   TEWEN  =     40493.17898311
  -Hartree energ DENC   =    -49300.24574162
  -exchange      EXHF   =       564.73388395
  -V(xc)+E(xc)   XCENC  =       636.06127222
  PAW double counting   =     27483.03548271   -27571.09756678
  entropy T*S    EENTRO =        -0.00414320
  eigenvalues    EBANDS =     -3252.36152906
  atomic energy  EATOM  =     10237.65472164
  ---------------------------------------------------
  free energy    TOTEN  =      -608.78054373 eV

  energy without entropy =     -608.77640053  energy(sigma->0) =     -608.77847213
  exchange ACFDT corr.  =        -0.00253496  see jH, gK, PRB 81, 115126


--------------------------------------------------------------------------------------------------------




--------------------------------------- Iteration      1(  12)  ---------------------------------------


    POTLOK:  cpu time    1.1282: real time    1.1314
    SETDIJ:  cpu time    1.2373: real time    1.2416
    TRIAL :  cpu time  207.6219: real time  208.3542
    CORREC:  cpu time    0.0009: real time    0.0009
    CHARGE:  cpu time    1.1911: real time    1.1956
    --------------------------------------------
      LOOP:  cpu time  211.1812: real time  211.9300

 eigenvalue-minimisations  :     0
 total energy-change (2. order) :-0.3443302E-01  (-0.3300666E-01)
 number of electron     246.9999996 magnetization      -3.0237632
 augmentation part       15.3913642 magnetization      -2.9342360

 DIPCOR: dipole corrections for dipol
 direction  3 min pos     1,
 dipolmoment           0.000000     -0.000000     -0.000925 electrons x Angstroem
 Tr[quadrupol]     -6682.702107

 energy correction for charged system         0.000000 eV
 dipol+quadrupol energy correction            0.000000 eV
 added-field ion interaction          0.000000 eV  (added to PSCEN)


 Free energy of the ion-electron system (eV)
  ---------------------------------------------------
  alpha Z        PSCENC =       100.26428618
  Ewald energy   TEWEN  =     40493.17898311
  -Hartree energ DENC   =    -49300.41809612
  -exchange      EXHF   =       564.82418591
  -V(xc)+E(xc)   XCENC  =       636.08152931
  PAW double counting   =     27484.98094318   -27573.09132182
  entropy T*S    EENTRO =        -0.00400317
  eigenvalues    EBANDS =     -3252.28606493
  atomic energy  EATOM  =     10237.65472164
  ---------------------------------------------------
  free energy    TOTEN  =      -608.81497675 eV

  energy without entropy =     -608.81097358  energy(sigma->0) =     -608.81297517
  exchange ACFDT corr.  =        -0.00237461  see jH, gK, PRB 81, 115126


--------------------------------------------------------------------------------------------------------




--------------------------------------- Iteration      1(  13)  ---------------------------------------


    POTLOK:  cpu time    1.1307: real time    1.1350
    SETDIJ:  cpu time    1.2315: real time    1.2347
    TRIAL :  cpu time  206.3595: real time  207.9197
    CORREC:  cpu time    0.0009: real time    0.0009
    CHARGE:  cpu time    1.1923: real time    1.1961
    --------------------------------------------
      LOOP:  cpu time  209.9169: real time  211.4925

 eigenvalue-minimisations  :     0
 total energy-change (2. order) :-0.3161923E-01  (-0.3044996E-01)
 number of electron     246.9999996 magnetization      -3.0230320
 augmentation part       15.3931282 magnetization      -2.9368927

 DIPCOR: dipole corrections for dipol
 direction  3 min pos     1,
 dipolmoment           0.000000     -0.000000     -0.000925 electrons x Angstroem
 Tr[quadrupol]     -6682.707498

 energy correction for charged system         0.000000 eV
 dipol+quadrupol energy correction            0.000000 eV
 added-field ion interaction          0.000000 eV  (added to PSCEN)


 Free energy of the ion-electron system (eV)
  ---------------------------------------------------
  alpha Z        PSCENC =       100.26428618
  Ewald energy   TEWEN  =     40493.17898311
  -Hartree energ DENC   =    -49300.59697034
  -exchange      EXHF   =       564.91003788
  -V(xc)+E(xc)   XCENC  =       636.09986293
  PAW double counting   =     27486.80112594   -27574.93795069
  entropy T*S    EENTRO =        -0.00390172
  eigenvalues    EBANDS =     -3252.21668946
  atomic energy  EATOM  =     10237.65472164
  ---------------------------------------------------
  free energy    TOTEN  =      -608.84659598 eV

  energy without entropy =     -608.84269426  energy(sigma->0) =     -608.84464512
  exchange ACFDT corr.  =        -0.00135961  see jH, gK, PRB 81, 115126


--------------------------------------------------------------------------------------------------------




--------------------------------------- Iteration      1(  14)  ---------------------------------------


    POTLOK:  cpu time    1.1253: real time    1.1287
    SETDIJ:  cpu time    1.2375: real time    1.2411
    TRIAL :  cpu time  206.8655: real time  207.5472
    CORREC:  cpu time    0.0010: real time    0.0010
    CHARGE:  cpu time    1.1959: real time    1.1990
    --------------------------------------------
      LOOP:  cpu time  210.4270: real time  211.1231

 eigenvalue-minimisations  :     0
 total energy-change (2. order) :-0.2928470E-01  (-0.2827235E-01)
 number of electron     246.9999996 magnetization      -3.0225095
 augmentation part       15.3950179 magnetization      -2.9383237

 DIPCOR: dipole corrections for dipol
 direction  3 min pos     1,
 dipolmoment           0.000000     -0.000000     -0.000931 electrons x Angstroem
 Tr[quadrupol]     -6682.712977

 energy correction for charged system         0.000000 eV
 dipol+quadrupol energy correction            0.000000 eV
 added-field ion interaction          0.000000 eV  (added to PSCEN)


 Free energy of the ion-electron system (eV)
  ---------------------------------------------------
  alpha Z        PSCENC =       100.26428618
  Ewald energy   TEWEN  =     40493.17898311
  -Hartree energ DENC   =    -49300.83459535
  -exchange      EXHF   =       564.99153584
  -V(xc)+E(xc)   XCENC  =       636.11743754
  PAW double counting   =     27488.91237899   -27577.08674654
  entropy T*S    EENTRO =        -0.00382978
  eigenvalues    EBANDS =     -3252.06998037
  atomic energy  EATOM  =     10237.65472164
  ---------------------------------------------------
  free energy    TOTEN  =      -608.87588068 eV

  energy without entropy =     -608.87205089  energy(sigma->0) =     -608.87396579
  exchange ACFDT corr.  =        -0.00131474  see jH, gK, PRB 81, 115126


--------------------------------------------------------------------------------------------------------




--------------------------------------- Iteration      1(  15)  ---------------------------------------


    POTLOK:  cpu time    1.1230: real time    1.1265
    SETDIJ:  cpu time    1.2371: real time    1.2403
    TRIAL :  cpu time  206.7209: real time  207.4104
    CORREC:  cpu time    0.0009: real time    0.0009
    CHARGE:  cpu time    1.1866: real time    1.1904
    --------------------------------------------
      LOOP:  cpu time  210.2700: real time  210.9746

 eigenvalue-minimisations  :     0
 total energy-change (2. order) :-0.2723223E-01  (-0.2626241E-01)
 number of electron     246.9999996 magnetization      -3.0221566
 augmentation part       15.3969373 magnetization      -2.9388225

 DIPCOR: dipole corrections for dipol
 direction  3 min pos     1,
 dipolmoment           0.000000     -0.000000     -0.000940 electrons x Angstroem
 Tr[quadrupol]     -6682.718087

 energy correction for charged system         0.000000 eV
 dipol+quadrupol energy correction            0.000000 eV
 added-field ion interaction          0.000000 eV  (added to PSCEN)


 Free energy of the ion-electron system (eV)
  ---------------------------------------------------
  alpha Z        PSCENC =       100.26428618
  Ewald energy   TEWEN  =     40493.17898311
  -Hartree energ DENC   =    -49301.09542890
  -exchange      EXHF   =       565.06840428
  -V(xc)+E(xc)   XCENC  =       636.13341933
  PAW double counting   =     27491.39803090   -27579.61780139
  entropy T*S    EENTRO =        -0.00378228
  eigenvalues    EBANDS =     -3251.88389828
  atomic energy  EATOM  =     10237.65472164
  ---------------------------------------------------
  free energy    TOTEN  =      -608.90311291 eV

  energy without entropy =     -608.89933063  energy(sigma->0) =     -608.90122177
  exchange ACFDT corr.  =        -0.00128287  see jH, gK, PRB 81, 115126


--------------------------------------------------------------------------------------------------------




--------------------------------------- Iteration      1(  16)  ---------------------------------------


    POTLOK:  cpu time    1.1203: real time    1.1233
    SETDIJ:  cpu time    1.1798: real time    1.1853
    TRIAL :  cpu time  206.7389: real time  207.4125
    CORREC:  cpu time    0.0009: real time    0.0009
    CHARGE:  cpu time    1.1962: real time    1.1994
    --------------------------------------------
      LOOP:  cpu time  210.2375: real time  210.9285

 eigenvalue-minimisations  :     0
 total energy-change (2. order) :-0.2531933E-01  (-0.2436773E-01)
 number of electron     246.9999996 magnetization      -3.0219454
 augmentation part       15.3986471 magnetization      -2.9384260

 DIPCOR: dipole corrections for dipol
 direction  3 min pos     1,
 dipolmoment           0.000000     -0.000000     -0.000948 electrons x Angstroem
 Tr[quadrupol]     -6682.722798

 energy correction for charged system         0.000000 eV
 dipol+quadrupol energy correction            0.000000 eV
 added-field ion interaction          0.000000 eV  (added to PSCEN)


 Free energy of the ion-electron system (eV)
  ---------------------------------------------------
  alpha Z        PSCENC =       100.26428618
  Ewald energy   TEWEN  =     40493.17898311
  -Hartree energ DENC   =    -49301.34865476
  -exchange      EXHF   =       565.14119663
  -V(xc)+E(xc)   XCENC  =       636.14747675
  PAW double counting   =     27494.11041490   -27582.37132017
  entropy T*S    EENTRO =        -0.00375551
  eigenvalues    EBANDS =     -3251.70175423
  atomic energy  EATOM  =     10237.65472164
  ---------------------------------------------------
  free energy    TOTEN  =      -608.92843224 eV

  energy without entropy =     -608.92467672  energy(sigma->0) =     -608.92655448
  exchange ACFDT corr.  =        -0.00126167  see jH, gK, PRB 81, 115126


--------------------------------------------------------------------------------------------------------




--------------------------------------- Iteration      1(  17)  ---------------------------------------


    POTLOK:  cpu time    1.1215: real time    1.1252
    SETDIJ:  cpu time    1.1711: real time    1.1763
    TRIAL :  cpu time  206.9142: real time  207.5696
    CORREC:  cpu time    0.0009: real time    0.0009
    CHARGE:  cpu time    1.1883: real time    1.1915
    --------------------------------------------
      LOOP:  cpu time  210.3974: real time  211.0694

 eigenvalue-minimisations  :     0
 total energy-change (2. order) :-0.2348784E-01  (-0.2252297E-01)
 number of electron     246.9999996 magnetization      -3.0218501
 augmentation part       15.4000605 magnetization      -2.9371410

 DIPCOR: dipole corrections for dipol
 direction  3 min pos     1,
 dipolmoment           0.000000     -0.000000     -0.000954 electrons x Angstroem
 Tr[quadrupol]     -6682.727125

 energy correction for charged system         0.000000 eV
 dipol+quadrupol energy correction            0.000000 eV
 added-field ion interaction          0.000000 eV  (added to PSCEN)


 Free energy of the ion-electron system (eV)
  ---------------------------------------------------
  alpha Z        PSCENC =       100.26428618
  Ewald energy   TEWEN  =     40493.17898311
  -Hartree energ DENC   =    -49301.58373840
  -exchange      EXHF   =       565.21010738
  -V(xc)+E(xc)   XCENC  =       636.15978651
  PAW double counting   =     27496.76162202   -27585.05603263
  entropy T*S    EENTRO =        -0.00374599
  eigenvalues    EBANDS =     -3251.53790037
  atomic energy  EATOM  =     10237.65472164
  ---------------------------------------------------
  free energy    TOTEN  =      -608.95192008 eV

  energy without entropy =     -608.94817409  energy(sigma->0) =     -608.95004708
  exchange ACFDT corr.  =        -0.00124951  see jH, gK, PRB 81, 115126


--------------------------------------------------------------------------------------------------------




[...]
  Kinetic  3654.99785  3690.39998  4211.86736     4.80535    -0.06459     0.21333
  Fock     -342.65360  -345.82536  -324.37816     2.71886     0.00604    -0.00566
  -------------------------------------------------------------------------------------
  Total     -40.09650   -44.14932    -0.37263    -0.39875    -0.00500     0.02524
  in kB     -20.22164   -22.26557    -0.18792    -0.20110    -0.00252     0.01273
  external pressure =      -14.23 kB  Pullay stress =        0.00 kB


 VOLUME and BASIS-vectors are now :
 -----------------------------------------------------------------------------
  energy-cutoff  :      500.00
  volume of cell :     3176.88
      direct lattice vectors                 reciprocal lattice vectors
    12.653105177  0.018431771 -0.004244111     0.079032148 -0.000106864  0.000026232
     0.016952524 12.537506683  0.000500814    -0.000116189  0.079760833 -0.000003213
    -0.006645917  0.000797092 20.025963462     0.000016752 -0.000002017  0.049935181

  length of vectors
    12.653119313 12.537518154 20.025964581     0.079032225  0.079760917  0.049935184


 FORCES acting on ions:
    Electron-Ion                     Ewald-Force                    Non-Local-Force
 -----------------------------------------------------------------------------------------------
   0.758E+01 0.295E+01 0.341E+00   -.774E+01 -.319E+01 -.342E+00   0.117E+00 0.311E+00 0.200E-02
   0.571E+01 0.935E+00 0.329E+00   -.586E+01 -.102E+01 -.330E+00   0.189E+00 0.860E-01 0.983E-03
   0.148E+02 -.205E+00 0.163E+00   -.148E+02 0.258E+00 -.162E+00   0.122E+00 0.281E-02 -.117E-02
   0.121E+02 0.116E+02 0.399E+00   -.123E+02 -.121E+02 -.395E+00   0.755E-01 0.438E+00 -.655E-03
   0.209E+02 0.169E+02 0.337E+00   -.216E+02 -.178E+02 -.342E+00   0.633E+00 0.748E+00 0.602E-02
   0.226E+02 -.244E+01 0.325E+00   -.232E+02 0.278E+01 -.325E+00   0.497E+00 -.253E+00 0.713E-03
   0.233E+02 0.371E+01 0.428E+00   -.238E+02 -.364E+01 -.429E+00   0.606E+00 -.741E-01 0.237E-02
   0.337E+02 0.413E+02 -.476E+00   -.359E+02 -.441E+02 0.464E+00   0.232E+01 0.299E+01 0.108E-01
   0.225E+02 -.830E-01 0.202E+00   -.225E+02 -.121E+00 -.202E+00   0.378E-01 0.243E-01 0.106E-02
   0.468E+02 -.973E+01 0.455E-01   -.506E+02 0.103E+02 -.502E-01   0.358E+01 -.506E+00 0.559E-02
   0.169E+02 0.278E+01 0.165E+00   -.173E+02 -.292E+01 -.165E+00   0.357E+00 0.157E+00 0.882E-04
   0.564E+02 0.111E+02 0.159E+00   -.597E+02 -.115E+02 -.158E+00   0.347E+01 0.523E+00 0.225E-03
   0.624E+01 -.447E+02 0.204E+00   -.508E+01 0.475E+02 -.207E+00   -.113E+01 -.267E+01 0.327E-02
   0.109E+02 -.167E+02 0.109E+00   -.108E+02 0.172E+02 -.110E+00   -.829E-01 -.411E+00 0.405E-03
   0.225E+01 -.151E+01 -.422E-01   -.241E+01 0.157E+01 0.418E-01   0.117E+00 -.112E+00 -.118E-02
   0.201E+02 -.566E+01 0.102E-01   -.204E+02 0.575E+01 -.104E-01   0.297E+00 -.639E-01 -.705E-03
   0.104E+02 -.564E+01 0.196E+00   -.102E+02 0.574E+01 -.194E+00   -.997E-01 -.150E+00 -.334E-02
   -.105E+02 0.347E+01 0.626E+00   0.103E+02 -.356E+01 -.624E+00   0.936E-01 0.175E+00 -.930E-03
   0.105E+01 0.177E+02 0.458E+00   -.836E+00 -.182E+02 -.460E+00   -.771E-01 0.610E+00 0.435E-02
   0.302E+00 0.445E+01 0.653E+00   0.171E-01 -.472E+01 -.654E+00   -.224E+00 0.246E+00 0.232E-02
   -.106E+02 0.135E+02 0.577E+00   0.104E+02 -.140E+02 -.579E+00   0.440E-01 0.474E+00 0.470E-02
   -.514E+01 0.355E+02 0.111E+00   0.396E+01 -.383E+02 -.119E+00   0.114E+01 0.274E+01 0.996E-02
   -.137E+02 0.404E+02 -.198E+00   0.155E+02 -.434E+02 0.188E+00   -.174E+01 0.297E+01 0.920E-02
   -.359E+02 -.355E+02 0.504E-01   0.382E+02 0.386E+02 -.647E-01   -.209E+01 -.329E+01 0.165E-01
   0.816E+01 -.474E+02 0.208E+00   -.102E+02 0.507E+02 -.212E+00   0.176E+01 -.300E+01 0.443E-02
   -.226E+02 -.150E+02 0.615E+00   0.233E+02 0.159E+02 -.620E+00   -.654E+00 -.816E+00 0.780E-02
   -.130E+02 -.128E+02 0.576E+00   0.132E+02 0.134E+02 -.577E+00   -.588E-01 -.430E+00 0.161E-02
   -.145E+01 -.602E+01 0.450E+00   0.113E+01 0.628E+01 -.450E+00   0.218E+00 -.243E+00 0.345E-04
   -.267E+01 -.194E+02 0.408E+00   0.244E+01 0.199E+02 -.408E+00   0.747E-01 -.616E+00 -.194E-03
   -.795E+01 -.349E+01 0.517E+00   0.805E+01 0.367E+01 -.518E+00   -.139E+00 -.324E+00 0.262E-03
   -.840E+01 0.129E+00 0.258E-02   0.837E+01 -.875E-01 -.257E-02   -.188E-01 -.385E-01 -.199E-02
   -.189E+02 0.311E+01 0.402E+00   0.192E+02 -.319E+01 -.400E+00   -.301E+00 0.855E-01 -.107E-03
   -.168E+01 0.833E+00 0.188E+00   0.185E+01 -.931E+00 -.189E+00   -.119E+00 0.111E+00 -.393E-03
   0.784E+01 -.319E+01 0.225E+00   -.797E+01 0.334E+01 -.225E+00   0.103E+00 -.109E+00 -.347E-03
   -.568E+01 -.428E+01 0.408E+00   0.594E+01 0.454E+01 -.408E+00   -.269E+00 -.293E+00 0.170E-02
   -.490E+02 -.141E+02 -.292E-01   0.523E+02 0.146E+02 0.241E-01   -.353E+01 -.495E+00 0.625E-02
   -.143E+02 -.406E+01 0.387E+00   0.148E+02 0.414E+01 -.387E+00   -.400E+00 -.161E+00 0.279E-02
   0.495E+01 -.385E+01 0.393E+00   -.518E+01 0.426E+01 -.391E+00   0.203E+00 -.327E+00 0.649E-03
   0.499E+01 -.328E+01 0.220E+00   -.506E+01 0.340E+01 -.219E+00   0.168E+00 -.134E+00 0.422E-03
   -.421E+02 0.149E+02 -.271E+00   0.460E+02 -.154E+02 0.259E+00   -.383E+01 0.511E+00 0.109E-01
   -.167E+02 0.139E+01 -.186E+00   0.168E+02 -.125E+01 0.187E+00   -.626E-01 -.227E-01 -.123E-02
   -.174E+01 0.400E+01 0.330E+00   0.183E+01 -.414E+01 -.328E+00   -.192E+00 0.142E+00 -.185E-03
   -.317E+01 0.479E+01 0.472E+00   0.345E+01 -.517E+01 -.472E+00   -.232E+00 0.315E+00 0.282E-02
   -.222E+02 -.251E+01 0.431E+00   0.227E+02 0.239E+01 -.428E+00   -.584E+00 0.449E-01 -.114E-02
   -.208E+02 0.341E+01 0.364E+00   0.213E+02 -.364E+01 -.365E+00   -.538E+00 0.233E+00 0.366E-02
   0.738E+01 0.371E+01 0.324E+00   -.761E+01 -.398E+01 -.324E+00   0.231E+00 0.278E+00 0.164E-02
   -.667E+01 0.263E+01 0.127E+00   0.680E+01 -.278E+01 -.127E+00   -.107E+00 0.124E+00 -.805E-03
   -.148E+02 -.552E+00 0.251E+00   0.149E+02 0.494E+00 -.250E+00   -.109E+00 0.146E-02 -.236E-02
   -.540E+01 -.108E+01 0.288E+00   0.557E+01 0.119E+01 -.289E+00   -.185E+00 -.605E-01 0.532E-03
   0.935E+01 -.677E+00 -.854E-01   -.933E+01 0.623E+00 0.848E-01   0.153E-01 0.378E-01 -.169E-02
   0.547E+02 -.256E+02 -.816E+00   -.457E+02 0.432E+02 0.853E+00   -.875E+01 -.171E+02 -.355E-01
   0.361E+02 0.251E+02 0.220E+00   -.246E+02 -.442E+02 -.215E+00   -.111E+02 0.181E+02 -.524E-02
   -.127E+02 -.152E+01 -.209E+01   0.218E+02 0.173E+02 0.221E+01   -.923E+01 -.151E+02 -.119E+00
   -.196E+02 -.429E+02 -.761E+00   0.820E+01 0.619E+02 0.837E+00   0.108E+02 -.177E+02 -.723E-01
   -.449E+02 0.456E+02 -.174E+01   0.360E+02 -.632E+02 0.186E+01   0.845E+01 0.170E+02 -.116E+00
   -.963E+01 -.264E+01 -.211E+00   0.550E+00 -.129E+02 0.243E+00   0.909E+01 0.145E+02 -.288E-01
   0.381E+02 0.754E+01 -.123E+01   -.417E+02 -.598E+01 0.123E+01   0.145E+01 -.549E+00 -.208E-02
   -.640E+02 0.129E+02 -.529E+01   0.672E+02 -.155E+02 0.525E+01   -.719E+00 0.175E+01 0.399E-01
 -----------------------------------------------------------------------------------------------
   0.200E+00 -.737E+00 0.259E+00   -.284E-12 0.398E-12 -.355E-14   -.251E+00 0.715E+00 -.231E+00
 
 
 POSITION                                       TOTAL-FORCE (eV/Angst)
 -----------------------------------------------------------------------------------
      2.81794     12.52575     10.01192        -0.038176      0.081720      0.000636
      0.69635      1.25121     10.01214         0.037261      0.009879      0.000544
      1.40678     12.53387     10.01268         0.080132      0.054463     -0.000062
      3.50699      1.21390     10.01167        -0.077404      0.027251      0.002510
      2.81953      2.45353     10.01285        -0.047469     -0.098354      0.002141
      0.73702      3.76808     10.01287         0.003676      0.067169      0.001683
      1.40405      2.49402     10.01225         0.085484     -0.006181      0.002230
      3.56030      3.66345     10.01614         0.269459      0.368085     -0.000577
      0.82103      6.24433     10.01341         0.036137     -0.179624      0.001304
      1.53209      4.97588     10.01415        -0.013280      0.001937      0.001170
      0.74901      8.76122     10.01306        -0.025063      0.024412      0.000149
      1.51809      7.53142     10.01328         0.467843      0.147036      0.000551
      3.52564      8.82408     10.01275        -0.037916     -0.091752      0.000534
      2.83023     10.05349     10.01256         0.036711      0.037457     -0.000981
      0.71679     11.27863     10.01339        -0.042276     -0.049411     -0.001702
      1.41664     10.03026     10.01314         0.032237      0.020496     -0.000992
      3.52473     11.29215     10.01181         0.075285     -0.054997     -0.001520
      7.05071     12.53159     10.00957        -0.103437      0.089079      0.001083
      4.92006      1.21495     10.01143         0.134533      0.095133      0.002707
      5.64339     12.52398     10.01018         0.088651     -0.013593      0.001541
      7.72841      1.23247     10.00980        -0.092536     -0.017420      0.002790
      7.03078      2.46007     10.01284         0.016500      0.081168      0.002562
      5.60614      2.44538     10.01445        -0.019325      0.045439     -0.000094
      6.99268      7.62826     10.01364         0.155393     -0.433767      0.003167
      4.95031      8.83472     10.01252        -0.164630      0.088928      0.000266
      7.73572      8.83671     10.01032         0.018507     -0.012585      0.002846
      7.04976     10.07375     10.00977         0.104195      0.087505      0.000632
      4.93148     11.29674     10.01068        -0.095619      0.001561     -0.000491
      5.63659     10.06660     10.01082        -0.154039     -0.136975      0.000039
      7.75719     11.29957     10.00929        -0.034927     -0.163118     -0.000734
     11.26728     12.55355     10.00961        -0.065714      0.002340     -0.002130
      9.14206      1.25860     10.00930         0.009639      0.011520      0.001230
      9.85795     12.54846     10.00959         0.051688      0.019779     -0.001377
     11.93257      1.27799     10.00848        -0.009142      0.035229     -0.000427
     11.23806      2.54149     10.00862        -0.029395     -0.044523      0.001857
      9.04088      3.75736     10.01229        -0.429252     -0.039058      0.001576
      9.81072      2.52928     10.00966         0.016652     -0.094638      0.002311
     11.94547      3.79925     10.00867        -0.013589      0.065763      0.002087
     11.21395      5.04267     10.00973         0.126313     -0.022011      0.001445
      9.03513      6.31782     10.01332        -0.092583      0.001823      0.000032
      9.73884      5.04494     10.01213        -0.034181      0.117576     -0.000402
     11.99995      6.26525     10.00901        -0.120724      0.015136      0.002104
     11.26928      7.51038     10.00884         0.040409     -0.042460      0.003038
      9.15316      8.79559     10.00972        -0.054425     -0.068780      0.002178
      9.82652      7.52412     10.01018        -0.025353      0.017884      0.003217
     11.97509      8.76784     10.00872         0.021502      0.022193      0.001428
     11.27856     10.02975     10.00927         0.007950     -0.017818     -0.000442
      9.16762     11.29236     10.00945        -0.021808     -0.055649     -0.001486
      9.86111     10.03745     10.00932        -0.022134      0.047952     -0.000152
     11.96089     11.29225     10.00961         0.054813     -0.015422     -0.002415
      2.94562      4.88935     10.01639        -0.487762     -0.984854     -0.001763
      2.89324      7.60477     10.01346        -0.536463      0.547461     -0.000195
      4.93767      3.65712     10.01896        -0.893554     -0.602210     -0.011710
      7.66337      3.67949     10.01502         0.387815     -0.308126     -0.002248
      7.62626      6.41134     10.01727         0.258043      0.939703     -0.011547
      5.61116      7.61855     10.01435         0.789701      0.228447      0.000771
      4.31329      6.22068     10.01665        -1.545719      0.899165     -0.002752
      6.19953      5.10143     10.02225         1.921362     -0.747364     -0.008161
 -----------------------------------------------------------------------------------
    total drift:                               -0.003140     -0.005933      0.001122


--------------------------------------------------------------------------------------------------------



  FREE ENERGIE OF THE ION-ELECTRON SYSTEM (eV)
  ---------------------------------------------------
  free  energy   TOTEN  =      -609.30531778 eV

  energy  without entropy=     -609.29965920  energy(sigma->0) =     -609.30248849
 


--------------------------------------------------------------------------------------------------------


    POTLOK:  cpu time    2.2766: real time    2.2850


--------------------------------------------------------------------------------------------------------


 stress matrix after NEB project (eV)
    -40.09650     -0.39711      0.02524
     -0.39875    -44.14932     -0.00530
      0.02522     -0.00500     -0.37263
  FORCES: max atom, RMS     2.061614    0.483213
  FORCE total and by dimension    3.680039    1.921362
  Stress total and by dimension   59.643519   44.149324
 writing wavefunctions
     LOOP+:  cpu time42138.8400: real time42280.2375
 vacuum level on the upper side and lower side of the slab         1.492         1.492
    4ORBIT:  cpu time    0.0000: real time    0.0000
 


 total charge     
 
# of ion       s       p       d       tot
------------------------------------------
    1        0.872   1.797   0.000   2.669
    2        0.866   1.775   0.000   2.641
    3        0.868   1.773   0.000   2.641
    4        0.874   1.792   0.000   2.665
    5        0.871   1.807   0.000   2.678
    6        0.857   1.747   0.000   2.604
    7        0.867   1.765   0.000   2.632
    8        0.861   1.714   0.000   2.576
    9        0.842   1.721   0.000   2.563
   10        0.844   1.680   0.000   2.524
   11        0.862   1.758   0.000   2.620
   12        0.851   1.696   0.000   2.547
   13        0.866   1.768   0.000   2.634
   14        0.873   1.800   0.000   2.673
   15        0.867   1.783   0.000   2.650
   16        0.869   1.768   0.000   2.636
   17        0.870   1.800   0.000   2.670
   18        0.870   1.801   0.000   2.671
   19        0.873   1.808   0.000   2.681
   20        0.872   1.799   0.000   2.671
   21        0.873   1.800   0.000   2.673
   22        0.866   1.768   0.000   2.634
   23        0.867   1.763   0.000   2.629
   24        0.860   1.713   0.000   2.573
   25        0.866   1.761   0.000   2.627
   26        0.871   1.808   0.000   2.678
   27        0.874   1.794   0.000   2.668
   28        0.872   1.799   0.000   2.671
   29        0.872   1.806   0.000   2.678
   30        0.872   1.798   0.000   2.670
   31        0.867   1.770   0.000   2.637
   32        0.868   1.767   0.000   2.636
   33        0.867   1.783   0.000   2.650
   34        0.865   1.763   0.000   2.628
   35        0.861   1.751   0.000   2.612
   36        0.850   1.695   0.000   2.545
   37        0.862   1.757   0.000   2.619
   38        0.857   1.740   0.000   2.597
   39        0.851   1.710   0.000   2.561
   40        0.844   1.686   0.000   2.530
   41        0.842   1.720   0.000   2.562
   42        0.851   1.710   0.000   2.560
   43        0.857   1.741   0.000   2.598
   44        0.866   1.764   0.000   2.630
   45        0.858   1.749   0.000   2.607
   46        0.861   1.752   0.000   2.613
   47        0.864   1.763   0.000   2.627
   48        0.867   1.773   0.000   2.641
   49        0.866   1.774   0.000   2.640
   50        0.867   1.770   0.000   2.636
   51        1.225   2.669   0.000   3.894
   52        1.235   2.664   0.000   3.899
   53        1.227   2.687   0.000   3.914
   54        1.232   2.662   0.000   3.895
   55        1.225   2.674   0.000   3.899
   56        1.223   2.682   0.000   3.905
   57        0.470   0.517   7.312   8.299
   58        0.420   0.508   6.282   7.210
--------------------------------------------------
tot         51.435 105.160  13.594 170.188
 


 magnetization (x)
 
# of ion       s       p       d       tot
------------------------------------------
    1        0.000   0.006   0.000   0.007
    2       -0.000   0.001   0.000   0.001
    3        0.000   0.004   0.000   0.004
    4        0.000   0.006   0.000   0.006
    5        0.001   0.010   0.000   0.011
    6        0.001   0.012   0.000   0.013
    7       -0.000   0.001   0.000   0.001
    8        0.000   0.006   0.000   0.006
    9        0.000   0.010   0.000   0.010
   10        0.001   0.010   0.000   0.011
   11        0.000   0.011   0.000   0.011
   12       -0.001   0.004   0.000   0.003
   13       -0.000   0.004   0.000   0.004
   14        0.000   0.003   0.000   0.003
   15        0.000   0.010   0.000   0.011
   16        0.000   0.005   0.000   0.005
   17       -0.000   0.002   0.000   0.002
   18        0.000   0.005   0.000   0.005
   19       -0.001  -0.004   0.000  -0.004
   20        0.000   0.008   0.000   0.008
   21        0.000   0.002   0.000   0.002
   22       -0.000   0.003   0.000   0.003
   23        0.001   0.019   0.000   0.020
   24        0.000   0.012   0.000   0.012
   25        0.001   0.024   0.000   0.025
   26        0.000   0.008   0.000   0.008
   27        0.001   0.012   0.000   0.012
   28        0.001   0.010   0.000   0.010
   29       -0.001  -0.007   0.000  -0.008
   30        0.000   0.004   0.000   0.004
   31        0.000   0.008   0.000   0.008
   32        0.000   0.008   0.000   0.008
   33        0.000   0.008   0.000   0.008
   34        0.000   0.004   0.000   0.004
   35        0.000   0.006   0.000   0.006
   36       -0.001   0.009   0.000   0.008
   37        0.000   0.007   0.000   0.007
   38        0.001   0.015   0.000   0.016
   39       -0.000  -0.001   0.000  -0.001
   40        0.001   0.014   0.000   0.015
   41        0.000   0.007   0.000   0.008
   42       -0.000  -0.004   0.000  -0.004
   43        0.001   0.019   0.000   0.020
   44        0.000   0.004   0.000   0.004
   45        0.000   0.009   0.000   0.009
   46       -0.000   0.003   0.000   0.003
   47        0.000   0.006   0.000   0.007
   48        0.000   0.007   0.000   0.007
   49       -0.000  -0.002   0.000  -0.002
   50        0.000   0.005   0.000   0.005
   51        0.003   0.017   0.000   0.020
   52       -0.000   0.047   0.000   0.047
   53        0.003   0.031   0.000   0.034
   54        0.003   0.058   0.000   0.061
   55        0.004   0.010   0.000   0.015
   56        0.000   0.028   0.000   0.028
   57       -0.018  -0.030  -1.432  -1.480
   58       -0.076  -0.038  -2.220  -2.334
--------------------------------------------------
tot         -0.070   0.458  -3.652  -3.265
 

 total amount of memory used by VASP MPI-rank0   155973. kBytes
=======================================================================

   base      :      30000. kBytes
   nonl-proj :       4282. kBytes
   fftplans  :      11851. kBytes
   grid      :      31266. kBytes
   one-center:         62. kBytes
   HF        :         23. kBytes
   nonlr-proj:      16440. kBytes
   wavefun   :      62049. kBytes
 
  
  
 General timing and accounting informations for this job:
 ========================================================
  
                  Total CPU time used (sec):    42208.633
                            User time (sec):    42074.367
                          System time (sec):      134.265
                         Elapsed time (sec):    42357.869
  
                   Maximum memory used (kb):      403840.
                   Average memory used (kb):           0.
  
                          Minor page faults:      2533383
                          Major page faults:            1
                 Voluntary context switches:       481582
