 vasp.5.4.4.18Apr17-6-g9f103f2a35 (build Feb 25 2019 10:51:38) complex          
  
 executed on             LinuxIFC date 2021.08.09  16:05:37
 running on   32 total cores
 distrk:  each k-point on   32 cores,    1 groups
 distr:  one band on NCORES_PER_BAND=  32 cores,    1 groups


--------------------------------------------------------------------------------------------------------


 INCAR:
 POTCAR:    PAW_PBE C 08Apr2002                   
 POTCAR:    PAW_PBE N 08Apr2002                   
 POTCAR:    PAW_PBE Fe 06Sep2000                  
 POTCAR:    PAW_PBE V 08Apr2002                   

 ----------------------------------------------------------------------------- 
|                                                                             |
|           W    W    AA    RRRRR   N    N  II  N    N   GGGG   !!!           |
|           W    W   A  A   R    R  NN   N  II  NN   N  G    G  !!!           |
|           W    W  A    A  R    R  N N  N  II  N N  N  G       !!!           |
|           W WW W  AAAAAA  RRRRR   N  N N  II  N  N N  G  GGG   !            |
|           WW  WW  A    A  R   R   N   NN  II  N   NN  G    G                |
|           W    W  A    A  R    R  N    N  II  N    N   GGGG   !!!           |
|                                                                             |
|      For optimal performance we recommend to set                            |
|        NCORE= 4 - approx SQRT( number of cores)                             |
|      NCORE specifies how many cores store one orbital (NPAR=cpu/NCORE).     |
|      This setting can  greatly improve the performance of VASP for DFT.     |
|      The default,   NCORE=1            might be grossly inefficient         |
|      on modern multi-core architectures or massively parallel machines.     |
|      Do your own testing !!!!                                               |
|      Unfortunately you need to use the default for GW and RPA calculations. |
|      (for HF NCORE is supported but not extensively tested yet)             |
|                                                                             |
 ----------------------------------------------------------------------------- 

 POTCAR:    PAW_PBE C 08Apr2002                   
   VRHFIN =C: s2p2                                                              
   LEXCH  = PE                                                                  
   EATOM  =   147.1560 eV,   10.8157 Ry                                         
                                                                                
   TITEL  = PAW_PBE C 08Apr2002                                                 
   LULTRA =        F    use ultrasoft PP ?                                      
   IUNSCR =        1    unscreen: 0-lin 1-nonlin 2-no                           
   RPACOR =    1.200    partial core radius                                     
   POMASS =   12.011; ZVAL   =    4.000    mass and valenz                      
   RCORE  =    1.500    outmost cutoff radius                                   
   RWIGS  =    1.630; RWIGS  =    0.863    wigner-seitz radius (au A)           
   ENMAX  =  400.000; ENMIN  =  300.000 eV                                      
   ICORE  =        2    local potential                                         
   LCOR   =        T    correct aug charges                                     
   LPAW   =        T    paw PP                                                  
   EAUG   =  644.873                                                            
   DEXC   =    0.000                                                            
   RMAX   =    1.529    core radius for proj-oper                               
   RAUG   =    1.300    factor for augmentation sphere                          
   RDEP   =    1.501    radius for radial grids                                 
   RDEPT  =    1.300    core radius for aug-charge                              
                                                                                
   Atomic configuration                                                         
    4 entries                                                                   
     n  l   j            E        occ.                                          
     1  0  0.50      -273.3789   2.0000                                         
     2  0  0.50       -13.7508   2.0000                                         
     2  1  0.50        -5.2854   2.0000                                         
     3  2  1.50        -5.4423   0.0000                                         
   Description                                                                  
     l       E           TYP  RCUT    TYP  RCUT                                 
     0    -13.7508458     23  1.200                                             
     0     -8.2022199     23  1.200                                             
     1     -5.2854383     23  1.500                                             
     1     34.0145650     23  1.500                                             
     2     -5.4423304      7  1.500                                             
  local pseudopotential read in
  partial core-charges read in
  partial kinetic energy density read in
  atomic valenz-charges read in
  non local Contribution for L=           0  read in
    real space projection operators read in
  non local Contribution for L=           0  read in
    real space projection operators read in
  non local Contribution for L=           1  read in
    real space projection operators read in
  non local Contribution for L=           1  read in
    real space projection operators read in
    PAW grid and wavefunctions read in
 
   number of l-projection  operators is LMAX  =           4
   number of lm-projection operators is LMMAX =           8
 
 POTCAR:    PAW_PBE N 08Apr2002                   
   VRHFIN =N: s2p3                                                              
   LEXCH  = PE                                                                  
   EATOM  =   264.5486 eV,   19.4438 Ry                                         
                                                                                
   TITEL  = PAW_PBE N 08Apr2002                                                 
   LULTRA =        F    use ultrasoft PP ?                                      
   IUNSCR =        1    unscreen: 0-lin 1-nonlin 2-no                           
   RPACOR =    1.200    partial core radius                                     
   POMASS =   14.001; ZVAL   =    5.000    mass and valenz                      
   RCORE  =    1.500    outmost cutoff radius                                   
   RWIGS  =    1.400; RWIGS  =    0.741    wigner-seitz radius (au A)           
   ENMAX  =  400.000; ENMIN  =  300.000 eV                                      
   ICORE  =        2    local potential                                         
   LCOR   =        T    correct aug charges                                     
   LPAW   =        T    paw PP                                                  
   EAUG   =  627.112                                                            
   DEXC   =    0.000                                                            
   RMAX   =    1.529    core radius for proj-oper                               
   RAUG   =    1.300    factor for augmentation sphere                          
   RDEP   =    1.514    radius for radial grids                                 
   RDEPT  =    1.338    core radius for aug-charge                              
                                                                                
   Atomic configuration                                                         
    4 entries                                                                   
     n  l   j            E        occ.                                          
     1  0  0.50      -384.7179   2.0000                                         
     2  0  0.50       -18.5828   2.0000                                         
     2  1  0.50        -7.0898   3.0000                                         
     3  2  1.50        -6.8029   0.0000                                         
   Description                                                                  
     l       E           TYP  RCUT    TYP  RCUT                                 
     0    -18.5828119     23  1.200                                             
     0    -13.5018863     23  1.200                                             
     1     -7.0897853     23  1.500                                             
     1      9.5240782     23  1.500                                             
     2     -6.8029130      7  1.500                                             
  local pseudopotential read in
  partial core-charges read in
  partial kinetic energy density read in
  atomic valenz-charges read in
  non local Contribution for L=           0  read in
    real space projection operators read in
  non local Contribution for L=           0  read in
    real space projection operators read in
  non local Contribution for L=           1  read in
    real space projection operators read in
  non local Contribution for L=           1  read in
    real space projection operators read in
    PAW grid and wavefunctions read in
 
   number of l-projection  operators is LMAX  =           4
   number of lm-projection operators is LMMAX =           8
 
 POTCAR:    PAW_PBE Fe 06Sep2000                  
   VRHFIN =Fe:  d7 s1                                                           
   LEXCH  = PE                                                                  
   EATOM  =   594.3153 eV,   43.6809 Ry                                         
                                                                                
   TITEL  = PAW_PBE Fe 06Sep2000                                                
   LULTRA =        F    use ultrasoft PP ?                                      
   IUNSCR =        1    unscreen: 0-lin 1-nonlin 2-no                           
   RPACOR =    2.000    partial core radius                                     
   POMASS =   55.847; ZVAL   =    8.000    mass and valenz                      
   RCORE  =    2.300    outmost cutoff radius                                   
   RWIGS  =    2.460; RWIGS  =    1.302    wigner-seitz radius (au A)           
   ENMAX  =  267.882; ENMIN  =  200.911 eV                                      
   RCLOC  =    1.701    cutoff for local pot                                    
   LCOR   =        T    correct aug charges                                     
   LPAW   =        T    paw PP                                                  
   EAUG   =  511.368                                                            
   DEXC   =    0.000                                                            
   RMAX   =    2.356    core radius for proj-oper                               
   RAUG   =    1.300    factor for augmentation sphere                          
   RDEP   =    2.442    radius for radial grids                                 
   RDEPT  =    1.890    core radius for aug-charge                              
                                                                                
   Atomic configuration                                                         
    9 entries                                                                   
     n  l   j            E        occ.                                          
     1  0  0.50     -6993.8440   2.0000                                         
     2  0  0.50      -814.6047   2.0000                                         
     2  1  1.50      -693.3689   6.0000                                         
     3  0  0.50       -89.4732   2.0000                                         
     3  1  1.50       -55.6373   6.0000                                         
     3  2  2.50        -3.8151   7.0000                                         
     4  0  0.50        -4.2551   1.0000                                         
     4  1  1.50        -3.4015   0.0000                                         
     4  3  2.50        -1.3606   0.0000                                         
   Description                                                                  
     l       E           TYP  RCUT    TYP  RCUT                                 
     2     -3.8151135     23  2.300                                             
     2     -5.1756961     23  2.300                                             
     0     -4.2550963     23  2.300                                             
     0      7.2035603     23  2.300                                             
     1     -2.7211652     23  2.300                                             
     1     18.4316424     23  2.300                                             
  local pseudopotential read in
  partial core-charges read in
  partial kinetic energy density read in
  atomic valenz-charges read in
  non local Contribution for L=           2  read in
    real space projection operators read in
  non local Contribution for L=           2  read in
    real space projection operators read in
  non local Contribution for L=           0  read in
    real space projection operators read in
  non local Contribution for L=           0  read in
    real space projection operators read in
  non local Contribution for L=           1  read in
    real space projection operators read in
  non local Contribution for L=           1  read in
    real space projection operators read in
    PAW grid and wavefunctions read in
 
   number of l-projection  operators is LMAX  =           6
   number of lm-projection operators is LMMAX =          18
 
 POTCAR:    PAW_PBE V 08Apr2002                   
   VRHFIN =V: p6 d4 s1                                                          
   LEXCH  = PE                                                                  
   EATOM  =   170.8679 eV,   12.5584 Ry                                         
                                                                                
   TITEL  = PAW_PBE V 08Apr2002                                                 
   LULTRA =        F    use ultrasoft PP ?                                      
   IUNSCR =        1    unscreen: 0-lin 1-nonlin 2-no                           
   RPACOR =    2.000    partial core radius                                     
   POMASS =   50.941; ZVAL   =    5.000    mass and valenz                      
   RCORE  =    2.700    outmost cutoff radius                                   
   RWIGS  =    2.500; RWIGS  =    1.323    wigner-seitz radius (au A)           
   ENMAX  =  192.543; ENMIN  =  144.408 eV                                      
   RCLOC  =    1.779    cutoff for local pot                                    
   LCOR   =        T    correct aug charges                                     
   LPAW   =        T    paw PP                                                  
   EAUG   =  358.662                                                            
   DEXC   =    0.000                                                            
   RMAX   =    2.768    core radius for proj-oper                               
   RAUG   =    1.300    factor for augmentation sphere                          
   RDEP   =    2.762    radius for radial grids                                 
   RDEPT  =    2.240    core radius for aug-charge                              
                                                                                
   Atomic configuration                                                         
    9 entries                                                                   
     n  l   j            E        occ.                                          
     1  0  0.50     -5360.7193   2.0000                                         
     2  0  0.50      -598.4546   2.0000                                         
     2  1  1.50      -499.0155   6.0000                                         
     3  0  0.50       -66.5711   2.0000                                         
     3  1  1.50       -40.5282   6.0000                                         
     3  2  2.50        -2.4291   4.0000                                         
     4  0  0.50        -3.8743   1.0000                                         
     4  1  0.50        -2.7212   0.0000                                         
     4  3  2.50        -1.3606   0.0000                                         
   Description                                                                  
     l       E           TYP  RCUT    TYP  RCUT                                 
     2     -2.4290901     23  2.700                                             
     2     -3.7896727     23  2.700                                             
     0     -3.8742752     23  2.700                                             
     0     27.2116520     23  2.700                                             
     1     -2.7211652     23  2.700                                             
     1     27.2116520     23  2.700                                             
  local pseudopotential read in
  partial core-charges read in
  partial kinetic energy density read in
  atomic valenz-charges read in
  non local Contribution for L=           2  read in
    real space projection operators read in
  non local Contribution for L=           2  read in
    real space projection operators read in
  non local Contribution for L=           0  read in
    real space projection operators read in
  non local Contribution for L=           0  read in
    real space projection operators read in
  non local Contribution for L=           1  read in
    real space projection operators read in
  non local Contribution for L=           1  read in
    real space projection operators read in
    PAW grid and wavefunctions read in
 
   number of l-projection  operators is LMAX  =           6
   number of lm-projection operators is LMMAX =          18
 

 ----------------------------------------------------------------------------- 
|                                                                             |
|  ADVICE TO THIS USER RUNNING 'VASP/VAMP'   (HEAR YOUR MASTER'S VOICE ...):  |
|                                                                             |
|      You have a (more or less) 'large supercell' and for larger cells       |
|      it might be more efficient to use real space projection opertators     |
|      So try LREAL= Auto  in the INCAR   file.                               |
|      Mind:          For very  accurate calculation you might also keep the  |
|      reciprocal projection scheme          (i.e. LREAL=.FALSE.)             |
|                                                                             |
 ----------------------------------------------------------------------------- 

  PAW_PBE C 08Apr2002                   :
 energy of atom  1       EATOM= -147.1560
 kinetic energy error for atom=    0.0076 (will be added to EATOM!!)
  PAW_PBE N 08Apr2002                   :
 energy of atom  2       EATOM= -264.5486
 kinetic energy error for atom=    0.0138 (will be added to EATOM!!)
  PAW_PBE Fe 06Sep2000                  :
 energy of atom  3       EATOM= -594.3153
 kinetic energy error for atom=    0.0026 (will be added to EATOM!!)
  PAW_PBE V 08Apr2002                   :
 energy of atom  4       EATOM= -170.8679
 kinetic energy error for atom=    0.0003 (will be added to EATOM!!)
 
 
 POSCAR:  C  N Fe  V                             
  positions in cartesian coordinates
  No initial velocities read in
 exchange correlation table for  LEXCH =        8
   RHO(1)=    0.500       N(1)  =     2000
   RHO(2)=  100.500       N(2)  =     4000

 VTST: version 3.2, (02/03/18)

 CHAIN: initializing optimizer
 
 OPT: Using VASP Conjugate-Gradient optimizer
 CHAIN: Read ICHAIN            0
 
 POSCAR:  C  N Fe  V                             
  positions in cartesian coordinates
  No initial velocities read in
 


--------------------------------------------------------------------------------------------------------


 ion  position               nearest neighbor table
   1  0.221  0.998  0.500-   4 1.42   3 1.43  19 1.43
   2  0.052  0.100  0.500-   7 1.42  34 1.43   3 1.43
   3  0.110  1.000  0.500-  17 1.42   1 1.43   2 1.43
   4  0.275  0.098  0.500-   1 1.42  21 1.42   5 1.42
   5  0.217  0.198  0.500-   8 1.41   7 1.42   4 1.42
   6  0.051  0.301  0.500-   7 1.42  11 1.43  38 1.43
   7  0.106  0.200  0.500-   2 1.42   6 1.42   5 1.42
   8  0.272  0.296  0.499-  51 1.37   5 1.41   9 1.43
   9  0.217  0.398  0.499-  50 1.39  11 1.41   8 1.43
  10  0.055  0.501  0.500-  11 1.42  41 1.42  14 1.45
  11  0.108  0.399  0.500-   9 1.41  10 1.42   6 1.43
  12  0.227  0.594  0.500-  50 1.38  14 1.44  15 1.48
  13  0.059  0.700  0.500-  18 1.42  14 1.43  45 1.43
  14  0.115  0.599  0.500-  13 1.43  12 1.44  10 1.45
  15  0.288  0.695  0.500-  53 1.40  16 1.45  12 1.48
  16  0.227  0.795  0.500-  19 1.43  18 1.44  15 1.45
  17  0.057  0.900  0.500-   3 1.42  49 1.43  18 1.44
  18  0.115  0.799  0.500-  13 1.42  17 1.44  16 1.44
  19  0.279  0.897  0.500-  28 1.43   1 1.43  16 1.43
  20  0.554  0.003  0.500-  22 1.42  30 1.42  23 1.44
  21  0.386  0.100  0.500-   4 1.42  22 1.42  25 1.44
  22  0.443  1.000  0.500-  20 1.42  21 1.42  28 1.44
  23  0.607  0.105  0.500-  32 1.43  24 1.43  20 1.44
  24  0.549  0.206  0.500-  23 1.43  25 1.44  26 1.45
  25  0.437  0.203  0.499-  51 1.37  21 1.44  24 1.44
  26  0.604  0.307  0.500-  52 1.34  36 1.45  24 1.45
  27  0.559  0.800  0.500-  54 1.37  30 1.44  29 1.46
  28  0.390  0.898  0.500-  19 1.43  29 1.44  22 1.44
  29  0.446  0.795  0.500-  53 1.39  28 1.44  27 1.46
  30  0.611  0.902  0.500-  20 1.42  47 1.43  27 1.44
  31  0.888  0.003  0.500-  34 1.42  49 1.43  33 1.43
  32  0.719  0.106  0.500-  33 1.43  23 1.43  37 1.44
  33  0.776  0.005  0.500-  47 1.42  32 1.43  31 1.43
  34  0.941  0.103  0.500-  31 1.42   2 1.43  35 1.43
  35  0.884  0.204  0.500-  38 1.43  37 1.43  34 1.43
  36  0.717  0.309  0.501-  37 1.44  26 1.45  40 1.45
  37  0.773  0.207  0.500-  35 1.43  36 1.44  32 1.44
  38  0.939  0.303  0.500-  35 1.43  39 1.43   6 1.43
  39  0.885  0.406  0.501-  38 1.43  41 1.44  40 1.44
  40  0.772  0.411  0.501-  55 1.40  39 1.44  36 1.45
  41  0.944  0.503  0.500-  42 1.42  10 1.42  39 1.44
  42  0.890  0.605  0.500-  44 1.41  41 1.42  45 1.43
  43  0.725  0.707  0.500-  54 1.39  48 1.41  44 1.42
  44  0.780  0.605  0.501-  55 1.40  42 1.41  43 1.42
  45  0.947  0.703  0.500-  46 1.42  42 1.43  13 1.43
  46  0.891  0.803  0.500-  45 1.42  49 1.42  48 1.43
  47  0.722  0.905  0.500-  48 1.42  33 1.42  30 1.43
  48  0.780  0.805  0.500-  43 1.41  47 1.42  46 1.43
  49  0.945  0.903  0.500-  46 1.42  31 1.43  17 1.43
  50  0.275  0.492  0.499-  12 1.38   9 1.39  56 1.91
  51  0.379  0.297  0.498-  25 1.37   8 1.37  56 1.98
  52  0.554  0.403  0.500-  26 1.34  56 1.81  57 1.87
  53  0.397  0.695  0.500-  29 1.39  15 1.40
  54  0.617  0.705  0.500-  27 1.37  43 1.39  57 1.99
  55  0.721  0.512  0.501-  40 1.40  44 1.40  57 2.08
  56  0.419  0.451  0.497-  52 1.81  50 1.91  51 1.98  57 2.27
  57  0.563  0.554  0.501-  52 1.87  54 1.99  55 2.08  56 2.27
 
  LATTYP: Found a triclinic cell.
 ALAT       =    12.3182307667
 B/A-ratio  =     1.4597693083
 C/A-ratio  =     1.6307471525
 COS(alpha) =     0.0010888352
 COS(beta)  =     0.0019126429
 COS(gamma) =     0.7001665628
  
  Lattice vectors:
  
 A1 = (  -0.1310986856, -12.3175275450,  -0.0117275657)
 A2 = ( -12.9718858808, -12.4528840403,  -0.0097639468)
 A3 = (   0.0033600474,  -0.0193331955, -20.0879101619)


Analysis of symmetry for initial positions (statically):
=====================================================================
 Subroutine PRICEL returns:
 Original cell was already a primitive cell.
 

 Routine SETGRP: Setting up the symmetry group for a 
 triclinic supercell.


 Subroutine GETGRP returns: Found  1 space group operations
 (whereof  1 operations were pure point group operations)
 out of a pool of  2 trial point group operations.


The static configuration has the point symmetry C_1 .


Analysis of symmetry for dynamics (positions and initial velocities):
=====================================================================
 Subroutine PRICEL returns:
 Original cell was already a primitive cell.
 

 Routine SETGRP: Setting up the symmetry group for a 
 triclinic supercell.


 Subroutine GETGRP returns: Found  1 space group operations
 (whereof  1 operations were pure point group operations)
 out of a pool of  2 trial point group operations.


The dynamic configuration has the point symmetry C_1 .


Analysis of structural, dynamic, and magnetic symmetry:
=====================================================================
 Subroutine PRICEL returns:
 Original cell was already a primitive cell.
 

 Routine SETGRP: Setting up the symmetry group for a 
 triclinic supercell.


 Subroutine GETGRP returns: Found  1 space group operations
 (whereof  1 operations were pure point group operations)
 out of a pool of  2 trial point group operations.


The magnetic configuration has the point symmetry C_1 .


 Subroutine INISYM returns: Found  1 space group operations
 (whereof  1 operations are pure point group operations),
 and found     1 'primitive' translations

 
 
 KPOINTS: KPOINTS created by Atomic Simulation Env

Automatic generation of k-mesh.
Space group operators:
 irot       det(A)        alpha          n_x          n_y          n_z        tau_x        tau_y        tau_z
    1     1.000000     0.000000     1.000000     0.000000     0.000000     0.000000     0.000000     0.000000
 
 Subroutine IBZKPT returns following result:
 ===========================================
 
 Found      2 irreducible k-points:
 
 Following reciprocal coordinates:
            Coordinates               Weight
  0.250000  0.250000 -0.000000      2.000000
 -0.250000  0.250000 -0.000000      2.000000
 
 Following cartesian coordinates:
            Coordinates               Weight
  0.019257  0.020091 -0.000016      2.000000
 -0.019685  0.020506 -0.000023      2.000000
 
 
 Subroutine IBZKPT_HF returns following result:
 ==============================================
 
 Found      4 k-points in 1st BZ
 the following      4 k-points will be used (e.g. in the exchange kernel)
 Following reciprocal coordinates:   # in IRBZ
  0.250000  0.250000 -0.000000    0.25000000   1 t-inv F
 -0.250000  0.250000 -0.000000    0.25000000   2 t-inv F
 -0.250000 -0.250000  0.000000    0.25000000   1 t-inv T
  0.250000 -0.250000  0.000000    0.25000000   2 t-inv T


--------------------------------------------------------------------------------------------------------




 Dimension of arrays:
   k-points           NKPTS =      2   k-points in BZ     NKDIM =      4   number of bands    NBANDS=    152
   number of dos      NEDOS =    301   number of ions     NIONS =     57
   non local maximal  LDIM  =      6   non local SUM 2l+1 LMDIM =     18
   total plane-waves  NPLWV = ******
   max r-space proj   IRMAX =      1   max aug-charges    IRDMAX=  24936
   dimension x,y,z NGX =    96 NGY =   90 NGZ =  150
   dimension x,y,z NGXF=   192 NGYF=  180 NGZF=  300
   support grid    NGXF=   192 NGYF=  180 NGZF=  300
   ions per type =              49   6   1   1
   NGX,Y,Z   is equivalent  to a cutoff of  12.43, 12.15, 12.41 a.u.
   NGXF,Y,Z  is equivalent  to a cutoff of  24.86, 24.29, 24.83 a.u.

 SYSTEM =  unknown system                          
 POSCAR =   C  N Fe  V                             

 Startparameter for this run:
   NWRITE =      2    write-flag & timer
   PREC   = accura    normal or accurate (medium, high low for compatibility)
   ISTART =      1    job   : 0-new  1-cont  2-samecut
   ICHARG =      0    charge: 1-file 2-atom 10-const
   ISPIN  =      2    spin polarized calculation?
   LNONCOLLINEAR =      F non collinear calculations
   LSORBIT =      F    spin-orbit coupling
   INIWAV =      1    electr: 0-lowe 1-rand  2-diag
   LASPH  =      T    aspherical Exc in radial PAW
   METAGGA=      F    non-selfconsistent MetaGGA calc.

 Electronic Relaxation 1
   ENCUT  =  500.0 eV  36.75 Ry    6.06 a.u.  23.41 22.46 36.62*2*pi/ulx,y,z
   ENINI  =  500.0     initial cutoff
   ENAUG  =  644.9 eV  augmentation charge cutoff
   NELM   =    250;   NELMIN=  2; NELMDL=  0     # of ELM steps 
   EDIFF  = 0.1E-03   stopping-criterion for ELM
   LREAL  =      F    real-space projection
   NLSPLINE    = F    spline interpolate recip. space projectors
   LCOMPAT=      F    compatible to vasp.4.4
   GGA_COMPAT  = T    GGA compatible to vasp.4.4-vasp.4.6
   LMAXPAW     = -100 max onsite density
   LMAXMIX     =    2 max onsite mixed and CHGCAR
   VOSKOWN=      0    Vosko Wilk Nusair interpolation
   ROPT   =    0.00000   0.00000   0.00000   0.00000
 Ionic relaxation
   EDIFFG = -.3E-01   stopping-criterion for IOM
   NSW    =      0    number of steps for IOM
   NBLOCK =      1;   KBLOCK =      1    inner block; outer block 
   IBRION =     -1    ionic relax: 0-MD 1-quasi-New 2-CG
   NFREE  =      1    steps in history (QN), initial steepest desc. (CG)
   ISIF   =      2    stress and relaxation
   IWAVPR =     10    prediction:  0-non 1-charg 2-wave 3-comb
   ISYM   =      3    0-nonsym 1-usesym 2-fastsym
   LCORR  =      T    Harris-Foulkes like correction to forces

   POTIM  = 0.5000    time-step for ionic-motion
   TEIN   =    0.0    initial temperature
   TEBEG  =    0.0;   TEEND  =   0.0 temperature during run
   SMASS  =  -3.00    Nose mass-parameter (am)
   estimated Nose-frequenzy (Omega)   =  0.10E-29 period in steps =****** mass=  -0.377E-26a.u.
   SCALEE = 1.0000    scale energy and forces
   NPACO  =    256;   APACO  = 16.0  distance and # of slots for P.C.
   PSTRESS=    0.0 pullay stress

  Mass of Ions in am
   POMASS =  12.01 14.00 55.85 50.94
  Ionic Valenz
   ZVAL   =   4.00  5.00  8.00  5.00
  Atomic Wigner-Seitz radii
   RWIGS  =  -1.00 -1.00 -1.00 -1.00
  virtual crystal weights 
   VCA    =   1.00  1.00  1.00  1.00
   NELECT =     239.0000    total number of electrons
   NUPDOWN=      -1.0000    fix difference up-down

 DOS related values:
   EMIN   =  10.00;   EMAX   =-10.00  energy-range for DOS
   EFERMI =   0.00
   ISMEAR =     0;   SIGMA  =   0.10  broadening in eV -4-tet -1-fermi 0-gaus

 Electronic relaxation 2 (details)
   IALGO  =     53    algorithm
   LDIAG  =      T    sub-space diagonalisation (order eigenvalues)
   LSUBROT=      F    optimize rotation matrix (better conditioning)
   TURBO    =      0    0=normal 1=particle mesh
   IRESTART =      0    0=no restart 2=restart with 2 vectors
   NREBOOT  =      0    no. of reboots
   NMIN     =      0    reboot dimension
   EREF     =   0.00    reference energy to select bands
   IMIX   =      4    mixing-type and parameters
     AMIX     =   0.40;   BMIX     =  1.00
     AMIX_MAG =   1.60;   BMIX_MAG =  1.00
     AMIN     =   0.10
     WC   =   100.;   INIMIX=   1;  MIXPRE=   1;  MAXMIX= -45

 Intra band minimization:
   WEIMIN = 0.0000     energy-eigenvalue tresh-hold
   EBREAK =  0.16E-06  absolut break condition
   DEPER  =   0.30     relativ break condition  

   TIME   =   0.20     timestep for ELM

  volume/ion in A,a.u.               =      55.73       376.12
  Fermi-wavevector in a.u.,A,eV,Ry     =   0.691099  1.305989  6.498393  0.477618
  Thomas-Fermi vector in A             =   1.772655
 
 Write flags
   LWAVE        =      T    write WAVECAR
   LDOWNSAMPLE  =      F    k-point downsampling of WAVECAR
   LCHARG       =      T    write CHGCAR
   LVTOT        =      F    write LOCPOT, total local potential
   LVHAR        =      F    write LOCPOT, Hartree potential only
   LELF         =      F    write electronic localiz. function (ELF)
   LORBIT       =     11    0 simple, 1 ext, 2 COOP (PROOUT), +10 PAW based schemes


 Dipole corrections
   LMONO  =      F    monopole corrections only (constant potential shift)
   LDIPOL =      T    correct potential (dipole corrections)
   IDIPOL =      3    1-x, 2-y, 3-z, 4-all directions 
   EPSILON=  1.0000000 bulk dielectric constant

 Exchange correlation treatment:
   GGA     =    PE    GGA type
   LEXCH   =     8    internal setting for exchange type
   VOSKOWN=      0    Vosko Wilk Nusair interpolation
   EXXOEP  =     0    0=HF, 1=EXX-LHF (local Hartree Fock) 2=EXX OEP
   LHFCALC =     T    Hartree Fock is set to
   LSYMGRAD=     F    symmetrize gradient (conserves proper symmetry)
   PRECFOCK=normal    Normal, Fast or Accurate (Low or Medium for compatibility)
   LRHFCALC=     F    long range Hartree Fock
   LRSCOR  =     F    long range correlation only (use DFT for short range part)
   LTHOMAS =     F    Thomas Fermi screening in HF
   LMODELHF=     F    short range full HF, long range fraction AEXX
   ENCUT4O =  -1.0   cutoff for four orbital integrals eV
   LMAXFOCK=     4    L truncation for augmentation on plane wave grid
   LMAXFOCKAE=  -1    L truncation for all-electron charge restoration on plane wave grid
   NMAXFOCKAE=   1    number of basis functions for all-electron charge restoration
   LFOCKAEDFT=     F  apply the AE augmentation even for DFT
   NKREDX  =     1    reduce k-point grid by
   NKREDY  =     1    reduce k-point grid by
   NKREDZ  =     1    reduce k-point grid by
   SHIFTRED=     F    shift reduced grid of Gamma
   HFKIDENT=     F    idential grid for each k-point
   ODDONLY =     F    use only odd q-grid points
   EVENONLY=     F    use only even q-grid points
   HFALPHA =   -1.0000 decay constant for conv. correction
   MCALPHA =    0.0000 extent of test-charge in conv. correction in multipole expansion
   AEXX    =    0.2500 exact exchange contribution
   HFSCREEN=    0.2000 screening length (either q_TF or 0.3 A-1)
   HFSCREENC=   0.2000 screening length for correlation (either q_TF or 0.3 A-1)
   HFRCUT  =    0.0000 spherical cutoff for potential kernel
   ALDAX   =    0.7500 LDA exchange part
   AGGAX   =    0.7500 GGA exchange part
   ALDAC   =    1.0000 LDA correlation
   AGGAC   =    1.0000 GGA correlation
   ENCUTFOCK=  -1.0 apply spherical cutoff to Coloumb kernel
   NBANDSGWLOW=     1    first orbital included in HF term
   NBLOCK_FOCK=    64    blocking factor in FOCK_ACC
 Linear response parameters
   LEPSILON=     F    determine dielectric tensor
   LRPA    =     F    only Hartree local field effects (RPA)
   LNABLA  =     F    use nabla operator in PAW spheres
   LVEL    =     F    velocity operator in full k-point grid
   LINTERFAST=   F  fast interpolation
   KINTER  =     0    interpolate to denser k-point grid
   CSHIFT  =0.1000    complex shift for real part using Kramers Kronig
   OMEGAMAX=  -1.0    maximum frequency
   DEG_THRESHOLD= 0.2000000E-02 threshold for treating states as degnerate
   RTIME   =   -0.100 relaxation time in fs
  (WPLASMAI=    0.000 imaginary part of plasma frequency in eV, 0.658/RTIME)
   DFIELD  = 0.0000000 0.0000000 0.0000000 field for delta impulse in time
 
 Orbital magnetization related:
   ORBITALMAG=     F  switch on orbital magnetization
   LCHIMAG   =     F  perturbation theory with respect to B field
   DQ        =  0.001000  dq finite difference perturbation B field
   LLRAUG    =     F  two centre corrections for induced B field



--------------------------------------------------------------------------------------------------------


 Static calculation
 charge density and potential will be updated during run
 spin polarized calculation
 Conjugate gradient for all bands (Freysoldt, et al. PRB 79, 241103 (2009))
 perform sub-space diagonalisation
    before iterative eigenvector-optimisation
 modified Broyden-mixing scheme, WC =      100.0
 initial mixing is a Kerker type mixing with AMIX =  0.4000 and BMIX =      1.0000
 Hartree-type preconditioning will be used
 using additional bands           32
 reciprocal scheme for non local part
 use partial core corrections
 no Harris-corrections to forces 
 use gradient corrections 
 use of overlap-Matrix (Vanderbilt PP)
 Gauss-broadening in eV      SIGMA  =   0.10


--------------------------------------------------------------------------------------------------------


  energy-cutoff  :      500.00
  volume of cell :     3176.88
      direct lattice vectors                 reciprocal lattice vectors
    12.840787195  0.135356495 -0.001963619     0.077885586 -0.000828970  0.000013826
     0.131098686 12.317527545  0.011727566    -0.000855892  0.081194308 -0.000078287
    -0.003360047  0.019333195 20.087910162     0.000008113 -0.000047483  0.049781233

  length of vectors
    12.841500731 12.318230767 20.087919746     0.077889999  0.081198857  0.049781257


 
 old parameters found on file WAVECAR:
  energy-cutoff  :      500.00
  volume of cell :     3176.88
      direct lattice vectors                 reciprocal lattice vectors
    12.810000000  0.000000000  0.000000000     0.078064012  0.000000000  0.000000000
     0.000000000 12.400000000  0.000000000     0.000000000  0.080645161  0.000000000
     0.000000000  0.000000000 20.000000000     0.000000000  0.000000000  0.050000000

  length of vectors

 
 k-points in units of 2pi/SCALE and weight: KPOINTS created by Atomic Simulation Env
   0.01925742  0.02009133 -0.00001612       0.500
  -0.01968537  0.02050582 -0.00002303       0.500
 
 k-points in reciprocal lattice and weights: KPOINTS created by Atomic Simulation Env
   0.25000000  0.25000000 -0.00000000       0.500
  -0.25000000  0.25000000 -0.00000000       0.500
 
 position of ions in fractional coordinates (direct lattice) 
   0.22144361  0.99781431  0.50022230
   0.05237223  0.10018191  0.50034065
   0.11010878  0.99961330  0.50022627
   0.27470522  0.09788601  0.50005020
   0.21696888  0.19787998  0.49992335
   0.05074765  0.30065968  0.50022408
   0.10608179  0.19969674  0.50027445
   0.27191108  0.29571782  0.49909484
   0.21745472  0.39795286  0.49923470
   0.05481519  0.50118032  0.49999941
   0.10770333  0.39907343  0.49986513
   0.22719224  0.59391114  0.49958612
   0.05879060  0.70016872  0.49996165
   0.11494981  0.59913695  0.49987693
   0.28781459  0.69457759  0.49990905
   0.22695176  0.79547157  0.50001910
   0.05697544  0.89987607  0.50003200
   0.11467637  0.79856055  0.49995875
   0.27921942  0.89711035  0.50014815
   0.55403704  0.00295558  0.49996229
   0.38553740  0.09972860  0.49987876
   0.44331125  0.99972179  0.50005031
   0.60689124  0.10481228  0.49991925
   0.54923010  0.20585277  0.49959357
   0.43695045  0.20275409  0.49923855
   0.60441424  0.30740314  0.49993631
   0.55909672  0.80016309  0.50017695
   0.39032839  0.89763153  0.50012309
   0.44581292  0.79482679  0.50012028
   0.61083751  0.90236367  0.50001667
   0.88750665  0.00300049  0.50004838
   0.71851346  0.10608597  0.50011428
   0.77579343  0.00492999  0.49999196
   0.94118915  0.10262238  0.50026748
   0.88449206  0.20402764  0.50040466
   0.71701922  0.30920280  0.50058850
   0.77296009  0.20703707  0.50040614
   0.93933900  0.30342153  0.50043162
   0.88460885  0.40561322  0.50053143
   0.77232088  0.41093334  0.50074319
   0.94422974  0.50308406  0.50033149
   0.88979011  0.60451639  0.50034452
   0.72476894  0.70705531  0.50040757
   0.77970823  0.60547269  0.50062883
   0.94705664  0.70274133  0.50006917
   0.89117812  0.80323122  0.49999582
   0.72230287  0.90484336  0.49996167
   0.77995563  0.80489863  0.50008274
   0.94537428  0.90251346  0.49996507
   0.27540403  0.49244049  0.49888897
   0.37890369  0.29691978  0.49829202
   0.55372762  0.40333955  0.49952497
   0.39696318  0.69531779  0.50006514
   0.61697478  0.70501226  0.50045718
   0.72056179  0.51168864  0.50094519
   0.41920962  0.45074490  0.49661538
   0.56330798  0.55449308  0.50064348
 
 position of ions in cartesian coordinates  (Angst):
   2.97264170 12.33024997 10.05968763
   0.68395324  1.25075550 10.05187017
   1.54325057 12.33733923 10.06000716
   3.53858379  1.25256437 10.04557200
   2.81031322  2.47642533 10.04430994
   0.68937508  3.71992382 10.05188267
   1.38667273  2.48380088 10.05160188
   3.52864349  3.68896637 10.02870635
   2.84278341  4.94088105 10.03282178
   0.76789422  6.19038856 10.04971312
   1.43363392  4.93984035 10.04571448
   2.99350960  7.35592741 10.04216014
   0.84502888  8.64197104 10.05128048
   1.55291246  7.40510930 10.04828361
   3.78514439  8.60410106 10.04970862
   3.01684442  9.83862938 10.05322205
   0.84790196 11.10162743 10.05503938
   1.57554516  9.86147961 10.05226640
   3.70132664 11.09764510 10.05690365
   7.11297930  0.12106384 10.04214435
   4.96199836  1.29025897 10.04193223
   5.82184744 12.38377335 10.05581961
   7.80502229  1.38283980 10.04237043
   7.07785520  2.61959772 10.03712650
   5.63569106  2.56622511 10.03017887
   7.79977498  3.87792336 10.04509398
   7.28246177  9.94137828 10.05579578
   5.12812171 11.11910355 10.05618836
   5.82710920  9.86031351 10.05481725
   7.96025306 11.20723716 10.05367309
  11.39499721  0.16675595 10.04321948
   9.23850574  1.41364117 10.04608392
   9.96076461  0.17540037 10.04232799
  12.09738228  1.40112182 10.04868360
  11.38264064  2.64251222 10.05273984
   9.24594524  3.91534519 10.05799501
   9.95087693  2.66448441 10.05302378
  12.09994888  3.87422363 10.05433932
  11.41056754  5.12556639 10.05765022
   9.96939842  5.17590240 10.06218690
  12.18892570  6.33423238 10.05465993
  11.50317555  7.57625939 10.05621797
   9.39761636  8.81694989 10.05901112
  10.08976199  7.57314385 10.06215663
  12.25140100  8.79389387 10.05172642
  11.54705112 10.02411589 10.05154120
   9.39188137 11.25286722 10.05237840
  10.11908513 10.02960130 10.05352517
  12.25598833 11.25436292 10.05198144
   3.59928658  6.11257212 10.02687111
   4.90267313  3.71823826 10.01238338
   7.16149742  5.05275411 10.03805553
   5.18679474  8.62799546 10.05263858
   8.01318648  8.77719490 10.06019545
   9.31797913  6.40995656 10.06752783
   5.44040499  5.61840658  9.98042806
   7.30432906  6.91591025 10.06227798
 


--------------------------------------------------------------------------------------------------------


 k-point  1 :   0.2500 0.2500-0.0000  plane waves:   80679
 k-point  2 :  -0.2500 0.2500-0.0000  plane waves:   80662

 maximum and minimum number of plane-waves per node :      2547     2496

 maximum number of plane-waves:     80679
 maximum index in each direction: 
   IXMAX=   23   IYMAX=   22   IZMAX=   36
   IXMIN=  -23   IYMIN=  -22   IZMIN=  -36


 parallel 3D FFT for wavefunctions:
    minimum data exchange during FFTs selected (reduces bandwidth)
 parallel 3D FFT for charge:
    minimum data exchange during FFTs selected (reduces bandwidth)


 FFT grid for exact exchange (Hartree Fock) 
  NGX = 72; NGY = 70; NGZ =112

 
 Radii for the augmentation spheres in the non-local exchange
 for species   1 augmentation radius   0.874 (default was   0.699)
       energy cutoff for augmentation   2000.0
 for species   2 augmentation radius   0.886 (default was   0.709)
       energy cutoff for augmentation   2000.0
 for species   3 augmentation radius   1.263 (default was   1.010)
       energy cutoff for augmentation   2000.0
 for species   4 augmentation radius   1.508 (default was   1.206)
       energy cutoff for augmentation   2000.0

 real space projection operators:
  total allocation   :       2712.68 KBytes
  max/ min on nodes  :        126.66         55.52

 Maximum index for augmentation-charges in exchange          149
  SETUP_FOCK is finished

 total amount of memory used by VASP MPI-rank0   161386. kBytes
=======================================================================

   base      :      30000. kBytes
   nonl-proj :       5273. kBytes
   fftplans  :      13455. kBytes
   grid      :      34560. kBytes
   one-center:         62. kBytes
   HF        :         23. kBytes
   nonlr-proj:       2692. kBytes
   wavefun   :      75321. kBytes
 
     INWAV:  cpu time    3.4730: real time    3.4736
 Broyden mixing: mesh for mixing (old mesh)
   NGX = 47   NGY = 45   NGZ = 73
  (NGX  =192   NGY  =180   NGZ  =300)
  gives a total of 154395 points

 charge density for first step will be calculated from the start-wavefunctions


--------------------------------------------------------------------------------------------------------


 Maximum index for augmentation-charges          544 (set IRDMAX)


--------------------------------------------------------------------------------------------------------


 initial charge from wavefunction
 First call to EWALD:  gamma=   0.121
 Maximum number of real-space cells 3x 3x 2
 Maximum number of reciprocal cells 2x 2x 4

    FEWALD:  cpu time    0.0035: real time    0.0035


--------------------------------------- Iteration      1(   1)  ---------------------------------------


    POTLOK:  cpu time    1.3075: real time    1.3118
    SETDIJ:  cpu time    2.0862: real time    2.0864
    TRIAL :  cpu time  504.4894: real time  504.5460
    CORREC:  cpu time    0.0022: real time    0.0025
    CHARGE:  cpu time    1.6300: real time    1.6300
    --------------------------------------------
      LOOP:  cpu time  509.5303: real time  509.5953

 eigenvalue-minimisations  :     0
 total energy-change (2. order) :-0.5994563E+03  (-0.5077141E+00)
 number of electron     239.0000005 magnetization       0.9822216
 augmentation part       11.8642821 magnetization       0.9840817

 DIPCOR: dipole corrections for dipol
 direction  3 min pos     1,
 dipolmoment          -0.000001      0.000008      0.008165 electrons x Angstroem
 Tr[quadrupol]     -6189.723767

 energy correction for charged system         0.000000 eV
 dipol+quadrupol energy correction            0.000002 eV
 added-field ion interaction          0.000000 eV  (added to PSCEN)


 Free energy of the ion-electron system (eV)
  ---------------------------------------------------
  alpha Z        PSCENC =        96.59505381
  Ewald energy   TEWEN  =     38263.36022424
  -Hartree energ DENC   =    -46395.93482274
  -exchange      EXHF   =       541.70356131
  -V(xc)+E(xc)   XCENC  =       577.55931780
  PAW double counting   =     25705.10171940   -25704.75454218
  entropy T*S    EENTRO =        -0.01393670
  eigenvalues    EBANDS =     -3133.81983711
  atomic energy  EATOM  =      9450.75363598
  ---------------------------------------------------
  free energy    TOTEN  =      -599.45631544 eV

  energy without entropy =     -599.44237874  energy(sigma->0) =     -599.44934709
  exchange ACFDT corr.  =        -0.03783710  see jH, gK, PRB 81, 115126


--------------------------------------------------------------------------------------------------------




--------------------------------------- Iteration      1(   2)  ---------------------------------------


    POTLOK:  cpu time    1.3189: real time    1.3190
    SETDIJ:  cpu time    2.0785: real time    2.0847
    TRIAL :  cpu time  503.8015: real time  503.8803
    CORREC:  cpu time    0.0022: real time    0.0025
    CHARGE:  cpu time    1.6280: real time    1.6283
    --------------------------------------------
      LOOP:  cpu time  508.8328: real time  508.9190

 eigenvalue-minimisations  :     0
 total energy-change (2. order) :-0.3908795E+00  (-0.4232210E+00)
 number of electron     239.0000005 magnetization       0.9803145
 augmentation part       11.8472829 magnetization       1.0152078

 DIPCOR: dipole corrections for dipol
 direction  3 min pos     1,
 dipolmoment          -0.000002      0.000011      0.011915 electrons x Angstroem
 Tr[quadrupol]     -6189.510314

 energy correction for charged system         0.000000 eV
 dipol+quadrupol energy correction            0.000004 eV
 added-field ion interaction          0.000000 eV  (added to PSCEN)


 Free energy of the ion-electron system (eV)
  ---------------------------------------------------
  alpha Z        PSCENC =        96.59505597
  Ewald energy   TEWEN  =     38263.36022424
  -Hartree energ DENC   =    -46378.58881521
  -exchange      EXHF   =       541.63122387
  -V(xc)+E(xc)   XCENC  =       577.27857984
  PAW double counting   =     25828.75862459   -25827.69453930
  entropy T*S    EENTRO =        -0.00971920
  eigenvalues    EBANDS =     -3151.92724817
  atomic energy  EATOM  =      9450.75363598
  ---------------------------------------------------
  free energy    TOTEN  =      -599.84719490 eV

  energy without entropy =     -599.83747570  energy(sigma->0) =     -599.84233530
  exchange ACFDT corr.  =        -0.01761988  see jH, gK, PRB 81, 115126


--------------------------------------------------------------------------------------------------------




--------------------------------------- Iteration      1(   3)  ---------------------------------------


    POTLOK:  cpu time    1.3249: real time    1.3251
    SETDIJ:  cpu time    2.0836: real time    2.0839
    TRIAL :  cpu time  502.4319: real time  502.5446
    CORREC:  cpu time    0.0022: real time    0.0024
    CHARGE:  cpu time    1.6189: real time    1.6243
    --------------------------------------------
      LOOP:  cpu time  507.4637: real time  507.5825

 eigenvalue-minimisations  :     0
 total energy-change (2. order) :-0.3287293E+00  (-0.2599806E+00)
 number of electron     239.0000005 magnetization       0.9765305
 augmentation part       11.8646434 magnetization       1.0289011

 DIPCOR: dipole corrections for dipol
 direction  3 min pos     1,
 dipolmoment          -0.000002      0.000014      0.014766 electrons x Angstroem
 Tr[quadrupol]     -6189.338604

 energy correction for charged system         0.000000 eV
 dipol+quadrupol energy correction            0.000006 eV
 added-field ion interaction          0.000000 eV  (added to PSCEN)


 Free energy of the ion-electron system (eV)
  ---------------------------------------------------
  alpha Z        PSCENC =        96.59505814
  Ewald energy   TEWEN  =     38263.36022424
  -Hartree energ DENC   =    -46362.67309012
  -exchange      EXHF   =       541.57629926
  -V(xc)+E(xc)   XCENC  =       576.95386513
  PAW double counting   =     25988.40369034   -25987.37006048
  entropy T*S    EENTRO =        -0.00744948
  eigenvalues    EBANDS =     -3167.76582751
  atomic energy  EATOM  =      9450.75363598
  ---------------------------------------------------
  free energy    TOTEN  =      -600.17592423 eV

  energy without entropy =     -600.16847475  energy(sigma->0) =     -600.17219949
  exchange ACFDT corr.  =        -0.00798131  see jH, gK, PRB 81, 115126


--------------------------------------------------------------------------------------------------------




--------------------------------------- Iteration      1(   4)  ---------------------------------------


    POTLOK:  cpu time    1.3258: real time    1.3284
    SETDIJ:  cpu time    2.0861: real time    2.0864
    TRIAL :  cpu time  500.7398: real time  500.8435
    CORREC:  cpu time    0.0021: real time    0.0021
    CHARGE:  cpu time    1.6243: real time    1.6247
    --------------------------------------------
      LOOP:  cpu time  505.7790: real time  505.8860

 eigenvalue-minimisations  :     0
 total energy-change (2. order) :-0.1966192E+00  (-0.1551300E+00)
 number of electron     239.0000005 magnetization       0.9785577
 augmentation part       11.8661415 magnetization       1.0428865

 DIPCOR: dipole corrections for dipol
 direction  3 min pos     1,
 dipolmoment          -0.000003      0.000015      0.015355 electrons x Angstroem
 Tr[quadrupol]     -6189.288685

 energy correction for charged system         0.000000 eV
 dipol+quadrupol energy correction            0.000007 eV
 added-field ion interaction          0.000000 eV  (added to PSCEN)


 Free energy of the ion-electron system (eV)
  ---------------------------------------------------
  alpha Z        PSCENC =        96.59505865
  Ewald energy   TEWEN  =     38263.36022424
  -Hartree energ DENC   =    -46356.35353063
  -exchange      EXHF   =       541.71584994
  -V(xc)+E(xc)   XCENC  =       576.83939901
  PAW double counting   =     26123.41326322   -26122.67443686
  entropy T*S    EENTRO =        -0.00581141
  eigenvalues    EBANDS =     -3174.01455752
  atomic energy  EATOM  =      9450.75363598
  ---------------------------------------------------
  free energy    TOTEN  =      -600.37254346 eV

  energy without entropy =     -600.36673206  energy(sigma->0) =     -600.36963776
  exchange ACFDT corr.  =        -0.00499890  see jH, gK, PRB 81, 115126


--------------------------------------------------------------------------------------------------------




--------------------------------------- Iteration      1(   5)  ---------------------------------------


    POTLOK:  cpu time    1.3226: real time    1.3228
    SETDIJ:  cpu time    2.0794: real time    2.0797
    TRIAL :  cpu time  500.8253: real time  500.9414
    CORREC:  cpu time    0.0021: real time    0.0024
    CHARGE:  cpu time    1.6164: real time    1.6166
    --------------------------------------------
      LOOP:  cpu time  505.8477: real time  505.9648

 eigenvalue-minimisations  :     0
 total energy-change (2. order) :-0.1257703E+00  (-0.1064022E+00)
 number of electron     239.0000005 magnetization       0.9811859
 augmentation part       11.8605888 magnetization       1.0519191

 DIPCOR: dipole corrections for dipol
 direction  3 min pos     1,
 dipolmoment          -0.000003      0.000014      0.015029 electrons x Angstroem
 Tr[quadrupol]     -6189.320814

 energy correction for charged system         0.000000 eV
 dipol+quadrupol energy correction            0.000006 eV
 added-field ion interaction          0.000000 eV  (added to PSCEN)


 Free energy of the ion-electron system (eV)
  ---------------------------------------------------
  alpha Z        PSCENC =        96.59505836
  Ewald energy   TEWEN  =     38263.36022424
  -Hartree energ DENC   =    -46357.59675632
  -exchange      EXHF   =       542.01672589
  -V(xc)+E(xc)   XCENC  =       576.93999454
  PAW double counting   =     26218.66157805   -26217.97528303
  entropy T*S    EENTRO =        -0.00465190
  eigenvalues    EBANDS =     -3173.24768005
  atomic energy  EATOM  =      9450.75363598
  ---------------------------------------------------
  free energy    TOTEN  =      -600.49831375 eV

  energy without entropy =     -600.49366185  energy(sigma->0) =     -600.49598780
  exchange ACFDT corr.  =        -0.00361551  see jH, gK, PRB 81, 115126


--------------------------------------------------------------------------------------------------------




--------------------------------------- Iteration      1(   6)  ---------------------------------------


    POTLOK:  cpu time    1.3220: real time    1.3221
    SETDIJ:  cpu time    2.1067: real time    2.1070
    TRIAL :  cpu time  501.6787: real time  501.7287
    CORREC:  cpu time    0.0021: real time    0.0023
    CHARGE:  cpu time    1.6161: real time    1.6162
    --------------------------------------------
      LOOP:  cpu time  506.7278: real time  506.7786

 eigenvalue-minimisations  :     0
 total energy-change (2. order) :-0.8757022E-01  (-0.7044209E-01)
 number of electron     239.0000005 magnetization       0.9818563
 augmentation part       11.8653409 magnetization       1.0519154

 DIPCOR: dipole corrections for dipol
 direction  3 min pos     1,
 dipolmoment          -0.000003      0.000014      0.015056 electrons x Angstroem
 Tr[quadrupol]     -6189.379293

 energy correction for charged system         0.000000 eV
 dipol+quadrupol energy correction            0.000006 eV
 added-field ion interaction          0.000000 eV  (added to PSCEN)


 Free energy of the ion-electron system (eV)
  ---------------------------------------------------
  alpha Z        PSCENC =        96.59505839
  Ewald energy   TEWEN  =     38263.36022424
  -Hartree energ DENC   =    -46361.52970072
  -exchange      EXHF   =       542.34028770
  -V(xc)+E(xc)   XCENC  =       577.11687115
  PAW double counting   =     26278.83461946   -26278.06155224
  entropy T*S    EENTRO =        -0.00402659
  eigenvalues    EBANDS =     -3169.99067602
  atomic energy  EATOM  =      9450.75363598
  ---------------------------------------------------
  free energy    TOTEN  =      -600.58588397 eV

  energy without entropy =     -600.58185739  energy(sigma->0) =     -600.58387068
  exchange ACFDT corr.  =        -0.00277320  see jH, gK, PRB 81, 115126


--------------------------------------------------------------------------------------------------------




--------------------------------------- Iteration      1(   7)  ---------------------------------------


    POTLOK:  cpu time    1.3216: real time    1.3218
    SETDIJ:  cpu time    2.0721: real time    2.0722
    TRIAL :  cpu time  501.9384: real time  501.9975
    CORREC:  cpu time    0.0021: real time    0.0023
    CHARGE:  cpu time    1.6184: real time    1.6185
    --------------------------------------------
      LOOP:  cpu time  506.9547: real time  507.0144

 eigenvalue-minimisations  :     0
 total energy-change (2. order) :-0.6021910E-01  (-0.5010298E-01)
 number of electron     239.0000005 magnetization       0.9813347
 augmentation part       11.8771831 magnetization       1.0475384

 DIPCOR: dipole corrections for dipol
 direction  3 min pos     1,
 dipolmoment          -0.000003      0.000015      0.015446 electrons x Angstroem
 Tr[quadrupol]     -6189.432331

 energy correction for charged system         0.000000 eV
 dipol+quadrupol energy correction            0.000007 eV
 added-field ion interaction          0.000000 eV  (added to PSCEN)


 Free energy of the ion-electron system (eV)
  ---------------------------------------------------
  alpha Z        PSCENC =        96.59505873
  Ewald energy   TEWEN  =     38263.36022424
  -Hartree energ DENC   =    -46365.30377018
  -exchange      EXHF   =       542.60278631
  -V(xc)+E(xc)   XCENC  =       577.27474262
  PAW double counting   =     26314.47671818   -26313.70908244
  entropy T*S    EENTRO =        -0.00375592
  eigenvalues    EBANDS =     -3166.69238992
  atomic energy  EATOM  =      9450.75363598
  ---------------------------------------------------
  free energy    TOTEN  =      -600.64610307 eV

  energy without entropy =     -600.64234715  energy(sigma->0) =     -600.64422511
  exchange ACFDT corr.  =        -0.00234608  see jH, gK, PRB 81, 115126


--------------------------------------------------------------------------------------------------------




--------------------------------------- Iteration      1(   8)  ---------------------------------------


    POTLOK:  cpu time    1.3184: real time    1.3185
    SETDIJ:  cpu time    2.1142: real time    2.1143
    TRIAL :  cpu time  500.9723: real time  501.0236
    CORREC:  cpu time    0.0021: real time    0.0023
    CHARGE:  cpu time    1.6309: real time    1.6310
    --------------------------------------------
      LOOP:  cpu time  506.0404: real time  506.0922

 eigenvalue-minimisations  :     0
 total energy-change (2. order) :-0.4390320E-01  (-0.3636996E-01)
 number of electron     239.0000005 magnetization       0.9807456
 augmentation part       11.8866494 magnetization       1.0437793

 DIPCOR: dipole corrections for dipol
 direction  3 min pos     1,
 dipolmoment          -0.000003      0.000015      0.015779 electrons x Angstroem
 Tr[quadrupol]     -6189.466810

 energy correction for charged system         0.000000 eV
 dipol+quadrupol energy correction            0.000007 eV
 added-field ion interaction          0.000000 eV  (added to PSCEN)


 Free energy of the ion-electron system (eV)
  ---------------------------------------------------
  alpha Z        PSCENC =        96.59505902
  Ewald energy   TEWEN  =     38263.36022424
  -Hartree energ DENC   =    -46367.85246156
  -exchange      EXHF   =       542.78833483
  -V(xc)+E(xc)   XCENC  =       577.38713580
  PAW double counting   =     26334.65245189   -26333.98491782
  entropy T*S    EENTRO =        -0.00363350
  eigenvalues    EBANDS =     -3164.38571273
  atomic energy  EATOM  =      9450.75363598
  ---------------------------------------------------
  free energy    TOTEN  =      -600.69000628 eV

  energy without entropy =     -600.68637277  energy(sigma->0) =     -600.68818952
  exchange ACFDT corr.  =        -0.00216019  see jH, gK, PRB 81, 115126


--------------------------------------------------------------------------------------------------------




--------------------------------------- Iteration      1(   9)  ---------------------------------------


    POTLOK:  cpu time    1.3197: real time    1.3198
    SETDIJ:  cpu time    2.0832: real time    2.0833
    TRIAL :  cpu time  501.0624: real time  501.1150
    CORREC:  cpu time    0.0020: real time    0.0023
    CHARGE:  cpu time    1.6175: real time    1.6175
    --------------------------------------------
      LOOP:  cpu time  506.0872: real time  506.1402

 eigenvalue-minimisations  :     0
 total energy-change (2. order) :-0.3242531E-01  (-0.2730173E-01)
 number of electron     239.0000005 magnetization       0.9804377
 augmentation part       11.8907211 magnetization       1.0420368

 DIPCOR: dipole corrections for dipol
 direction  3 min pos     1,
 dipolmoment          -0.000003      0.000015      0.015905 electrons x Angstroem
 Tr[quadrupol]     -6189.483151

 energy correction for charged system         0.000000 eV
 dipol+quadrupol energy correction            0.000007 eV
 added-field ion interaction          0.000000 eV  (added to PSCEN)


 Free energy of the ion-electron system (eV)
  ---------------------------------------------------
  alpha Z        PSCENC =        96.59505914
  Ewald energy   TEWEN  =     38263.36022424
  -Hartree energ DENC   =    -46369.13279756
  -exchange      EXHF   =       542.91412297
  -V(xc)+E(xc)   XCENC  =       577.46143379
  PAW double counting   =     26345.44420095   -26344.87010118
  entropy T*S    EENTRO =        -0.00355959
  eigenvalues    EBANDS =     -3163.24457641
  atomic energy  EATOM  =      9450.75363598
  ---------------------------------------------------
  free energy    TOTEN  =      -600.72243158 eV

  energy without entropy =     -600.71887199  energy(sigma->0) =     -600.72065179
  exchange ACFDT corr.  =        -0.00206331  see jH, gK, PRB 81, 115126


--------------------------------------------------------------------------------------------------------




--------------------------------------- Iteration      1(  10)  ---------------------------------------


    POTLOK:  cpu time    1.3204: real time    1.3206
    SETDIJ:  cpu time    2.1063: real time    2.1064
    TRIAL :  cpu time  501.4488: real time  501.5036
    CORREC:  cpu time    0.0020: real time    0.0023
    CHARGE:  cpu time    1.6156: real time    1.6157
    --------------------------------------------
      LOOP:  cpu time  506.4954: real time  506.5510

 eigenvalue-minimisations  :     0
 total energy-change (2. order) :-0.2478734E-01  (-0.2121115E-01)
 number of electron     239.0000005 magnetization       0.9802152
 augmentation part       11.8923453 magnetization       1.0411183

 DIPCOR: dipole corrections for dipol
 direction  3 min pos     1,
 dipolmoment          -0.000003      0.000015      0.015870 electrons x Angstroem
 Tr[quadrupol]     -6189.488598

 energy correction for charged system         0.000000 eV
 dipol+quadrupol energy correction            0.000007 eV
 added-field ion interaction          0.000000 eV  (added to PSCEN)


 Free energy of the ion-electron system (eV)
  ---------------------------------------------------
  alpha Z        PSCENC =        96.59505911
  Ewald energy   TEWEN  =     38263.36022424
  -Hartree energ DENC   =    -46369.57229635
  -exchange      EXHF   =       543.00253655
  -V(xc)+E(xc)   XCENC  =       577.51166009
  PAW double counting   =     26350.72712322   -26350.19285513
  entropy T*S    EENTRO =        -0.00352448
  eigenvalues    EBANDS =     -3162.92874703
  atomic energy  EATOM  =      9450.75363598
  ---------------------------------------------------
  free energy    TOTEN  =      -600.74721892 eV

  energy without entropy =     -600.74369444  energy(sigma->0) =     -600.74545668
  exchange ACFDT corr.  =        -0.00199165  see jH, gK, PRB 81, 115126


--------------------------------------------------------------------------------------------------------




--------------------------------------- Iteration      1(  11)  ---------------------------------------


    POTLOK:  cpu time    1.3138: real time    1.3138
    SETDIJ:  cpu time    2.0838: real time    2.0839
    TRIAL :  cpu time  501.0477: real time  501.1087
    CORREC:  cpu time    0.0021: real time    0.0023
    CHARGE:  cpu time    1.6147: real time    1.6149
    --------------------------------------------
      LOOP:  cpu time  506.0645: real time  506.1260

 eigenvalue-minimisations  :     0
 total energy-change (2. order) :-0.1947236E-01  (-0.1678770E-01)
 number of electron     239.0000005 magnetization       0.9798807
 augmentation part       11.8948128 magnetization       1.0398509

 DIPCOR: dipole corrections for dipol
 direction  3 min pos     1,
 dipolmoment          -0.000003      0.000015      0.015744 electrons x Angstroem
 Tr[quadrupol]     -6189.490518

 energy correction for charged system         0.000000 eV
 dipol+quadrupol energy correction            0.000007 eV
 added-field ion interaction          0.000000 eV  (added to PSCEN)


 Free energy of the ion-electron system (eV)
  ---------------------------------------------------
  alpha Z        PSCENC =        96.59505899
  Ewald energy   TEWEN  =     38263.36022424
  -Hartree energ DENC   =    -46369.67305295
  -exchange      EXHF   =       543.06999606
  -V(xc)+E(xc)   XCENC  =       577.54848843
  PAW double counting   =     26353.13989632   -26352.61517718
  entropy T*S    EENTRO =        -0.00353468
  eigenvalues    EBANDS =     -3162.94223668
  atomic energy  EATOM  =      9450.75363598
  ---------------------------------------------------
  free energy    TOTEN  =      -600.76669128 eV

  energy without entropy =     -600.76315659  energy(sigma->0) =     -600.76492394
  exchange ACFDT corr.  =        -0.00194199  see jH, gK, PRB 81, 115126


--------------------------------------------------------------------------------------------------------




--------------------------------------- Iteration      1(  12)  ---------------------------------------


    POTLOK:  cpu time    1.3149: real time    1.3150
    SETDIJ:  cpu time    2.1123: real time    2.1124
    TRIAL :  cpu time  501.4608: real time  501.5176
    CORREC:  cpu time    0.0020: real time    0.0022
    CHARGE:  cpu time    1.6151: real time    1.6152
    --------------------------------------------
      LOOP:  cpu time  506.5078: real time  506.5652

 eigenvalue-minimisations  :     0
 total energy-change (2. order) :-0.1559787E-01  (-0.1365168E-01)
 number of electron     239.0000005 magnetization       0.9794310
 augmentation part       11.8983266 magnetization       1.0381646

 DIPCOR: dipole corrections for dipol
 direction  3 min pos     1,
 dipolmoment          -0.000003      0.000015      0.015568 electrons x Angstroem
 Tr[quadrupol]     -6189.492900

 energy correction for charged system         0.000000 eV
 dipol+quadrupol energy correction            0.000007 eV
 added-field ion interaction          0.000000 eV  (added to PSCEN)


 Free energy of the ion-electron system (eV)
  ---------------------------------------------------
  alpha Z        PSCENC =        96.59505884
  Ewald energy   TEWEN  =     38263.36022424
  -Hartree energ DENC   =    -46369.78219868
  -exchange      EXHF   =       543.12645866
  -V(xc)+E(xc)   XCENC  =       577.57889865
  PAW double counting   =     26354.62141966   -26354.11520670
  entropy T*S    EENTRO =        -0.00357908
  eigenvalues    EBANDS =     -3162.91704510
  atomic energy  EATOM  =      9450.75363598
  ---------------------------------------------------
  free energy    TOTEN  =      -600.78228915 eV

  energy without entropy =     -600.77871007  energy(sigma->0) =     -600.78049961
  exchange ACFDT corr.  =        -0.00191981  see jH, gK, PRB 81, 115126


--------------------------------------------------------------------------------------------------------




--------------------------------------- Iteration      1(  13)  ---------------------------------------


    POTLOK:  cpu time    1.3097: real time    1.3098
    SETDIJ:  cpu time    2.1085: real time    2.1087
    TRIAL :  cpu time  501.6883: real time  501.7431
    CORREC:  cpu time    0.0020: real time    0.0022
    CHARGE:  cpu time    1.6142: real time    1.6143
    --------------------------------------------
      LOOP:  cpu time  506.7253: real time  506.7808

 eigenvalue-minimisations  :     0
 total energy-change (2. order) :-0.1281648E-01  (-0.1135733E-01)
 number of electron     239.0000005 magnetization       0.9789431
 augmentation part       11.9015632 magnetization       1.0364986

 DIPCOR: dipole corrections for dipol
 direction  3 min pos     1,
 dipolmoment          -0.000003      0.000015      0.015376 electrons x Angstroem
 Tr[quadrupol]     -6189.496243

 energy correction for charged system         0.000000 eV
 dipol+quadrupol energy correction            0.000007 eV
 added-field ion interaction          0.000000 eV  (added to PSCEN)


 Free energy of the ion-electron system (eV)
  ---------------------------------------------------
  alpha Z        PSCENC =        96.59505867
  Ewald energy   TEWEN  =     38263.36022424
  -Hartree energ DENC   =    -46369.98844629
  -exchange      EXHF   =       543.17657839
  -V(xc)+E(xc)   XCENC  =       577.60616962
  PAW double counting   =     26356.32663322   -26355.85491276
  entropy T*S    EENTRO =        -0.00364029
  eigenvalues    EBANDS =     -3162.76646761
  atomic energy  EATOM  =      9450.75363598
  ---------------------------------------------------
  free energy    TOTEN  =      -600.79510563 eV

  energy without entropy =     -600.79146534  energy(sigma->0) =     -600.79328548
  exchange ACFDT corr.  =        -0.00191884  see jH, gK, PRB 81, 115126


--------------------------------------------------------------------------------------------------------




--------------------------------------- Iteration      1(  14)  ---------------------------------------


    POTLOK:  cpu time    1.3111: real time    1.3113
    SETDIJ:  cpu time    2.0790: real time    2.0791
    TRIAL :  cpu time  501.0702: real time  501.1240
    CORREC:  cpu time    0.0020: real time    0.0022
    CHARGE:  cpu time    1.6132: real time    1.6134
    --------------------------------------------
      LOOP:  cpu time  506.0780: real time  506.1324

 eigenvalue-minimisations  :     0
 total energy-change (2. order) :-0.1074735E-01  (-0.9633839E-02)
 number of electron     239.0000005 magnetization       0.9784597
 augmentation part       11.9038241 magnetization       1.0350470

 DIPCOR: dipole corrections for dipol
 direction  3 min pos     1,
 dipolmoment          -0.000003      0.000015      0.015190 electrons x Angstroem
 Tr[quadrupol]     -6189.499702

 energy correction for charged system         0.000000 eV
 dipol+quadrupol energy correction            0.000007 eV
 added-field ion interaction          0.000000 eV  (added to PSCEN)


 Free energy of the ion-electron system (eV)
  ---------------------------------------------------
  alpha Z        PSCENC =        96.59505850
  Ewald energy   TEWEN  =     38263.36022424
  -Hartree energ DENC   =    -46370.22764506
  -exchange      EXHF   =       543.22178136
  -V(xc)+E(xc)   XCENC  =       577.63085893
  PAW double counting   =     26358.54908908   -26358.11259974
  entropy T*S    EENTRO =        -0.00370879
  eigenvalues    EBANDS =     -3162.57261598
  atomic energy  EATOM  =      9450.75363598
  ---------------------------------------------------
  free energy    TOTEN  =      -600.80585298 eV

  energy without entropy =     -600.80214419  energy(sigma->0) =     -600.80399858
  exchange ACFDT corr.  =        -0.00192881  see jH, gK, PRB 81, 115126


--------------------------------------------------------------------------------------------------------




--------------------------------------- Iteration      1(  15)  ---------------------------------------


    POTLOK:  cpu time    1.3091: real time    1.3091
    SETDIJ:  cpu time    2.0767: real time    2.0768
    TRIAL :  cpu time  501.9585: real time  502.0242
    CORREC:  cpu time    0.0019: real time    0.0021
    CHARGE:  cpu time    1.6175: real time    1.6175
    --------------------------------------------
      LOOP:  cpu time  506.9662: real time  507.0323

 eigenvalue-minimisations  :     0
 total energy-change (2. order) :-0.9179107E-02  (-0.8320231E-02)
 number of electron     239.0000005 magnetization       0.9779818
 augmentation part       11.9053792 magnetization       1.0336497

 DIPCOR: dipole corrections for dipol
 direction  3 min pos     1,
 dipolmoment          -0.000003      0.000014      0.015016 electrons x Angstroem
 Tr[quadrupol]     -6189.502623

 energy correction for charged system         0.000000 eV
 dipol+quadrupol energy correction            0.000006 eV
 added-field ion interaction          0.000000 eV  (added to PSCEN)


 Free energy of the ion-electron system (eV)
  ---------------------------------------------------
  alpha Z        PSCENC =        96.59505835
  Ewald energy   TEWEN  =     38263.36022424
  -Hartree energ DENC   =    -46370.42855488
  -exchange      EXHF   =       543.26232579
  -V(xc)+E(xc)   XCENC  =       577.65255823
  PAW double counting   =     26361.08525478   -26360.67368825
  entropy T*S    EENTRO =        -0.00378278
  eigenvalues    EBANDS =     -3162.41813752
  atomic energy  EATOM  =      9450.75363598
  ---------------------------------------------------
  free energy    TOTEN  =      -600.81503208 eV

  energy without entropy =     -600.81124930  energy(sigma->0) =     -600.81314069
  exchange ACFDT corr.  =        -0.00194408  see jH, gK, PRB 81, 115126


--------------------------------------------------------------------------------------------------------




--------------------------------------- Iteration      1(  16)  ---------------------------------------


    POTLOK:  cpu time    1.3060: real time    1.3061
    SETDIJ:  cpu time    2.0764: real time    2.0766
    TRIAL :  cpu time  501.7277: real time  501.7886
    CORREC:  cpu time    0.0020: real time    0.0022
    CHARGE:  cpu time    1.6153: real time    1.6156
    --------------------------------------------
      LOOP:  cpu time  506.7294: real time  506.7911

 eigenvalue-minimisations  :     0
 total energy-change (2. order) :-0.7969720E-02  (-0.7289662E-02)
 number of electron     239.0000005 magnetization       0.9775082
 augmentation part       11.9067593 magnetization       1.0321340

 DIPCOR: dipole corrections for dipol
 direction  3 min pos     1,
 dipolmoment          -0.000002      0.000014      0.014841 electrons x Angstroem
 Tr[quadrupol]     -6189.504903

 energy correction for charged system         0.000000 eV
 dipol+quadrupol energy correction            0.000006 eV
 added-field ion interaction          0.000000 eV  (added to PSCEN)


 Free energy of the ion-electron system (eV)
  ---------------------------------------------------
  alpha Z        PSCENC =        96.59505820
  Ewald energy   TEWEN  =     38263.36022424
  -Hartree energ DENC   =    -46370.57542390
  -exchange      EXHF   =       543.29857266
  -V(xc)+E(xc)   XCENC  =       577.67116981
  PAW double counting   =     26363.65148949   -26363.25566127
  entropy T*S    EENTRO =        -0.00386189
  eigenvalues    EBANDS =     -3162.31828424
  atomic energy  EATOM  =      9450.75363598
  ---------------------------------------------------
  free energy    TOTEN  =      -600.82300180 eV

  energy without entropy =     -600.81913991  energy(sigma->0) =     -600.82107086
  exchange ACFDT corr.  =        -0.00196359  see jH, gK, PRB 81, 115126


--------------------------------------------------------------------------------------------------------




--------------------------------------- Iteration      1(  17)  ---------------------------------------


    POTLOK:  cpu time    1.3058: real time    1.3061
    SETDIJ:  cpu time    2.0748: real time    2.0751
    TRIAL :  cpu time  502.6867: real time  502.7959
    CORREC:  cpu time    0.0020: real time    0.0023
    CHARGE:  cpu time    1.6301: real time    1.6304
    --------------------------------------------
      LOOP:  cpu time  507.7018: real time  507.8120

 eigenvalue-minimisations  :     0
 total energy-change (2. order) :-0.7012748E-02  (-0.6462924E-02)
 number of electron     239.0000005 magnetization       0.9770534
 augmentation part       11.9081582 magnetization       1.0305291

 DIPCOR: dipole corrections for dipol
 direction  3 min pos     1,
 dipolmoment          -0.000002      0.000014      0.014653 electrons x Angstroem
 Tr[quadrupol]     -6189.506713

 energy correction for charged system         0.000000 eV
 dipol+quadrupol energy correction            0.000006 eV
 added-field ion interaction          0.000000 eV  (added to PSCEN)


 Free energy of the ion-electron system (eV)
  ---------------------------------------------------
  alpha Z        PSCENC =        96.59505805
  Ewald energy   TEWEN  =     38263.36022424
  -Hartree energ DENC   =    -46370.69313378
  -exchange      EXHF   =       543.33130292
  -V(xc)+E(xc)   XCENC  =       577.68727157
  PAW double counting   =     26366.08954070   -26365.70690764
  entropy T*S    EENTRO =        -0.00394428
  eigenvalues    EBANDS =     -3162.24314469
  atomic energy  EATOM  =      9450.75363598
  ---------------------------------------------------
  free energy    TOTEN  =      -600.83001455 eV

  energy without entropy =     -600.82607028  energy(sigma->0) =     -600.82804241
  exchange ACFDT corr.  =        -0.00198715  see jH, gK, PRB 81, 115126


--------------------------------------------------------------------------------------------------------




--------------------------------------- Iteration      1(  18)  ---------------------------------------


    POTLOK:  cpu time    1.3050: real time    1.3051
    SETDIJ:  cpu time    2.0968: real time    2.0971
    TRIAL :  cpu time  501.9715: real time  502.0778
    CORREC:  cpu time    0.0021: real time    0.0023
    CHARGE:  cpu time    1.6145: real time    1.6148
    --------------------------------------------
      LOOP:  cpu time  506.9919: real time  507.0991

 eigenvalue-minimisations  :     0
 total energy-change (2. order) :-0.6239837E-02  (-0.5788841E-02)
 number of electron     239.0000005 magnetization       0.9766359
 augmentation part       11.9094634 magnetization       1.0289580

 DIPCOR: dipole corrections for dipol
 direction  3 min pos     1,
 dipolmoment          -0.000002      0.000014      0.014455 electrons x Angstroem
 Tr[quadrupol]     -6189.508180

 energy correction for charged system         0.000000 eV
 dipol+quadrupol energy correction            0.000006 eV
 added-field ion interaction          0.000000 eV  (added to PSCEN)


 Free energy of the ion-electron system (eV)
  ---------------------------------------------------
  alpha Z        PSCENC =        96.59505788
  Ewald energy   TEWEN  =     38263.36022424
  -Hartree energ DENC   =    -46370.80372207
  -exchange      EXHF   =       543.36124942
  -V(xc)+E(xc)   XCENC  =       577.70156135
  PAW double counting   =     26368.32994229   -26367.96148131
  entropy T*S    EENTRO =        -0.00402789
  eigenvalues    EBANDS =     -3162.16877789
  atomic energy  EATOM  =      9450.75363598
  ---------------------------------------------------
[...]
  E(xc)    -698.23238  -698.24499  -711.22428    -0.57192    -0.01514    -0.06509
  Local  -94934.68431-94826.10614 96899.78396   108.53006  -164.27265    43.02441
  n-local  -176.09208  -173.36897  -172.31013     2.22299     0.05815     0.05646
  augment    39.71687    39.21117    42.69290     0.53799    -0.02707     0.09287
  Kinetic  3581.28062  3567.52327  4085.82109    10.43937    -0.05530     0.61802
  Fock     -298.62700  -298.27296  -276.16297    -0.29845     0.01431    -0.04558
  -------------------------------------------------------------------------------------
  Total     -39.42514   -42.01876    -0.41330     1.65822     0.03960     0.10295
  in kB     -19.88305   -21.19107    -0.20844     0.83628     0.01997     0.05192
  external pressure =      -13.76 kB  Pullay stress =        0.00 kB


 VOLUME and BASIS-vectors are now :
 -----------------------------------------------------------------------------
  energy-cutoff  :      500.00
  volume of cell :     3176.88
      direct lattice vectors                 reciprocal lattice vectors
    12.840787195  0.135356495 -0.001963619     0.077885586 -0.000828970  0.000013826
     0.131098686 12.317527545  0.011727566    -0.000855892  0.081194308 -0.000078287
    -0.003360047  0.019333195 20.087910162     0.000008113 -0.000047483  0.049781233

  length of vectors
    12.841500731 12.318230767 20.087919746     0.077889999  0.081198857  0.049781257


 FORCES acting on ions:
    Electron-Ion                     Ewald-Force                    Non-Local-Force
 -----------------------------------------------------------------------------------------------
   -.314E+00 0.912E+01 -.167E+01   -.709E-01 -.903E+01 0.167E+01   0.333E+00 -.346E-01 -.107E-01
   0.347E+01 0.568E+01 -.190E+01   -.363E+01 -.576E+01 0.191E+01   0.136E+00 0.102E+00 -.115E-01
   -.644E+00 0.163E+01 -.120E+01   0.513E+00 -.165E+01 0.119E+01   0.133E+00 -.237E-01 0.291E-02
   0.127E+01 0.120E+02 -.144E+01   -.136E+01 -.123E+02 0.142E+01   0.905E-01 0.278E+00 0.104E-01
   0.111E+02 0.121E+02 -.148E+01   -.116E+02 -.122E+02 0.149E+01   0.459E+00 0.160E+00 -.219E-01
   0.854E+01 -.638E+00 -.146E+01   -.884E+01 0.298E+00 0.145E+01   0.312E+00 0.334E+00 0.581E-02
   0.562E+01 0.394E+01 -.227E+01   -.603E+01 -.399E+01 0.227E+01   0.408E+00 0.307E-01 -.120E-01
   0.319E+02 0.623E+01 0.211E+01   -.351E+02 -.667E+01 -.206E+01   0.320E+01 0.321E+00 -.434E-01
   0.198E+02 0.955E+01 0.155E+01   -.217E+02 -.125E+02 -.150E+01   0.197E+01 0.297E+01 -.447E-01
   0.377E+01 -.108E+02 -.305E+00   -.397E+01 0.109E+02 0.295E+00   0.201E+00 -.194E+00 0.115E-01
   0.132E+02 0.284E+01 -.449E+00   -.138E+02 -.319E+01 0.463E+00   0.553E+00 0.340E+00 -.126E-01
   -.112E+02 -.431E+02 -.167E+00   0.963E+01 0.461E+02 0.199E+00   0.149E+01 -.326E+01 -.377E-01
   -.165E+01 -.133E+01 0.114E+00   0.158E+01 0.157E+01 -.107E+00   0.519E-01 -.248E+00 -.156E-02
   -.279E+01 -.728E+01 -.314E+00   0.260E+01 0.771E+01 0.314E+00   0.221E+00 -.315E+00 0.777E-03
   0.368E+01 0.168E+02 -.657E+00   -.607E+01 -.165E+02 0.663E+00   0.262E+01 -.135E+00 -.925E-02
   -.152E+01 0.889E+01 -.455E+00   0.110E+01 -.905E+01 0.457E+00   0.330E+00 0.245E+00 -.166E-02
   -.111E+01 0.620E+01 0.148E+00   0.110E+01 -.614E+01 -.144E+00   -.428E-02 -.120E-01 0.857E-03
   -.749E+01 -.146E+01 0.304E+00   0.727E+01 0.152E+01 -.311E+00   0.230E+00 -.353E-01 0.112E-01
   0.580E+00 0.486E+01 -.105E+01   -.759E+00 -.474E+01 0.105E+01   0.183E+00 -.173E+00 0.433E-03
   -.280E+01 -.949E+00 0.233E-01   0.281E+01 0.133E+01 -.322E-01   0.496E-01 -.365E+00 0.796E-02
   -.768E+01 0.108E+02 -.105E+01   0.789E+01 -.112E+02 0.107E+01   -.195E+00 0.206E+00 -.188E-01
   -.141E+00 0.104E+02 -.102E+01   0.465E+00 -.103E+02 0.103E+01   -.375E+00 -.797E-01 -.112E-01
   -.177E+01 0.195E+01 -.905E-01   0.171E+01 -.174E+01 0.101E+00   -.160E-01 -.199E+00 -.118E-01
   -.890E+01 0.132E+01 0.111E+01   0.922E+01 -.904E+00 -.113E+01   -.273E+00 -.425E+00 0.234E-01
   -.302E+02 0.309E+02 0.156E+01   0.325E+02 -.335E+02 -.151E+01   -.232E+01 0.275E+01 -.519E-01
   -.215E+02 0.275E+02 -.131E+01   0.228E+02 -.300E+02 0.132E+01   -.161E+01 0.277E+01 -.286E-01
   0.305E+02 -.554E+01 -.490E+00   -.321E+02 0.831E+01 0.467E+00   0.208E+01 -.302E+01 0.267E-01
   -.672E+01 0.365E+01 -.888E+00   0.693E+01 -.323E+01 0.885E+00   -.194E+00 -.375E+00 0.194E-02
   -.163E+02 0.419E+01 -.761E+00   0.168E+02 -.194E+01 0.760E+00   -.906E+00 -.245E+01 -.260E-02
   0.580E+01 0.549E+00 0.227E+00   -.591E+01 0.236E+00 -.222E+00   0.233E-01 -.677E+00 -.480E-03
   0.333E+01 0.156E+01 0.346E+00   -.330E+01 -.157E+01 -.340E+00   -.842E-02 -.292E-01 -.622E-03
   0.153E-01 -.293E+01 -.478E+00   0.645E-01 0.299E+01 0.478E+00   -.200E-01 -.164E+00 -.800E-03
   0.849E+00 -.376E+01 0.597E+00   -.657E+00 0.423E+01 -.595E+00   -.161E+00 -.378E+00 0.377E-02
   0.334E+01 -.181E+01 -.882E+00   -.349E+01 0.178E+01 0.879E+00   0.154E+00 0.337E-01 0.414E-02
   0.477E+01 0.184E+01 -.150E+01   -.488E+01 -.198E+01 0.150E+01   0.134E+00 0.952E-01 0.368E-03
   -.156E+01 -.428E+01 -.376E+01   0.126E+01 0.414E+01 0.379E+01   0.474E+00 0.996E-02 -.442E-01
   0.361E+01 -.311E+00 -.181E+01   -.378E+01 0.665E+00 0.181E+01   0.115E+00 -.217E+00 0.235E-02
   0.524E+01 0.162E+00 -.172E+01   -.542E+01 -.404E+00 0.172E+01   0.161E+00 0.231E+00 -.935E-03
   0.387E+01 0.317E+01 -.192E+01   -.387E+01 -.347E+01 0.192E+01   0.531E-01 0.210E+00 0.478E-02
   0.397E+01 0.227E+02 -.322E+01   -.302E+01 -.255E+02 0.318E+01   -.108E+01 0.302E+01 0.321E-01
   -.564E+00 0.416E+01 -.125E+01   0.612E+00 -.434E+01 0.127E+01   -.827E-01 0.166E+00 -.109E-01
   -.455E+01 -.490E+01 -.991E+00   0.483E+01 0.519E+01 0.988E+00   -.328E+00 -.220E+00 0.518E-02
   -.977E+01 0.469E+01 -.140E+01   0.133E+02 -.452E+01 0.140E+01   -.367E+01 -.117E+00 0.158E-02
   -.107E+01 -.115E+02 -.249E+01   0.270E+01 0.133E+02 0.249E+01   -.162E+01 -.222E+01 0.584E-03
   -.581E+01 0.709E+00 0.184E+00   0.597E+01 -.406E+00 -.183E+00   -.114E+00 -.260E+00 0.272E-02
   -.318E-01 -.193E+01 0.682E+00   0.505E+00 0.201E+01 -.680E+00   -.431E+00 -.715E-01 0.685E-03
   0.269E+01 -.544E+01 0.873E+00   -.243E+01 0.584E+01 -.875E+00   -.193E+00 -.505E+00 0.937E-02
   -.482E+01 -.505E+01 0.359E+00   0.544E+01 0.541E+01 -.361E+00   -.569E+00 -.274E+00 0.387E-02
   -.250E+01 -.265E+01 0.791E+00   0.247E+01 0.284E+01 -.791E+00   0.160E-01 -.158E+00 0.607E-02
   -.470E+02 -.441E+02 0.328E+01   0.652E+02 0.435E+02 -.341E+01   -.178E+02 0.817E+00 0.135E+00
   -.368E+02 -.228E+02 0.948E+01   0.479E+02 0.421E+02 -.100E+02   -.104E+02 -.185E+02 0.519E+00
   -.263E+02 -.561E+02 -.113E+01   0.230E+02 0.698E+02 0.125E+01   0.346E+01 -.133E+02 -.115E+00
   -.626E+02 0.105E+03 -.182E+01   0.761E+02 -.127E+03 0.186E+01   -.130E+02 0.215E+02 -.430E-01
   0.633E+02 0.780E+02 -.279E+01   -.732E+02 -.962E+02 0.289E+01   0.940E+01 0.178E+02 -.970E-01
   0.864E+02 0.123E+01 -.635E+01   -.108E+03 -.778E+00 0.657E+01   0.209E+02 -.436E+00 -.209E+00
   -.210E+02 -.133E+03 0.384E+02   0.205E+02 0.128E+03 -.379E+02   -.952E+00 0.398E+01 -.527E+00
   0.356E+02 -.541E+02 -.783E+01   -.319E+02 0.529E+02 0.773E+01   -.284E+01 0.228E+01 0.165E+00
 -----------------------------------------------------------------------------------------------
   0.981E+01 -.125E+02 0.369E+00   -.199E-12 0.284E-13 0.711E-14   -.920E+01 0.117E+02 -.379E+00
 
 
 POSITION                                       TOTAL-FORCE (eV/Angst)
 -----------------------------------------------------------------------------------
      2.97264     12.33025     10.05969        -0.035669      0.054776     -0.004732
      0.68395      1.25076     10.05187        -0.007994      0.025682     -0.006855
      1.54325     12.33734     10.06001         0.006951     -0.049071     -0.002825
      3.53858      1.25256     10.04557         0.009850      0.000731     -0.008999
      2.81031      2.47643     10.04431        -0.014118      0.054727     -0.012239
      0.68938      3.71992     10.05188         0.024926      0.008139     -0.002476
      1.38667      2.48380     10.05160         0.019876     -0.022887     -0.008752
      3.52864      3.68897     10.02871         0.216847     -0.097054      0.004675
      2.84278      4.94088     10.03282         0.240634      0.151725      0.002559
      0.76789      6.19039     10.04971         0.013308     -0.113318      0.001814
      1.43363      4.93984     10.04571        -0.072829      0.021464     -0.000362
      2.99351      7.35593     10.04216        -0.036775     -0.454868     -0.007571
      0.84503      8.64197     10.05128        -0.011923     -0.010039      0.005399
      1.55291      7.40511     10.04828         0.044720      0.105953      0.000753
      3.78514      8.60410     10.04971         0.366451      0.187839     -0.003502
      3.01684      9.83863     10.05322        -0.067962      0.100341      0.000023
      0.84790     11.10163     10.05504        -0.012106      0.048407      0.004767
      1.57555      9.86148     10.05227         0.016705      0.013781      0.004511
      3.70133     11.09765     10.05690         0.017331     -0.064524     -0.001324
      7.11298      0.12106     10.04214         0.058591     -0.014435     -0.000317
      4.96200      1.29026     10.04193         0.002006     -0.131559     -0.008585
      5.82185     12.38377     10.05582        -0.064885      0.049316     -0.004269
      7.80502      1.38284     10.04237        -0.073827     -0.001983     -0.002334
      7.07786      2.61960     10.03713         0.037491     -0.041704      0.003274
      5.63569      2.56623     10.03018        -0.225169      0.293425     -0.001744
      7.79977      3.87792     10.04509        -0.375257      0.497232     -0.017695
      7.28246      9.94138     10.05580         0.590543     -0.425833      0.005052
      5.12812     11.11910     10.05619         0.000515      0.027330     -0.001500
      5.82711      9.86031     10.05482        -0.469907     -0.331013     -0.003969
      7.96025     11.20724     10.05367        -0.074068      0.077971      0.004895
     11.39500      0.16676     10.04322         0.023209     -0.034450      0.005416
      9.23851      1.41364     10.04608         0.057519     -0.113135     -0.000391
      9.96076      0.17540     10.04233         0.021270      0.062668      0.006452
     12.09738      1.40112     10.04868         0.013529     -0.005434      0.001665
     11.38264      2.64251     10.05274         0.028230     -0.032032      0.004019
      9.24595      3.91535     10.05800         0.196980     -0.138700     -0.015983
      9.95088      2.66448     10.05302        -0.046994      0.125144     -0.000299
     12.09995      3.87422     10.05434        -0.010449      0.000237      0.000057
     11.41057      5.12557     10.05765         0.053524     -0.077165     -0.000502
      9.96940      5.17590     10.06219        -0.184183      0.328475     -0.005273
     12.18893      6.33423     10.05466        -0.042496      0.011183      0.001165
     11.50318      7.57626     10.05622        -0.065948      0.042478      0.001961
      9.39762      8.81695     10.05901        -0.344367      0.048111      0.000037
     10.08976      7.57314     10.06216        -0.082135     -0.508919     -0.005135
     12.25140      8.79389     10.05173         0.027849      0.033191      0.003916
     11.54705     10.02412     10.05154         0.024399      0.005391      0.002718
      9.39188     11.25287     10.05238         0.063063     -0.134099      0.007898
     10.11909     10.02960     10.05353         0.007312      0.074000      0.002707
     12.25599     11.25436     10.05198        -0.011531      0.013365      0.006273
      3.59929      6.11257     10.02687        -1.084314      0.293426      0.009803
      4.90267      3.71824     10.01238        -0.283178     -0.871311      0.025995
      7.16150      5.05275     10.03806         0.427635     -0.753960     -0.001344
      5.18679      8.62800     10.05264        -0.523891      0.840797     -0.002037
      8.01319      8.77719     10.06020         0.389120      1.192675     -0.011334
      9.31798      6.40996     10.06753         1.132907     -0.023831     -0.008744
      5.44040      5.61841      9.98043        -0.583950     -0.612091      0.006048
      7.30433      6.91591     10.06228         0.672637      0.273439      0.027234
 -----------------------------------------------------------------------------------
    total drift:                                0.001916      0.008281     -0.002450


--------------------------------------------------------------------------------------------------------



  FREE ENERGIE OF THE ION-ELECTRON SYSTEM (eV)
  ---------------------------------------------------
  free  energy   TOTEN  =      -600.90483692 eV

  energy  without entropy=     -600.89827964  energy(sigma->0) =     -600.90155828
 


--------------------------------------------------------------------------------------------------------


    POTLOK:  cpu time    3.3660: real time    3.3665


--------------------------------------------------------------------------------------------------------


 stress matrix after NEB project (eV)
    -39.42514      1.65853      0.10295
      1.65822    -42.01876      0.03982
      0.10258      0.03960     -0.41330
  FORCES: max atom, RMS     1.254598    0.431841
  FORCE total and by dimension    3.260331    1.192675
  Stress total and by dimension   57.668127   42.018757
 writing wavefunctions
     LOOP+:  cpu time40647.2202: real time40656.3921
    4ORBIT:  cpu time    0.0000: real time    0.0000
 


 total charge     
 
# of ion       s       p       d       tot
------------------------------------------
    1        0.864   1.777   0.000   2.641
    2        0.867   1.775   0.000   2.642
    3        0.867   1.776   0.000   2.642
    4        0.870   1.774   0.000   2.643
    5        0.871   1.793   0.000   2.664
    6        0.865   1.779   0.000   2.644
    7        0.869   1.785   0.000   2.654
    8        0.865   1.772   0.000   2.637
    9        0.862   1.753   0.000   2.615
   10        0.866   1.772   0.000   2.638
   11        0.872   1.789   0.000   2.661
   12        0.848   1.698   0.000   2.547
   13        0.866   1.772   0.000   2.637
   14        0.860   1.757   0.000   2.617
   15        0.842   1.682   0.000   2.524
   16        0.859   1.744   0.000   2.603
   17        0.865   1.766   0.000   2.631
   18        0.862   1.762   0.000   2.623
   19        0.868   1.754   0.000   2.622
   20        0.863   1.774   0.000   2.637
   21        0.866   1.770   0.000   2.636
   22        0.863   1.768   0.000   2.631
   23        0.863   1.746   0.000   2.608
   24        0.856   1.761   0.000   2.618
   25        0.858   1.724   0.000   2.582
   26        0.861   1.724   0.000   2.585
   27        0.859   1.719   0.000   2.577
   28        0.862   1.759   0.000   2.621
   29        0.852   1.710   0.000   2.562
   30        0.864   1.769   0.000   2.633
   31        0.864   1.774   0.000   2.639
   32        0.861   1.757   0.000   2.619
   33        0.864   1.765   0.000   2.629
   34        0.867   1.770   0.000   2.637
   35        0.864   1.769   0.000   2.633
   36        0.855   1.757   0.000   2.612
   37        0.863   1.747   0.000   2.610
   38        0.866   1.767   0.000   2.633
   39        0.862   1.760   0.000   2.622
   40        0.851   1.693   0.000   2.544
   41        0.867   1.774   0.000   2.642
   42        0.870   1.789   0.000   2.659
   43        0.864   1.765   0.000   2.629
   44        0.863   1.750   0.000   2.614
   45        0.865   1.773   0.000   2.638
   46        0.868   1.787   0.000   2.655
   47        0.868   1.769   0.000   2.637
   48        0.870   1.786   0.000   2.656
   49        0.866   1.769   0.000   2.635
   50        1.226   2.685   0.000   3.910
   51        1.240   2.681   0.000   3.921
   52        1.255   2.629   0.000   3.885
   53        1.234   2.572   0.000   3.806
   54        1.238   2.687   0.000   3.926
   55        1.229   2.641   0.000   3.870
   56        0.493   0.620   6.185   7.298
   57        0.478   0.704   3.576   4.758
--------------------------------------------------
tot         50.691 103.438   9.762 163.891
 


 magnetization (x)
 
# of ion       s       p       d       tot
------------------------------------------
    1        0.000   0.006   0.000   0.006
    2       -0.000  -0.005   0.000  -0.005
    3        0.001   0.009   0.000   0.009
    4       -0.001  -0.009   0.000  -0.010
    5        0.000  -0.001   0.000  -0.000
    6        0.000   0.001   0.000   0.001
    7        0.000   0.004   0.000   0.004
    8       -0.000   0.002   0.000   0.002
    9        0.001   0.003   0.000   0.005
   10       -0.000  -0.004   0.000  -0.004
   11       -0.000  -0.003   0.000  -0.003
   12        0.001   0.010   0.000   0.011
   13        0.000   0.002   0.000   0.002
   14        0.000  -0.000   0.000   0.000
   15        0.000   0.008   0.000   0.008
   16       -0.000  -0.006   0.000  -0.006
   17       -0.000  -0.004   0.000  -0.005
   18        0.000   0.005   0.000   0.006
   19       -0.000  -0.002   0.000  -0.003
   20        0.001   0.016   0.000   0.018
   21        0.001   0.008   0.000   0.009
   22       -0.000  -0.005   0.000  -0.005
   23       -0.001  -0.007   0.000  -0.008
   24        0.003   0.019   0.000   0.021
   25       -0.002  -0.021   0.000  -0.023
   26       -0.002  -0.029   0.000  -0.031
   27       -0.000   0.000   0.000  -0.000
   28        0.001   0.001   0.000   0.002
   29       -0.001  -0.010   0.000  -0.011
   30        0.000   0.000   0.000   0.000
   31       -0.001  -0.008   0.000  -0.008
   32        0.000   0.005   0.000   0.005
   33        0.001   0.005   0.000   0.006
   34        0.000   0.004   0.000   0.004
   35       -0.001  -0.011   0.000  -0.012
   36        0.002   0.014   0.000   0.016
   37       -0.000  -0.004   0.000  -0.004
   38        0.000   0.004   0.000   0.005
   39       -0.000  -0.005   0.000  -0.005
   40       -0.001  -0.010   0.000  -0.010
   41       -0.000  -0.007   0.000  -0.007
   42        0.001   0.010   0.000   0.010
   43       -0.002  -0.035   0.000  -0.037
   44        0.000  -0.002   0.000  -0.001
   45        0.000   0.007   0.000   0.008
   46       -0.001  -0.007   0.000  -0.007
   47       -0.001  -0.018   0.000  -0.019
   48        0.001   0.009   0.000   0.010
   49        0.000   0.004   0.000   0.005
   50       -0.004  -0.001   0.000  -0.005
   51        0.013   0.062   0.000   0.075
   52        0.009   0.104   0.000   0.113
   53        0.009   0.062   0.000   0.071
   54        0.004   0.021   0.000   0.025
   55        0.004  -0.007   0.000  -0.004
   56        0.064   0.028   3.080   3.172
   57       -0.085  -0.031  -2.195  -2.310
--------------------------------------------------
tot          0.016   0.184   0.885   1.085
 

 total amount of memory used by VASP MPI-rank0   184453. kBytes
=======================================================================

   base      :      30000. kBytes
   nonl-proj :       5273. kBytes
   fftplans  :      13455. kBytes
   grid      :      34560. kBytes
   one-center:         62. kBytes
   HF        :         23. kBytes
   nonlr-proj:      25759. kBytes
   wavefun   :      75321. kBytes
 
  
  
 General timing and accounting informations for this job:
 ========================================================
  
                  Total CPU time used (sec):    40736.168
                            User time (sec):    40689.793
                          System time (sec):       46.374
                         Elapsed time (sec):    40749.219
  
                   Maximum memory used (kb):      416628.
                   Average memory used (kb):           0.
  
                          Minor page faults:       407780
                          Major page faults:            1
                 Voluntary context switches:         1370
