 vasp.5.4.4.18Apr17-6-g9f103f2a35 (build Feb 25 2019 10:51:38) complex          
  
 executed on             LinuxIFC date 2021.07.24  10:57:33
 running on   32 total cores
 distrk:  each k-point on   32 cores,    1 groups
 distr:  one band on NCORES_PER_BAND=  32 cores,    1 groups


--------------------------------------------------------------------------------------------------------


 INCAR:
 POTCAR:    PAW_PBE C 08Apr2002                   
 POTCAR:    PAW_PBE N 08Apr2002                   
 POTCAR:    PAW_PBE Fe 06Sep2000                  

 ----------------------------------------------------------------------------- 
|                                                                             |
|           W    W    AA    RRRRR   N    N  II  N    N   GGGG   !!!           |
|           W    W   A  A   R    R  NN   N  II  NN   N  G    G  !!!           |
|           W    W  A    A  R    R  N N  N  II  N N  N  G       !!!           |
|           W WW W  AAAAAA  RRRRR   N  N N  II  N  N N  G  GGG   !            |
|           WW  WW  A    A  R   R   N   NN  II  N   NN  G    G                |
|           W    W  A    A  R    R  N    N  II  N    N   GGGG   !!!           |
|                                                                             |
|      For optimal performance we recommend to set                            |
|        NCORE= 4 - approx SQRT( number of cores)                             |
|      NCORE specifies how many cores store one orbital (NPAR=cpu/NCORE).     |
|      This setting can  greatly improve the performance of VASP for DFT.     |
|      The default,   NCORE=1            might be grossly inefficient         |
|      on modern multi-core architectures or massively parallel machines.     |
|      Do your own testing !!!!                                               |
|      Unfortunately you need to use the default for GW and RPA calculations. |
|      (for HF NCORE is supported but not extensively tested yet)             |
|                                                                             |
 ----------------------------------------------------------------------------- 

 POTCAR:    PAW_PBE C 08Apr2002                   
   VRHFIN =C: s2p2                                                              
   LEXCH  = PE                                                                  
   EATOM  =   147.1560 eV,   10.8157 Ry                                         
                                                                                
   TITEL  = PAW_PBE C 08Apr2002                                                 
   LULTRA =        F    use ultrasoft PP ?                                      
   IUNSCR =        1    unscreen: 0-lin 1-nonlin 2-no                           
   RPACOR =    1.200    partial core radius                                     
   POMASS =   12.011; ZVAL   =    4.000    mass and valenz                      
   RCORE  =    1.500    outmost cutoff radius                                   
   RWIGS  =    1.630; RWIGS  =    0.863    wigner-seitz radius (au A)           
   ENMAX  =  400.000; ENMIN  =  300.000 eV                                      
   ICORE  =        2    local potential                                         
   LCOR   =        T    correct aug charges                                     
   LPAW   =        T    paw PP                                                  
   EAUG   =  644.873                                                            
   DEXC   =    0.000                                                            
   RMAX   =    1.529    core radius for proj-oper                               
   RAUG   =    1.300    factor for augmentation sphere                          
   RDEP   =    1.501    radius for radial grids                                 
   RDEPT  =    1.300    core radius for aug-charge                              
                                                                                
   Atomic configuration                                                         
    4 entries                                                                   
     n  l   j            E        occ.                                          
     1  0  0.50      -273.3789   2.0000                                         
     2  0  0.50       -13.7508   2.0000                                         
     2  1  0.50        -5.2854   2.0000                                         
     3  2  1.50        -5.4423   0.0000                                         
   Description                                                                  
     l       E           TYP  RCUT    TYP  RCUT                                 
     0    -13.7508458     23  1.200                                             
     0     -8.2022199     23  1.200                                             
     1     -5.2854383     23  1.500                                             
     1     34.0145650     23  1.500                                             
     2     -5.4423304      7  1.500                                             
  local pseudopotential read in
  partial core-charges read in
  partial kinetic energy density read in
  atomic valenz-charges read in
  non local Contribution for L=           0  read in
    real space projection operators read in
  non local Contribution for L=           0  read in
    real space projection operators read in
  non local Contribution for L=           1  read in
    real space projection operators read in
  non local Contribution for L=           1  read in
    real space projection operators read in
    PAW grid and wavefunctions read in
 
   number of l-projection  operators is LMAX  =           4
   number of lm-projection operators is LMMAX =           8
 
 POTCAR:    PAW_PBE N 08Apr2002                   
   VRHFIN =N: s2p3                                                              
   LEXCH  = PE                                                                  
   EATOM  =   264.5486 eV,   19.4438 Ry                                         
                                                                                
   TITEL  = PAW_PBE N 08Apr2002                                                 
   LULTRA =        F    use ultrasoft PP ?                                      
   IUNSCR =        1    unscreen: 0-lin 1-nonlin 2-no                           
   RPACOR =    1.200    partial core radius                                     
   POMASS =   14.001; ZVAL   =    5.000    mass and valenz                      
   RCORE  =    1.500    outmost cutoff radius                                   
   RWIGS  =    1.400; RWIGS  =    0.741    wigner-seitz radius (au A)           
   ENMAX  =  400.000; ENMIN  =  300.000 eV                                      
   ICORE  =        2    local potential                                         
   LCOR   =        T    correct aug charges                                     
   LPAW   =        T    paw PP                                                  
   EAUG   =  627.112                                                            
   DEXC   =    0.000                                                            
   RMAX   =    1.529    core radius for proj-oper                               
   RAUG   =    1.300    factor for augmentation sphere                          
   RDEP   =    1.514    radius for radial grids                                 
   RDEPT  =    1.338    core radius for aug-charge                              
                                                                                
   Atomic configuration                                                         
    4 entries                                                                   
     n  l   j            E        occ.                                          
     1  0  0.50      -384.7179   2.0000                                         
     2  0  0.50       -18.5828   2.0000                                         
     2  1  0.50        -7.0898   3.0000                                         
     3  2  1.50        -6.8029   0.0000                                         
   Description                                                                  
     l       E           TYP  RCUT    TYP  RCUT                                 
     0    -18.5828119     23  1.200                                             
     0    -13.5018863     23  1.200                                             
     1     -7.0897853     23  1.500                                             
     1      9.5240782     23  1.500                                             
     2     -6.8029130      7  1.500                                             
  local pseudopotential read in
  partial core-charges read in
  partial kinetic energy density read in
  atomic valenz-charges read in
  non local Contribution for L=           0  read in
    real space projection operators read in
  non local Contribution for L=           0  read in
    real space projection operators read in
  non local Contribution for L=           1  read in
    real space projection operators read in
  non local Contribution for L=           1  read in
    real space projection operators read in
    PAW grid and wavefunctions read in
 
   number of l-projection  operators is LMAX  =           4
   number of lm-projection operators is LMMAX =           8
 
 POTCAR:    PAW_PBE Fe 06Sep2000                  
   VRHFIN =Fe:  d7 s1                                                           
   LEXCH  = PE                                                                  
   EATOM  =   594.3153 eV,   43.6809 Ry                                         
                                                                                
   TITEL  = PAW_PBE Fe 06Sep2000                                                
   LULTRA =        F    use ultrasoft PP ?                                      
   IUNSCR =        1    unscreen: 0-lin 1-nonlin 2-no                           
   RPACOR =    2.000    partial core radius                                     
   POMASS =   55.847; ZVAL   =    8.000    mass and valenz                      
   RCORE  =    2.300    outmost cutoff radius                                   
   RWIGS  =    2.460; RWIGS  =    1.302    wigner-seitz radius (au A)           
   ENMAX  =  267.882; ENMIN  =  200.911 eV                                      
   RCLOC  =    1.701    cutoff for local pot                                    
   LCOR   =        T    correct aug charges                                     
   LPAW   =        T    paw PP                                                  
   EAUG   =  511.368                                                            
   DEXC   =    0.000                                                            
   RMAX   =    2.356    core radius for proj-oper                               
   RAUG   =    1.300    factor for augmentation sphere                          
   RDEP   =    2.442    radius for radial grids                                 
   RDEPT  =    1.890    core radius for aug-charge                              
                                                                                
   Atomic configuration                                                         
    9 entries                                                                   
     n  l   j            E        occ.                                          
     1  0  0.50     -6993.8440   2.0000                                         
     2  0  0.50      -814.6047   2.0000                                         
     2  1  1.50      -693.3689   6.0000                                         
     3  0  0.50       -89.4732   2.0000                                         
     3  1  1.50       -55.6373   6.0000                                         
     3  2  2.50        -3.8151   7.0000                                         
     4  0  0.50        -4.2551   1.0000                                         
     4  1  1.50        -3.4015   0.0000                                         
     4  3  2.50        -1.3606   0.0000                                         
   Description                                                                  
     l       E           TYP  RCUT    TYP  RCUT                                 
     2     -3.8151135     23  2.300                                             
     2     -5.1756961     23  2.300                                             
     0     -4.2550963     23  2.300                                             
     0      7.2035603     23  2.300                                             
     1     -2.7211652     23  2.300                                             
     1     18.4316424     23  2.300                                             
  local pseudopotential read in
  partial core-charges read in
  partial kinetic energy density read in
  atomic valenz-charges read in
  non local Contribution for L=           2  read in
    real space projection operators read in
  non local Contribution for L=           2  read in
    real space projection operators read in
  non local Contribution for L=           0  read in
    real space projection operators read in
  non local Contribution for L=           0  read in
    real space projection operators read in
  non local Contribution for L=           1  read in
    real space projection operators read in
  non local Contribution for L=           1  read in
    real space projection operators read in
    PAW grid and wavefunctions read in
 
   number of l-projection  operators is LMAX  =           6
   number of lm-projection operators is LMMAX =          18
 

 ----------------------------------------------------------------------------- 
|                                                                             |
|  ADVICE TO THIS USER RUNNING 'VASP/VAMP'   (HEAR YOUR MASTER'S VOICE ...):  |
|                                                                             |
|      You have a (more or less) 'large supercell' and for larger cells       |
|      it might be more efficient to use real space projection opertators     |
|      So try LREAL= Auto  in the INCAR   file.                               |
|      Mind:          For very  accurate calculation you might also keep the  |
|      reciprocal projection scheme          (i.e. LREAL=.FALSE.)             |
|                                                                             |
 ----------------------------------------------------------------------------- 

  PAW_PBE C 08Apr2002                   :
 energy of atom  1       EATOM= -147.1560
 kinetic energy error for atom=    0.0076 (will be added to EATOM!!)
  PAW_PBE N 08Apr2002                   :
 energy of atom  2       EATOM= -264.5486
 kinetic energy error for atom=    0.0138 (will be added to EATOM!!)
  PAW_PBE Fe 06Sep2000                  :
 energy of atom  3       EATOM= -594.3153
 kinetic energy error for atom=    0.0026 (will be added to EATOM!!)
 
 
 POSCAR:  C  N Fe                                
  positions in cartesian coordinates
  No initial velocities read in
 exchange correlation table for  LEXCH =        8
   RHO(1)=    0.500       N(1)  =     2000
   RHO(2)=  100.500       N(2)  =     4000

 VTST: version 3.2, (02/03/18)

 CHAIN: initializing optimizer
 
 OPT: Using VASP Conjugate-Gradient optimizer
 CHAIN: Read ICHAIN            0
 
 POSCAR:  C  N Fe                                
  positions in cartesian coordinates
  No initial velocities read in
 


--------------------------------------------------------------------------------------------------------


 ion  position               nearest neighbor table
   1  0.222  0.999  0.501-   3 1.41  17 1.42   4 1.42
   2  0.055  0.099  0.500-  34 1.42   7 1.43   3 1.43
   3  0.110  0.999  0.500-   1 1.41  15 1.43   2 1.43
   4  0.277  0.097  0.500-  19 1.42   5 1.42   1 1.42
   5  0.221  0.195  0.500-   8 1.42   7 1.42   4 1.42
   6  0.055  0.298  0.500-  38 1.42   7 1.44  10 1.44
   7  0.110  0.198  0.500-   5 1.42   2 1.43   6 1.44
   8  0.277  0.293  0.500-  53 1.39   5 1.42  51 1.42  57 2.57
   9  0.062  0.498  0.500-  42 1.45  10 1.45  12 1.47
  10  0.115  0.396  0.500-  53 1.37   6 1.44   9 1.45
  11  0.058  0.699  0.500-  46 1.42  16 1.43  12 1.45
  12  0.118  0.601  0.499-  54 1.38  11 1.45   9 1.47
  13  0.277  0.704  0.500-  54 1.37  14 1.41  25 1.43
  14  0.222  0.802  0.500-  13 1.41  16 1.41  17 1.43
  15  0.056  0.900  0.500-  50 1.41  16 1.43   3 1.43
  16  0.111  0.800  0.500-  14 1.41  15 1.43  11 1.43
  17  0.278  0.901  0.500-  28 1.41   1 1.42  14 1.43
  18  0.556  0.999  0.500-  20 1.41  30 1.42  21 1.43
  19  0.389  0.098  0.500-   4 1.42  20 1.43  23 1.43
  20  0.445  0.999  0.500-  18 1.41  28 1.42  19 1.43
  21  0.611  0.097  0.500-  22 1.41  32 1.41  18 1.43
  22  0.557  0.195  0.500-  55 1.37  21 1.41  23 1.43
  23  0.443  0.198  0.500-  19 1.43  51 1.43  22 1.43
  24  0.556  0.606  0.500-  56 1.39  26 1.42  52 1.42  58 2.57
  25  0.390  0.702  0.500-  29 1.43  52 1.43  13 1.43
  26  0.612  0.704  0.500-  24 1.42  44 1.42  27 1.42
  27  0.556  0.802  0.500-  29 1.42  26 1.42  30 1.42
  28  0.389  0.900  0.500-  17 1.41  20 1.42  29 1.43
  29  0.445  0.801  0.500-  27 1.42  28 1.43  25 1.43
  30  0.612  0.900  0.499-  48 1.41  18 1.42  27 1.42
  31  0.889  1.000  0.500-  33 1.41  34 1.43  50 1.44
  32  0.723  0.099  0.500-  21 1.41  33 1.43  37 1.43
  33  0.778  1.000  0.499-  31 1.41  32 1.43  48 1.43
  34  0.943  0.100  0.500-   2 1.42  31 1.43  35 1.44
  35  0.888  0.200  0.500-  37 1.42  38 1.44  34 1.44
  36  0.716  0.298  0.501-  55 1.38  37 1.45  41 1.47
  37  0.775  0.200  0.500-  35 1.42  32 1.43  36 1.45
  38  0.943  0.300  0.500-   6 1.42  35 1.44  39 1.44
  39  0.886  0.400  0.500-  38 1.44  41 1.45  42 1.46
  40  0.718  0.503  0.501-  56 1.37  45 1.44  41 1.45
  41  0.772  0.401  0.501-  39 1.45  40 1.45  36 1.47
  42  0.947  0.499  0.500-  43 1.44   9 1.45  39 1.46
  43  0.891  0.599  0.500-  45 1.42  46 1.44  42 1.44
  44  0.724  0.701  0.500-  26 1.42  49 1.43  45 1.44
  45  0.779  0.601  0.500-  43 1.42  44 1.44  40 1.44
  46  0.946  0.699  0.500-  11 1.42  43 1.44  47 1.44
  47  0.891  0.799  0.500-  49 1.42  50 1.43  46 1.44
  48  0.723  0.900  0.499-  30 1.41  33 1.43  49 1.43
  49  0.779  0.800  0.500-  47 1.42  44 1.43  48 1.43
  50  0.945  0.900  0.500-  15 1.41  47 1.43  31 1.44
  51  0.390  0.298  0.501-   8 1.42  23 1.43  58 1.98  57 2.50
  52  0.444  0.601  0.500-  24 1.42  25 1.43  57 1.98  58 2.50
  53  0.223  0.389  0.500-  10 1.37   8 1.39  57 1.90
  54  0.226  0.607  0.499-  13 1.37  12 1.38  57 2.02
  55  0.607  0.292  0.501-  22 1.37  36 1.38  58 2.02
  56  0.611  0.511  0.501-  40 1.37  24 1.39  58 1.90
  57  0.335  0.489  0.499-  53 1.90  52 1.98  54 2.02  58 2.30  51 2.50   8 2.57
  58  0.499  0.410  0.501-  56 1.90  51 1.98  55 2.02  57 2.30  52 2.50  24 2.57
 
  LATTYP: Found a triclinic cell.
 ALAT       =    34.4663906621
 B/A-ratio  =     0.3641489509
 C/A-ratio  =     0.5795442928
 COS(alpha) =     0.0000558505
 COS(beta)  =     0.5798833554
 COS(gamma) =     0.7270545882
  
  Lattice vectors:
  
 A1 = (  12.6011152025, -25.1028207590, -19.9747933873)
 A2 = (  -0.0435479530, -12.5508244504,   0.0000000000)
 A3 = (   0.0162111085,  -0.0011718581, -19.9747933873)


Analysis of symmetry for initial positions (statically):
=====================================================================
 Subroutine PRICEL returns:
 Original cell was already a primitive cell.
 

 Routine SETGRP: Setting up the symmetry group for a 
 triclinic supercell.


 Subroutine GETGRP returns: Found  1 space group operations
 (whereof  1 operations were pure point group operations)
 out of a pool of  2 trial point group operations.


The static configuration has the point symmetry C_1 .


Analysis of symmetry for dynamics (positions and initial velocities):
=====================================================================
 Subroutine PRICEL returns:
 Original cell was already a primitive cell.
 

 Routine SETGRP: Setting up the symmetry group for a 
 triclinic supercell.


 Subroutine GETGRP returns: Found  1 space group operations
 (whereof  1 operations were pure point group operations)
 out of a pool of  2 trial point group operations.


The dynamic configuration has the point symmetry C_1 .


Analysis of structural, dynamic, and magnetic symmetry:
=====================================================================
 Subroutine PRICEL returns:
 Original cell was already a primitive cell.
 

 Routine SETGRP: Setting up the symmetry group for a 
 triclinic supercell.


 Subroutine GETGRP returns: Found  1 space group operations
 (whereof  1 operations were pure point group operations)
 out of a pool of  2 trial point group operations.


The magnetic configuration has the point symmetry C_1 .


 Subroutine INISYM returns: Found  1 space group operations
 (whereof  1 operations are pure point group operations),
 and found     1 'primitive' translations

 
 
 KPOINTS: KPOINTS created by Atomic Simulation Env

Automatic generation of k-mesh.
Space group operators:
 irot       det(A)        alpha          n_x          n_y          n_z        tau_x        tau_y        tau_z
    1     1.000000     0.000000     1.000000     0.000000     0.000000     0.000000     0.000000     0.000000
 
 Subroutine IBZKPT returns following result:
 ===========================================
 
 Found      2 irreducible k-points:
 
 Following reciprocal coordinates:
            Coordinates               Weight
  0.250000  0.250000 -0.000000      2.000000
 -0.250000  0.250000  0.000000      2.000000
 
 Following cartesian coordinates:
            Coordinates               Weight
  0.019729  0.019851  0.000015      2.000000
 -0.019729  0.019987 -0.000017      2.000000
 
 
 Subroutine IBZKPT_HF returns following result:
 ==============================================
 
 Found      4 k-points in 1st BZ
 the following      4 k-points will be used (e.g. in the exchange kernel)
 Following reciprocal coordinates:   # in IRBZ
  0.250000  0.250000 -0.000000    0.25000000   1 t-inv F
 -0.250000  0.250000  0.000000    0.25000000   2 t-inv F
 -0.250000 -0.250000  0.000000    0.25000000   1 t-inv T
  0.250000 -0.250000 -0.000000    0.25000000   2 t-inv T


--------------------------------------------------------------------------------------------------------




 Dimension of arrays:
   k-points           NKPTS =      2   k-points in BZ     NKDIM =      4   number of bands    NBANDS=    156
   number of dos      NEDOS =    301   number of ions     NIONS =     58
   non local maximal  LDIM  =      6   non local SUM 2l+1 LMDIM =     18
   total plane-waves  NPLWV = ******
   max r-space proj   IRMAX =      1   max aug-charges    IRDMAX=  15698
   dimension x,y,z NGX =    96 NGY =   96 NGZ =  150
   dimension x,y,z NGXF=   192 NGYF=  192 NGZF=  300
   support grid    NGXF=   192 NGYF=  192 NGZF=  300
   ions per type =              52   4   2
   NGX,Y,Z   is equivalent  to a cutoff of  12.59, 12.72, 12.48 a.u.
   NGXF,Y,Z  is equivalent  to a cutoff of  25.19, 25.43, 24.97 a.u.

 SYSTEM =  unknown system                          
 POSCAR =   C  N Fe                                

 Startparameter for this run:
   NWRITE =      2    write-flag & timer
   PREC   = accura    normal or accurate (medium, high low for compatibility)
   ISTART =      1    job   : 0-new  1-cont  2-samecut
   ICHARG =      0    charge: 1-file 2-atom 10-const
   ISPIN  =      2    spin polarized calculation?
   LNONCOLLINEAR =      F non collinear calculations
   LSORBIT =      F    spin-orbit coupling
   INIWAV =      1    electr: 0-lowe 1-rand  2-diag
   LASPH  =      T    aspherical Exc in radial PAW
   METAGGA=      F    non-selfconsistent MetaGGA calc.

 Electronic Relaxation 1
   ENCUT  =  500.0 eV  36.75 Ry    6.06 a.u.  23.10 22.88 36.42*2*pi/ulx,y,z
   ENINI  =  500.0     initial cutoff
   ENAUG  =  644.9 eV  augmentation charge cutoff
   NELM   =    250;   NELMIN=  2; NELMDL=  0     # of ELM steps 
   EDIFF  = 0.1E-03   stopping-criterion for ELM
   LREAL  =      F    real-space projection
   NLSPLINE    = F    spline interpolate recip. space projectors
   LCOMPAT=      F    compatible to vasp.4.4
   GGA_COMPAT  = T    GGA compatible to vasp.4.4-vasp.4.6
   LMAXPAW     = -100 max onsite density
   LMAXMIX     =    2 max onsite mixed and CHGCAR
   VOSKOWN=      0    Vosko Wilk Nusair interpolation
   ROPT   =    0.00000   0.00000   0.00000
 Ionic relaxation
   EDIFFG = -.3E-01   stopping-criterion for IOM
   NSW    =      0    number of steps for IOM
   NBLOCK =      1;   KBLOCK =      1    inner block; outer block 
   IBRION =     -1    ionic relax: 0-MD 1-quasi-New 2-CG
   NFREE  =      1    steps in history (QN), initial steepest desc. (CG)
   ISIF   =      2    stress and relaxation
   IWAVPR =     10    prediction:  0-non 1-charg 2-wave 3-comb
   ISYM   =      3    0-nonsym 1-usesym 2-fastsym
   LCORR  =      T    Harris-Foulkes like correction to forces

   POTIM  = 0.5000    time-step for ionic-motion
   TEIN   =    0.0    initial temperature
   TEBEG  =    0.0;   TEEND  =   0.0 temperature during run
   SMASS  =  -3.00    Nose mass-parameter (am)
   estimated Nose-frequenzy (Omega)   =  0.10E-29 period in steps =****** mass=  -0.367E-26a.u.
   SCALEE = 1.0000    scale energy and forces
   NPACO  =    256;   APACO  = 16.0  distance and # of slots for P.C.
   PSTRESS=    0.0 pullay stress

  Mass of Ions in am
   POMASS =  12.01 14.00 55.85
  Ionic Valenz
   ZVAL   =   4.00  5.00  8.00
  Atomic Wigner-Seitz radii
   RWIGS  =  -1.00 -1.00 -1.00
  virtual crystal weights 
   VCA    =   1.00  1.00  1.00
   NELECT =     244.0000    total number of electrons
   NUPDOWN=      -1.0000    fix difference up-down

 DOS related values:
   EMIN   =  10.00;   EMAX   =-10.00  energy-range for DOS
   EFERMI =   0.00
   ISMEAR =     0;   SIGMA  =   0.10  broadening in eV -4-tet -1-fermi 0-gaus

 Electronic relaxation 2 (details)
   IALGO  =     53    algorithm
   LDIAG  =      T    sub-space diagonalisation (order eigenvalues)
   LSUBROT=      F    optimize rotation matrix (better conditioning)
   TURBO    =      0    0=normal 1=particle mesh
   IRESTART =      0    0=no restart 2=restart with 2 vectors
   NREBOOT  =      0    no. of reboots
   NMIN     =      0    reboot dimension
   EREF     =   0.00    reference energy to select bands
   IMIX   =      4    mixing-type and parameters
     AMIX     =   0.40;   BMIX     =  1.00
     AMIX_MAG =   1.60;   BMIX_MAG =  1.00
     AMIN     =   0.10
     WC   =   100.;   INIMIX=   1;  MIXPRE=   1;  MAXMIX= -45

 Intra band minimization:
   WEIMIN = 0.0000     energy-eigenvalue tresh-hold
   EBREAK =  0.16E-06  absolut break condition
   DEPER  =   0.30     relativ break condition  

   TIME   =   0.20     timestep for ELM

  volume/ion in A,a.u.               =      54.77       369.63
  Fermi-wavevector in a.u.,A,eV,Ry     =   0.695886  1.315034  6.588724  0.484258
  Thomas-Fermi vector in A             =   1.778783
 
 Write flags
   LWAVE        =      T    write WAVECAR
   LDOWNSAMPLE  =      F    k-point downsampling of WAVECAR
   LCHARG       =      T    write CHGCAR
   LVTOT        =      F    write LOCPOT, total local potential
   LVHAR        =      F    write LOCPOT, Hartree potential only
   LELF         =      F    write electronic localiz. function (ELF)
   LORBIT       =     11    0 simple, 1 ext, 2 COOP (PROOUT), +10 PAW based schemes


 Dipole corrections
   LMONO  =      F    monopole corrections only (constant potential shift)
   LDIPOL =      T    correct potential (dipole corrections)
   IDIPOL =      3    1-x, 2-y, 3-z, 4-all directions 
   EPSILON=  1.0000000 bulk dielectric constant

 Exchange correlation treatment:
   GGA     =    PE    GGA type
   LEXCH   =     8    internal setting for exchange type
   VOSKOWN=      0    Vosko Wilk Nusair interpolation
   EXXOEP  =     0    0=HF, 1=EXX-LHF (local Hartree Fock) 2=EXX OEP
   LHFCALC =     T    Hartree Fock is set to
   LSYMGRAD=     F    symmetrize gradient (conserves proper symmetry)
   PRECFOCK=normal    Normal, Fast or Accurate (Low or Medium for compatibility)
   LRHFCALC=     F    long range Hartree Fock
   LRSCOR  =     F    long range correlation only (use DFT for short range part)
   LTHOMAS =     F    Thomas Fermi screening in HF
   LMODELHF=     F    short range full HF, long range fraction AEXX
   ENCUT4O =  -1.0   cutoff for four orbital integrals eV
   LMAXFOCK=     4    L truncation for augmentation on plane wave grid
   LMAXFOCKAE=  -1    L truncation for all-electron charge restoration on plane wave grid
   NMAXFOCKAE=   1    number of basis functions for all-electron charge restoration
   LFOCKAEDFT=     F  apply the AE augmentation even for DFT
   NKREDX  =     1    reduce k-point grid by
   NKREDY  =     1    reduce k-point grid by
   NKREDZ  =     1    reduce k-point grid by
   SHIFTRED=     F    shift reduced grid of Gamma
   HFKIDENT=     F    idential grid for each k-point
   ODDONLY =     F    use only odd q-grid points
   EVENONLY=     F    use only even q-grid points
   HFALPHA =   -1.0000 decay constant for conv. correction
   MCALPHA =    0.0000 extent of test-charge in conv. correction in multipole expansion
   AEXX    =    0.2500 exact exchange contribution
   HFSCREEN=    0.2000 screening length (either q_TF or 0.3 A-1)
   HFSCREENC=   0.2000 screening length for correlation (either q_TF or 0.3 A-1)
   HFRCUT  =    0.0000 spherical cutoff for potential kernel
   ALDAX   =    0.7500 LDA exchange part
   AGGAX   =    0.7500 GGA exchange part
   ALDAC   =    1.0000 LDA correlation
   AGGAC   =    1.0000 GGA correlation
   ENCUTFOCK=  -1.0 apply spherical cutoff to Coloumb kernel
   NBANDSGWLOW=     1    first orbital included in HF term
   NBLOCK_FOCK=    64    blocking factor in FOCK_ACC
 Linear response parameters
   LEPSILON=     F    determine dielectric tensor
   LRPA    =     F    only Hartree local field effects (RPA)
   LNABLA  =     F    use nabla operator in PAW spheres
   LVEL    =     F    velocity operator in full k-point grid
   LINTERFAST=   F  fast interpolation
   KINTER  =     0    interpolate to denser k-point grid
   CSHIFT  =0.1000    complex shift for real part using Kramers Kronig
   OMEGAMAX=  -1.0    maximum frequency
   DEG_THRESHOLD= 0.2000000E-02 threshold for treating states as degnerate
   RTIME   =   -0.100 relaxation time in fs
  (WPLASMAI=    0.000 imaginary part of plasma frequency in eV, 0.658/RTIME)
   DFIELD  = 0.0000000 0.0000000 0.0000000 field for delta impulse in time
 
 Orbital magnetization related:
   ORBITALMAG=     F  switch on orbital magnetization
   LCHIMAG   =     F  perturbation theory with respect to B field
   DQ        =  0.001000  dq finite difference perturbation B field
   LLRAUG    =     F  two centre corrections for induced B field



--------------------------------------------------------------------------------------------------------


 Static calculation
 charge density and potential will be updated during run
 spin polarized calculation
 Conjugate gradient for all bands (Freysoldt, et al. PRB 79, 241103 (2009))
 perform sub-space diagonalisation
    before iterative eigenvector-optimisation
 modified Broyden-mixing scheme, WC =      100.0
 initial mixing is a Kerker type mixing with AMIX =  0.4000 and BMIX =      1.0000
 Hartree-type preconditioning will be used
 using additional bands           34
 reciprocal scheme for non local part
 use partial core corrections
 no Harris-corrections to forces 
 use gradient corrections 
 use of overlap-Matrix (Vanderbilt PP)
 Gauss-broadening in eV      SIGMA  =   0.10


--------------------------------------------------------------------------------------------------------


  energy-cutoff  :      500.00
  volume of cell :     3176.87
      direct lattice vectors                 reciprocal lattice vectors
    12.672000000  0.000000000  0.000000000     0.078914141 -0.000273811  0.000064061
     0.043547953 12.550824450  0.000000000     0.000000000  0.079676041 -0.000004674
    -0.016211108  0.001171858 19.974793387     0.000000000  0.000000000  0.050063096

  length of vectors
    12.672000000 12.550900000 19.974800000     0.078914642  0.079676041  0.050063096


 
 old parameters found on file WAVECAR:
  energy-cutoff  :      500.00
  volume of cell :     3176.87
      direct lattice vectors                 reciprocal lattice vectors
    12.672000000  0.000000000  0.000000000     0.078914141 -0.000273811  0.000064061
     0.043547953 12.550824450  0.000000000     0.000000000  0.079676041 -0.000004674
    -0.016211108  0.001171858 19.974793387     0.000000000  0.000000000  0.050063096

  length of vectors

 
 k-points in units of 2pi/SCALE and weight: KPOINTS created by Atomic Simulation Env
   0.01972854  0.01985056  0.00001485       0.500
  -0.01972854  0.01998746 -0.00001718       0.500
 
 k-points in reciprocal lattice and weights: KPOINTS created by Atomic Simulation Env
   0.25000000  0.25000000 -0.00000000       0.500
  -0.25000000  0.25000000  0.00000000       0.500
 
 position of ions in fractional coordinates (direct lattice) 
   0.22187973  0.99874201  0.50051789
   0.05455451  0.09891549  0.50009035
   0.11028143  0.99926991  0.50043194
   0.27736227  0.09709445  0.50035776
   0.22142451  0.19519700  0.50021464
   0.05506647  0.29848576  0.49981903
   0.10960408  0.19779933  0.50000257
   0.27745029  0.29268854  0.50030686
   0.06186280  0.49838043  0.49950416
   0.11518386  0.39571539  0.49965939
   0.05826290  0.69931044  0.49995135
   0.11782944  0.60084631  0.49943306
   0.27697941  0.70376678  0.49965069
   0.22244811  0.80173091  0.50025349
   0.05570894  0.89963838  0.50040463
   0.11105608  0.80017205  0.50028298
   0.27773145  0.90050069  0.50046196
   0.55593399  0.99865926  0.49956110
   0.38903704  0.09798718  0.50023564
   0.44454293  0.99885541  0.49995473
   0.61120765  0.09742076  0.49975872
   0.55668537  0.19538926  0.50048637
   0.44348920  0.19754898  0.50047692
   0.55621786  0.60647732  0.50001975
   0.39017357  0.70160880  0.49974953
   0.61223951  0.70396877  0.49994934
   0.55630666  0.80205870  0.49974807
   0.38911666  0.90030335  0.50011999
   0.44462348  0.80117836  0.49990172
   0.61177197  0.90041578  0.49948570
   0.88912297  0.99962170  0.49974893
   0.72261130  0.09898262  0.49964477
   0.77794494  0.99951379  0.49946390
   0.94283953  0.09993537  0.49981719
   0.88750955  0.20029347  0.49984885
   0.71583676  0.29831047  0.50065463
   0.77539433  0.19984694  0.50000632
   0.94262273  0.30027000  0.49992777
   0.88636946  0.40034070  0.50016279
   0.71848874  0.50344328  0.50054603
   0.77179971  0.40077183  0.50061567
   0.94729408  0.49881395  0.49989522
   0.89103993  0.59888753  0.50007967
   0.72406585  0.70135606  0.50006029
   0.77859689  0.60067038  0.50026508
   0.94615292  0.69886423  0.50007879
   0.89082474  0.79922329  0.50005821
   0.72338518  0.89988650  0.49948919
   0.77910135  0.80024286  0.49984489
   0.94453827  0.89953519  0.50008677
   0.38964050  0.29787204  0.50073449
   0.44402350  0.60129387  0.49963817
   0.22280979  0.38856381  0.49984531
   0.22625087  0.60717269  0.49905019
   0.60741576  0.29198484  0.50113231
   0.61086924  0.51060622  0.50053288
   0.33481653  0.48926229  0.49914377
   0.49886243  0.40989829  0.50128758
 
 position of ions in cartesian coordinates  (Angst):
   2.84703913 12.53562223  9.99774153
   0.68751525  1.24205697  9.98920135
   1.43288984 12.54224763  9.99602456
   3.51085159  1.21920175  9.99454287
   2.80628278  2.45046940  9.99168417
   0.70269815  3.74682806  9.98378188
   1.38941109  2.48313054  9.98744809
   3.52048551  3.67406883  9.99352609
   0.79753136  6.25567066  9.97749245
   1.46874245  4.96713997  9.98059313
   0.76065630  8.77750845  9.98642498
   1.51120397  7.54170185  9.97607215
   3.53243076  8.83343881  9.98041939
   2.84566648 10.06297012  9.99246004
   0.73700901 11.29178975  9.99547901
   1.43403839 10.04340517  9.99304919
   3.55051484 11.30261261  9.99662419
   7.08018666 12.53458247  9.97862976
   4.92603518  1.23040605  9.99210356
   5.66864128 12.53704477  9.98649251
   7.74136413  1.22329646  9.98257727
   7.05471241  2.45288278  9.99711176
   5.62038467  2.47998904  9.99692301
   7.06669772  7.61237638  9.98779120
   4.96673156  8.80635449  9.98239366
   7.78085073  8.83597428  9.98638469
   7.07634456 10.06708356  9.98236443
   4.96198512 11.30013542  9.98979344
   5.66105444 10.05603482  9.98543348
   7.78348845 11.30154567  9.97712368
  11.30239626 12.54666207  9.98238158
   9.15314105  1.24289900  9.98030108
   9.89354825 12.54530743  9.97668819
  11.94391197  1.25485696  9.98374517
  11.24714031  2.51443396  9.98437742
   9.07595805  3.74462905 10.00047283
   9.82639426  2.50882983  9.98752302
  11.94988705  3.76922191  9.98595391
  11.24139957  5.02519199  9.99064844
   9.11849883  6.31921483  9.99830344
   9.78958315  5.03060352  9.99969453
  12.01772909  6.26111213  9.98530376
  11.30923141  7.51711824  9.98898817
   9.19779855  8.80318277  9.98860092
   9.88442787  7.53949477  9.99269171
  12.01197702  8.77190827  9.98897053
  11.31522911 10.03149718  9.98855935
   9.19782796 11.29490284  9.97719339
   9.89951818 10.04429339  9.98429837
  12.00025488 11.29049425  9.98912989
   4.94237867  3.73912642 10.00206806
   5.64475123  7.54731925  9.98016924
   2.83226377  4.87738195  9.98430688
   2.88540196  7.62110267  9.96842436
   7.70176389  3.66523776 10.01001426
   7.75505663  6.40911559  9.99804095
   4.25600982  6.14123009  9.97029358
   6.33130851  5.14514886 10.01311588
 


--------------------------------------------------------------------------------------------------------


 k-point  1 :   0.2500 0.2500-0.0000  plane waves:   80662
 k-point  2 :  -0.2500 0.2500 0.0000  plane waves:   80672

 maximum and minimum number of plane-waves per node :      2551     2466

 maximum number of plane-waves:     80672
 maximum index in each direction: 
   IXMAX=   23   IYMAX=   22   IZMAX=   36
   IXMIN=  -23   IYMIN=  -23   IZMIN=  -36


 parallel 3D FFT for wavefunctions:
    minimum data exchange during FFTs selected (reduces bandwidth)
 parallel 3D FFT for charge:
    minimum data exchange during FFTs selected (reduces bandwidth)


 FFT grid for exact exchange (Hartree Fock) 
  NGX = 70; NGY = 70; NGZ =112

 
 Radii for the augmentation spheres in the non-local exchange
 for species   1 augmentation radius   0.874 (default was   0.699)
       energy cutoff for augmentation   2000.0
 for species   2 augmentation radius   0.886 (default was   0.709)
       energy cutoff for augmentation   2000.0
 for species   3 augmentation radius   1.263 (default was   1.010)
       energy cutoff for augmentation   2000.0

 real space projection operators:
  total allocation   :       2453.81 KBytes
  max/ min on nodes  :        108.08         40.57

 Maximum index for augmentation-charges in exchange          130
  SETUP_FOCK is finished

 total amount of memory used by VASP MPI-rank0   162013. kBytes
=======================================================================

   base      :      30000. kBytes
   nonl-proj :       4585. kBytes
   fftplans  :      14250. kBytes
   grid      :      34043. kBytes
   one-center:         62. kBytes
   HF        :         23. kBytes
   nonlr-proj:       1626. kBytes
   wavefun   :      77424. kBytes
 
     INWAV:  cpu time    3.5526: real time    3.5529
 Broyden mixing: mesh for mixing (old mesh)
   NGX = 47   NGY = 45   NGZ = 73
  (NGX  =192   NGY  =192   NGZ  =300)
  gives a total of 154395 points

 charge density for first step will be calculated from the start-wavefunctions


--------------------------------------------------------------------------------------------------------


 Maximum index for augmentation-charges          738 (set IRDMAX)


--------------------------------------------------------------------------------------------------------


 initial charge from wavefunction
 First call to EWALD:  gamma=   0.121
 Maximum number of real-space cells 3x 3x 2
 Maximum number of reciprocal cells 2x 2x 4

    FEWALD:  cpu time    0.0041: real time    0.0041


--------------------------------------- Iteration      1(   1)  ---------------------------------------


    POTLOK:  cpu time    1.3722: real time    1.3729
    SETDIJ:  cpu time    2.1072: real time    2.1075
    TRIAL :  cpu time  528.2926: real time  528.4120
    CORREC:  cpu time    0.0024: real time    0.0027
    CHARGE:  cpu time    1.6848: real time    1.6849
    --------------------------------------------
      LOOP:  cpu time  533.4757: real time  533.5987

 eigenvalue-minimisations  :     0
 total energy-change (2. order) :-0.6085968E+03  (-0.4143426E+00)
 number of electron     243.9999998 magnetization       5.5586148
 augmentation part       14.0977247 magnetization       3.9226662

 DIPCOR: dipole corrections for dipol
 direction  3 min pos     1,
 dipolmoment           0.000000     -0.000000     -0.000243 electrons x Angstroem
 Tr[quadrupol]     -6531.968947

 energy correction for charged system         0.000000 eV
 dipol+quadrupol energy correction            0.000000 eV
 added-field ion interaction          0.000000 eV  (added to PSCEN)


 Free energy of the ion-electron system (eV)
  ---------------------------------------------------
  alpha Z        PSCENC =       101.91181865
  Ewald energy   TEWEN  =     39255.32842196
  -Hartree energ DENC   =    -47717.57730870
  -exchange      EXHF   =       552.39551329
  -V(xc)+E(xc)   XCENC  =       617.04982901
  PAW double counting   =     26388.14496999   -26435.14592320
  entropy T*S    EENTRO =        -0.03376799
  eigenvalues    EBANDS =     -3155.62038340
  atomic energy  EATOM  =      9784.95219456
  ---------------------------------------------------
  free energy    TOTEN  =      -608.59677042 eV

  energy without entropy =     -608.56300243  energy(sigma->0) =     -608.57988643
  exchange ACFDT corr.  =        -0.03146180  see jH, gK, PRB 81, 115126


--------------------------------------------------------------------------------------------------------




--------------------------------------- Iteration      1(   2)  ---------------------------------------


    POTLOK:  cpu time    1.3939: real time    1.3939
    SETDIJ:  cpu time    2.1189: real time    2.1191
    TRIAL :  cpu time  524.4703: real time  524.5824
    CORREC:  cpu time    0.0023: real time    0.0026
    CHARGE:  cpu time    1.6782: real time    1.6783
    --------------------------------------------
      LOOP:  cpu time  529.6673: real time  529.7808

 eigenvalue-minimisations  :     0
 total energy-change (2. order) :-0.3534597E+00  (-0.3883573E+00)
 number of electron     243.9999998 magnetization       5.6115029
 augmentation part       14.0716006 magnetization       4.0100911

 DIPCOR: dipole corrections for dipol
 direction  3 min pos     1,
 dipolmoment          -0.000000      0.000000      0.000085 electrons x Angstroem
 Tr[quadrupol]     -6531.784353

 energy correction for charged system         0.000000 eV
 dipol+quadrupol energy correction            0.000000 eV
 added-field ion interaction          0.000000 eV  (added to PSCEN)


 Free energy of the ion-electron system (eV)
  ---------------------------------------------------
  alpha Z        PSCENC =       101.91181865
  Ewald energy   TEWEN  =     39255.32842196
  -Hartree energ DENC   =    -47701.62702527
  -exchange      EXHF   =       552.24805202
  -V(xc)+E(xc)   XCENC  =       616.68571212
  PAW double counting   =     26512.47593761   -26559.06178560
  entropy T*S    EENTRO =        -0.03085334
  eigenvalues    EBANDS =     -3171.82978817
  atomic energy  EATOM  =      9784.95219456
  ---------------------------------------------------
  free energy    TOTEN  =      -608.95023012 eV

  energy without entropy =     -608.91937678  energy(sigma->0) =     -608.93480345
  exchange ACFDT corr.  =        -0.02830505  see jH, gK, PRB 81, 115126


--------------------------------------------------------------------------------------------------------




--------------------------------------- Iteration      1(   3)  ---------------------------------------


    POTLOK:  cpu time    1.3971: real time    1.3972
    SETDIJ:  cpu time    2.0943: real time    2.0944
    TRIAL :  cpu time  521.0002: real time  521.0979
    CORREC:  cpu time    0.0023: real time    0.0025
    CHARGE:  cpu time    1.6710: real time    1.6711
    --------------------------------------------
      LOOP:  cpu time  526.1677: real time  526.2658

 eigenvalue-minimisations  :     0
 total energy-change (2. order) :-0.3076189E+00  (-0.2379944E+00)
 number of electron     243.9999998 magnetization       5.6754508
 augmentation part       14.0622879 magnetization       4.0884672

 DIPCOR: dipole corrections for dipol
 direction  3 min pos     1,
 dipolmoment           0.000000     -0.000000     -0.000164 electrons x Angstroem
 Tr[quadrupol]     -6531.600223

 energy correction for charged system         0.000000 eV
 dipol+quadrupol energy correction            0.000000 eV
 added-field ion interaction          0.000000 eV  (added to PSCEN)


 Free energy of the ion-electron system (eV)
  ---------------------------------------------------
  alpha Z        PSCENC =       101.91181865
  Ewald energy   TEWEN  =     39255.32842196
  -Hartree energ DENC   =    -47685.63541897
  -exchange      EXHF   =       552.18861694
  -V(xc)+E(xc)   XCENC  =       616.34210999
  PAW double counting   =     26673.65891288   -26719.94867678
  entropy T*S    EENTRO =        -0.02751959
  eigenvalues    EBANDS =     -3188.02497491
  atomic energy  EATOM  =      9784.95219456
  ---------------------------------------------------
  free energy    TOTEN  =      -609.25784903 eV

  energy without entropy =     -609.23032945  energy(sigma->0) =     -609.24408924
  exchange ACFDT corr.  =        -0.02429237  see jH, gK, PRB 81, 115126


--------------------------------------------------------------------------------------------------------




--------------------------------------- Iteration      1(   4)  ---------------------------------------


    POTLOK:  cpu time    1.4017: real time    1.4019
    SETDIJ:  cpu time    2.0882: real time    2.0884
    TRIAL :  cpu time  522.3842: real time  522.4866
    CORREC:  cpu time    0.0019: real time    0.0022
    CHARGE:  cpu time    1.6722: real time    1.6724
    --------------------------------------------
      LOOP:  cpu time  527.5511: real time  527.6544

 eigenvalue-minimisations  :     0
 total energy-change (2. order) :-0.1905092E+00  (-0.1545219E+00)
 number of electron     243.9999998 magnetization       5.7447439
 augmentation part       14.0646731 magnetization       4.1480027

 DIPCOR: dipole corrections for dipol
 direction  3 min pos     1,
 dipolmoment           0.000000     -0.000000     -0.000108 electrons x Angstroem
 Tr[quadrupol]     -6531.522888

 energy correction for charged system         0.000000 eV
 dipol+quadrupol energy correction            0.000000 eV
 added-field ion interaction          0.000000 eV  (added to PSCEN)


 Free energy of the ion-electron system (eV)
  ---------------------------------------------------
  alpha Z        PSCENC =       101.91181865
  Ewald energy   TEWEN  =     39255.32842196
  -Hartree energ DENC   =    -47678.21380314
  -exchange      EXHF   =       552.34029967
  -V(xc)+E(xc)   XCENC  =       616.22345554
  PAW double counting   =     26815.94464587   -26862.20745592
  entropy T*S    EENTRO =        -0.02372661
  eigenvalues    EBANDS =     -3195.70041583
  atomic energy  EATOM  =      9784.95219456
  ---------------------------------------------------
  free energy    TOTEN  =      -609.44835823 eV

  energy without entropy =     -609.42463163  energy(sigma->0) =     -609.43649493
  exchange ACFDT corr.  =        -0.02065920  see jH, gK, PRB 81, 115126


--------------------------------------------------------------------------------------------------------




--------------------------------------- Iteration      1(   5)  ---------------------------------------


    POTLOK:  cpu time    1.4002: real time    1.4002
    SETDIJ:  cpu time    2.0970: real time    2.0970
    TRIAL :  cpu time  521.7736: real time  521.8829
    CORREC:  cpu time    0.0023: real time    0.0026
    CHARGE:  cpu time    1.6681: real time    1.6682
    --------------------------------------------
      LOOP:  cpu time  526.9435: real time  527.0532

 eigenvalue-minimisations  :     0
 total energy-change (2. order) :-0.1308385E+00  (-0.1157378E+00)
 number of electron     243.9999998 magnetization       5.8109334
 augmentation part       14.0700304 magnetization       4.1900782

 DIPCOR: dipole corrections for dipol
 direction  3 min pos     1,
 dipolmoment           0.000000     -0.000000     -0.000094 electrons x Angstroem
 Tr[quadrupol]     -6531.540815

 energy correction for charged system         0.000000 eV
 dipol+quadrupol energy correction            0.000000 eV
 added-field ion interaction          0.000000 eV  (added to PSCEN)


 Free energy of the ion-electron system (eV)
  ---------------------------------------------------
  alpha Z        PSCENC =       101.91181865
  Ewald energy   TEWEN  =     39255.32842196
  -Hartree energ DENC   =    -47678.52065573
  -exchange      EXHF   =       552.64483557
  -V(xc)+E(xc)   XCENC  =       616.30125507
  PAW double counting   =     26920.72849928   -26967.10571539
  entropy T*S    EENTRO =        -0.01956836
  eigenvalues    EBANDS =     -3195.79612410
  atomic energy  EATOM  =      9784.95219456
  ---------------------------------------------------
  free energy    TOTEN  =      -609.57919674 eV

  energy without entropy =     -609.55962838  energy(sigma->0) =     -609.56941256
  exchange ACFDT corr.  =        -0.01712302  see jH, gK, PRB 81, 115126


--------------------------------------------------------------------------------------------------------




--------------------------------------- Iteration      1(   6)  ---------------------------------------


    POTLOK:  cpu time    1.3951: real time    1.3953
    SETDIJ:  cpu time    2.1209: real time    2.1209
    TRIAL :  cpu time  522.7932: real time  522.8981
    CORREC:  cpu time    0.0022: real time    0.0022
    CHARGE:  cpu time    1.6802: real time    1.6805
    --------------------------------------------
      LOOP:  cpu time  527.9948: real time  528.1001

 eigenvalue-minimisations  :     0
 total energy-change (2. order) :-0.1011409E+00  (-0.8978747E-01)
 number of electron     243.9999998 magnetization       5.8670428
 augmentation part       14.0748214 magnetization       4.2194718

 DIPCOR: dipole corrections for dipol
 direction  3 min pos     1,
 dipolmoment           0.000000     -0.000000     -0.000182 electrons x Angstroem
 Tr[quadrupol]     -6531.594061

 energy correction for charged system         0.000000 eV
 dipol+quadrupol energy correction            0.000000 eV
 added-field ion interaction          0.000000 eV  (added to PSCEN)


 Free energy of the ion-electron system (eV)
  ---------------------------------------------------
  alpha Z        PSCENC =       101.91181865
  Ewald energy   TEWEN  =     39255.32842196
  -Hartree energ DENC   =    -47681.96588674
  -exchange      EXHF   =       552.97978242
  -V(xc)+E(xc)   XCENC  =       616.45479733
  PAW double counting   =     26989.14282587   -27035.64172916
  entropy T*S    EENTRO =        -0.01537372
  eigenvalues    EBANDS =     -3192.82299418
  atomic energy  EATOM  =      9784.95219456
  ---------------------------------------------------
  free energy    TOTEN  =      -609.68033765 eV

  energy without entropy =     -609.66496394  energy(sigma->0) =     -609.67265079
  exchange ACFDT corr.  =        -0.01353330  see jH, gK, PRB 81, 115126


--------------------------------------------------------------------------------------------------------




--------------------------------------- Iteration      1(   7)  ---------------------------------------


    POTLOK:  cpu time    1.3974: real time    1.3974
    SETDIJ:  cpu time    2.0840: real time    2.0841
    TRIAL :  cpu time  521.4619: real time  521.5671
    CORREC:  cpu time    0.0023: real time    0.0025
    CHARGE:  cpu time    1.6689: real time    1.6690
    --------------------------------------------
      LOOP:  cpu time  526.6170: real time  526.7226

 eigenvalue-minimisations  :     0
 total energy-change (2. order) :-0.7957746E-01  (-0.7025068E-01)
 number of electron     243.9999998 magnetization       5.9105728
 augmentation part       14.0786529 magnetization       4.2409214

 DIPCOR: dipole corrections for dipol
 direction  3 min pos     1,
 dipolmoment           0.000000     -0.000000     -0.000218 electrons x Angstroem
 Tr[quadrupol]     -6531.641270

 energy correction for charged system         0.000000 eV
 dipol+quadrupol energy correction            0.000000 eV
 added-field ion interaction          0.000000 eV  (added to PSCEN)


 Free energy of the ion-electron system (eV)
  ---------------------------------------------------
  alpha Z        PSCENC =       101.91181865
  Ewald energy   TEWEN  =     39255.32842196
  -Hartree energ DENC   =    -47685.33607002
  -exchange      EXHF   =       553.26616768
  -V(xc)+E(xc)   XCENC  =       616.59839004
  PAW double counting   =     27029.99657128   -27076.58910174
  entropy T*S    EENTRO =        -0.01150488
  eigenvalues    EBANDS =     -3189.87293381
  atomic energy  EATOM  =      9784.95219456
  ---------------------------------------------------
  free energy    TOTEN  =      -609.75991511 eV

  energy without entropy =     -609.74841024  energy(sigma->0) =     -609.75416268
  exchange ACFDT corr.  =        -0.01008489  see jH, gK, PRB 81, 115126


--------------------------------------------------------------------------------------------------------




--------------------------------------- Iteration      1(   8)  ---------------------------------------


    POTLOK:  cpu time    1.3972: real time    1.4032
    SETDIJ:  cpu time    2.0849: real time    2.0851
    TRIAL :  cpu time  522.5972: real time  522.7167
    CORREC:  cpu time    0.0021: real time    0.0021
    CHARGE:  cpu time    1.6660: real time    1.6662
    --------------------------------------------
      LOOP:  cpu time  527.7507: real time  527.8765

 eigenvalue-minimisations  :     0
 total energy-change (2. order) :-0.6285410E-01  (-0.5545297E-01)
 number of electron     243.9999998 magnetization       5.9423132
 augmentation part       14.0817867 magnetization       4.2577836

 DIPCOR: dipole corrections for dipol
 direction  3 min pos     1,
 dipolmoment           0.000000     -0.000000     -0.000198 electrons x Angstroem
 Tr[quadrupol]     -6531.668876

 energy correction for charged system         0.000000 eV
 dipol+quadrupol energy correction            0.000000 eV
 added-field ion interaction          0.000000 eV  (added to PSCEN)


 Free energy of the ion-electron system (eV)
  ---------------------------------------------------
  alpha Z        PSCENC =       101.91181865
  Ewald energy   TEWEN  =     39255.32842196
  -Hartree energ DENC   =    -47687.46731080
  -exchange      EXHF   =       553.48116027
  -V(xc)+E(xc)   XCENC  =       616.70102467
  PAW double counting   =     27052.53498421   -27099.20344725
  entropy T*S    EENTRO =        -0.00820238
  eigenvalues    EBANDS =     -3188.05011061
  atomic energy  EATOM  =      9784.95219456
  ---------------------------------------------------
  free energy    TOTEN  =      -609.82276921 eV

  energy without entropy =     -609.81456683  energy(sigma->0) =     -609.81866802
  exchange ACFDT corr.  =        -0.00708037  see jH, gK, PRB 81, 115126


--------------------------------------------------------------------------------------------------------




--------------------------------------- Iteration      1(   9)  ---------------------------------------


    POTLOK:  cpu time    1.3889: real time    1.3889
    SETDIJ:  cpu time    2.0937: real time    2.0939
    TRIAL :  cpu time  523.3329: real time  523.4724
    CORREC:  cpu time    0.0021: real time    0.0024
    CHARGE:  cpu time    1.6718: real time    1.6720
    --------------------------------------------
      LOOP:  cpu time  528.4923: real time  528.6324

 eigenvalue-minimisations  :     0
 total energy-change (2. order) :-0.4989352E-01  (-0.4380918E-01)
 number of electron     243.9999998 magnetization       5.9642386
 augmentation part       14.0843437 magnetization       4.2717025

 DIPCOR: dipole corrections for dipol
 direction  3 min pos     1,
 dipolmoment           0.000000     -0.000000     -0.000183 electrons x Angstroem
 Tr[quadrupol]     -6531.679873

 energy correction for charged system         0.000000 eV
 dipol+quadrupol energy correction            0.000000 eV
 added-field ion interaction          0.000000 eV  (added to PSCEN)


 Free energy of the ion-electron system (eV)
  ---------------------------------------------------
  alpha Z        PSCENC =       101.91181865
  Ewald energy   TEWEN  =     39255.32842196
  -Hartree energ DENC   =    -47688.43565288
  -exchange      EXHF   =       553.63520819
  -V(xc)+E(xc)   XCENC  =       616.76564660
  PAW double counting   =     27064.16713884   -27110.90456257
  entropy T*S    EENTRO =        -0.00557916
  eigenvalues    EBANDS =     -3187.28467370
  atomic energy  EATOM  =      9784.95219456
  ---------------------------------------------------
  free energy    TOTEN  =      -609.87266273 eV

  energy without entropy =     -609.86708357  energy(sigma->0) =     -609.86987315
  exchange ACFDT corr.  =        -0.00468996  see jH, gK, PRB 81, 115126


--------------------------------------------------------------------------------------------------------




--------------------------------------- Iteration      1(  10)  ---------------------------------------


    POTLOK:  cpu time    1.3885: real time    1.3887
    SETDIJ:  cpu time    2.0888: real time    2.0888
    TRIAL :  cpu time  523.1020: real time  523.2279
    CORREC:  cpu time    0.0022: real time    0.0024
    CHARGE:  cpu time    1.6678: real time    1.6688
    --------------------------------------------
      LOOP:  cpu time  528.2521: real time  528.3795

 eigenvalue-minimisations  :     0
 total energy-change (2. order) :-0.3955264E-01  (-0.3448638E-01)
 number of electron     243.9999998 magnetization       5.9785363
 augmentation part       14.0864084 magnetization       4.2832268

 DIPCOR: dipole corrections for dipol
 direction  3 min pos     1,
 dipolmoment           0.000000     -0.000000     -0.000186 electrons x Angstroem
 Tr[quadrupol]     -6531.682127

 energy correction for charged system         0.000000 eV
 dipol+quadrupol energy correction            0.000000 eV
 added-field ion interaction          0.000000 eV  (added to PSCEN)


 Free energy of the ion-electron system (eV)
  ---------------------------------------------------
  alpha Z        PSCENC =       101.91181865
  Ewald energy   TEWEN  =     39255.32842196
  -Hartree energ DENC   =    -47688.72577032
  -exchange      EXHF   =       553.74857515
  -V(xc)+E(xc)   XCENC  =       616.80624698
  PAW double counting   =     27069.80081476   -27116.60212447
  entropy T*S    EENTRO =        -0.00364525
  eigenvalues    EBANDS =     -3187.12681347
  atomic energy  EATOM  =      9784.95219456
  ---------------------------------------------------
  free energy    TOTEN  =      -609.91221537 eV

  energy without entropy =     -609.90857012  energy(sigma->0) =     -609.91039275
  exchange ACFDT corr.  =        -0.00294332  see jH, gK, PRB 81, 115126


--------------------------------------------------------------------------------------------------------




--------------------------------------- Iteration      1(  11)  ---------------------------------------


    POTLOK:  cpu time    1.3828: real time    1.3830
    SETDIJ:  cpu time    2.0915: real time    2.0916
    TRIAL :  cpu time  523.4096: real time  523.5369
    CORREC:  cpu time    0.0020: real time    0.0023
    CHARGE:  cpu time    1.6834: real time    1.6846
    --------------------------------------------
      LOOP:  cpu time  528.5719: real time  528.7010

 eigenvalue-minimisations  :     0
 total energy-change (2. order) :-0.3125490E-01  (-0.2710619E-01)
 number of electron     243.9999998 magnetization       5.9873394
 augmentation part       14.0881447 magnetization       4.2926062

 DIPCOR: dipole corrections for dipol
 direction  3 min pos     1,
 dipolmoment           0.000000     -0.000000     -0.000193 electrons x Angstroem
 Tr[quadrupol]     -6531.681954

 energy correction for charged system         0.000000 eV
 dipol+quadrupol energy correction            0.000000 eV
 added-field ion interaction          0.000000 eV  (added to PSCEN)


 Free energy of the ion-electron system (eV)
  ---------------------------------------------------
  alpha Z        PSCENC =       101.91181865
  Ewald energy   TEWEN  =     39255.32842196
  -Hartree energ DENC   =    -47688.77714004
  -exchange      EXHF   =       553.83848623
  -V(xc)+E(xc)   XCENC  =       616.83541595
  PAW double counting   =     27072.43854425   -27119.29624510
  entropy T*S    EENTRO =        -0.00232034
  eigenvalues    EBANDS =     -3187.17132148
  atomic energy  EATOM  =      9784.95219456
  ---------------------------------------------------
  free energy    TOTEN  =      -609.94347027 eV

  energy without entropy =     -609.94114993  energy(sigma->0) =     -609.94231010
  exchange ACFDT corr.  =        -0.00176865  see jH, gK, PRB 81, 115126


--------------------------------------------------------------------------------------------------------




--------------------------------------- Iteration      1(  12)  ---------------------------------------


    POTLOK:  cpu time    1.3853: real time    1.3855
    SETDIJ:  cpu time    2.0880: real time    2.0882
    TRIAL :  cpu time  523.0361: real time  523.1645
    CORREC:  cpu time    0.0020: real time    0.0020
    CHARGE:  cpu time    1.6783: real time    1.6784
    --------------------------------------------
      LOOP:  cpu time  528.1926: real time  528.3215

 eigenvalue-minimisations  :     0
 total energy-change (2. order) :-0.2467836E-01  (-0.2128877E-01)
 number of electron     243.9999998 magnetization       5.9925169
 augmentation part       14.0897022 magnetization       4.3000412

 DIPCOR: dipole corrections for dipol
 direction  3 min pos     1,
 dipolmoment           0.000000     -0.000000     -0.000196 electrons x Angstroem
 Tr[quadrupol]     -6531.682222

 energy correction for charged system         0.000000 eV
 dipol+quadrupol energy correction            0.000000 eV
 added-field ion interaction          0.000000 eV  (added to PSCEN)


 Free energy of the ion-electron system (eV)
  ---------------------------------------------------
  alpha Z        PSCENC =       101.91181865
  Ewald energy   TEWEN  =     39255.32842196
  -Hartree energ DENC   =    -47688.81986845
  -exchange      EXHF   =       553.91475253
  -V(xc)+E(xc)   XCENC  =       616.85997525
  PAW double counting   =     27073.90942526   -27120.81501219
  entropy T*S    EENTRO =        -0.00146626
  eigenvalues    EBANDS =     -3187.20753585
  atomic energy  EATOM  =      9784.95219456
  ---------------------------------------------------
  free energy    TOTEN  =      -609.96814863 eV

  energy without entropy =     -609.96668237  energy(sigma->0) =     -609.96741550
  exchange ACFDT corr.  =        -0.00103655  see jH, gK, PRB 81, 115126


--------------------------------------------------------------------------------------------------------




--------------------------------------- Iteration      1(  13)  ---------------------------------------


    POTLOK:  cpu time    1.3787: real time    1.3790
    SETDIJ:  cpu time    2.1149: real time    2.1166
    TRIAL :  cpu time  523.3280: real time  523.4988
    CORREC:  cpu time    0.0018: real time    0.0021
    CHARGE:  cpu time    1.6712: real time    1.6712
    --------------------------------------------
      LOOP:  cpu time  528.4975: real time  528.6707

 eigenvalue-minimisations  :     0
 total energy-change (2. order) :-0.1947476E-01  (-0.1672365E-01)
 number of electron     243.9999998 magnetization       5.9954852
 augmentation part       14.0911660 magnetization       4.3058168

 DIPCOR: dipole corrections for dipol
 direction  3 min pos     1,
 dipolmoment           0.000000     -0.000000     -0.000200 electrons x Angstroem
 Tr[quadrupol]     -6531.683313

 energy correction for charged system         0.000000 eV
 dipol+quadrupol energy correction            0.000000 eV
 added-field ion interaction          0.000000 eV  (added to PSCEN)


 Free energy of the ion-electron system (eV)
  ---------------------------------------------------
  alpha Z        PSCENC =       101.91181865
  Ewald energy   TEWEN  =     39255.32842196
  -Hartree energ DENC   =    -47688.90767392
  -exchange      EXHF   =       553.98111165
  -V(xc)+E(xc)   XCENC  =       616.88187220
  PAW double counting   =     27075.24691848   -27122.19290293
  entropy T*S    EENTRO =        -0.00093706
  eigenvalues    EBANDS =     -3187.18791777
  atomic energy  EATOM  =      9784.95219456
  ---------------------------------------------------
  free energy    TOTEN  =      -609.98762339 eV

  energy without entropy =     -609.98668633  energy(sigma->0) =     -609.98715486
  exchange ACFDT corr.  =        -0.00060607  see jH, gK, PRB 81, 115126


--------------------------------------------------------------------------------------------------------




--------------------------------------- Iteration      1(  14)  ---------------------------------------


    POTLOK:  cpu time    1.3781: real time    1.3785
    SETDIJ:  cpu time    2.0856: real time    2.0859
    TRIAL :  cpu time  523.5008: real time  523.6420
    CORREC:  cpu time    0.0020: real time    0.0023
    CHARGE:  cpu time    1.6715: real time    1.6715
    --------------------------------------------
      LOOP:  cpu time  528.6405: real time  528.7828

 eigenvalue-minimisations  :     0
 total energy-change (2. order) :-0.1536892E-01  (-0.1314720E-01)
 number of electron     243.9999998 magnetization       5.9971808
 augmentation part       14.0924889 magnetization       4.3102654

 DIPCOR: dipole corrections for dipol
 direction  3 min pos     1,
 dipolmoment           0.000000     -0.000000     -0.000209 electrons x Angstroem
 Tr[quadrupol]     -6531.684762

 energy correction for charged system         0.000000 eV
 dipol+quadrupol energy correction            0.000000 eV
 added-field ion interaction          0.000000 eV  (added to PSCEN)


 Free energy of the ion-electron system (eV)
  ---------------------------------------------------
  alpha Z        PSCENC =       101.91181865
  Ewald energy   TEWEN  =     39255.32842196
  -Hartree energ DENC   =    -47689.02117977
  -exchange      EXHF   =       554.03875878
  -V(xc)+E(xc)   XCENC  =       616.90105032
  PAW double counting   =     27076.89480205   -27123.87565200
  entropy T*S    EENTRO =        -0.00061446
  eigenvalues    EBANDS =     -3187.13226980
  atomic energy  EATOM  =      9784.95219456
  ---------------------------------------------------
  free energy    TOTEN  =      -610.00299231 eV

  energy without entropy =     -610.00237784  energy(sigma->0) =     -610.00268508
  exchange ACFDT corr.  =        -0.00036110  see jH, gK, PRB 81, 115126


--------------------------------------------------------------------------------------------------------




--------------------------------------- Iteration      1(  15)  ---------------------------------------


    POTLOK:  cpu time    1.3768: real time    1.3768
    SETDIJ:  cpu time    2.0927: real time    2.0929
    TRIAL :  cpu time  522.8324: real time  522.9522
    CORREC:  cpu time    0.0019: real time    0.0022
    CHARGE:  cpu time    1.6727: real time    1.6730
    --------------------------------------------
      LOOP:  cpu time  527.9791: real time  528.0996

 eigenvalue-minimisations  :     0
 total energy-change (2. order) :-0.1212993E-01  (-0.1035733E-01)
 number of electron     243.9999998 magnetization       5.9981632
 augmentation part       14.0936643 magnetization       4.3136557

 DIPCOR: dipole corrections for dipol
 direction  3 min pos     1,
 dipolmoment           0.000000     -0.000000     -0.000216 electrons x Angstroem
 Tr[quadrupol]     -6531.686196

 energy correction for charged system         0.000000 eV
 dipol+quadrupol energy correction            0.000000 eV
 added-field ion interaction          0.000000 eV  (added to PSCEN)


 Free energy of the ion-electron system (eV)
  ---------------------------------------------------
  alpha Z        PSCENC =       101.91181865
  Ewald energy   TEWEN  =     39255.32842196
  -Hartree energ DENC   =    -47689.13289333
  -exchange      EXHF   =       554.08850100
  -V(xc)+E(xc)   XCENC  =       616.91733195
  PAW double counting   =     27078.89877055   -27125.90962339
  entropy T*S    EENTRO =        -0.00041722
  eigenvalues    EBANDS =     -3187.06902971
  atomic energy  EATOM  =      9784.95219456
  ---------------------------------------------------
  free energy    TOTEN  =      -610.01512223 eV

  energy without entropy =     -610.01470501  energy(sigma->0) =     -610.01491362
  exchange ACFDT corr.  =        -0.00022269  see jH, gK, PRB 81, 115126


--------------------------------------------------------------------------------------------------------




--------------------------------------- Iteration      1(  16)  ---------------------------------------


    POTLOK:  cpu time    1.3754: real time    1.3755
    SETDIJ:  cpu time    2.0888: real time    2.0889
    TRIAL :  cpu time  522.7089: real time  522.7778
    CORREC:  cpu time    0.0018: real time    0.0021
    CHARGE:  cpu time    1.6726: real time    1.6726
    --------------------------------------------
      LOOP:  cpu time  527.8501: real time  527.9194

 eigenvalue-minimisations  :     0
 total energy-change (2. order) :-0.9587367E-02  (-0.8167914E-02)
 number of electron     243.9999998 magnetization       5.9987470
 augmentation part       14.0946311 magnetization       4.3162790

 DIPCOR: dipole corrections for dipol
 direction  3 min pos     1,
 dipolmoment           0.000000     -0.000000     -0.000221 electrons x Angstroem
 Tr[quadrupol]     -6531.687544

 energy correction for charged system         0.000000 eV
 dipol+quadrupol energy correction            0.000000 eV
 added-field ion interaction          0.000000 eV  (added to PSCEN)


 Free energy of the ion-electron system (eV)
  ---------------------------------------------------
  alpha Z        PSCENC =       101.91181865
  Ewald energy   TEWEN  =     39255.32842196
  -Hartree energ DENC   =    -47689.23847550
  -exchange      EXHF   =       554.13164283
  -V(xc)+E(xc)   XCENC  =       616.93115417
  PAW double counting   =     27081.09220711   -27128.12918047
  entropy T*S    EENTRO =        -0.00029465
  eigenvalues    EBANDS =     -3187.00407568
  atomic energy  EATOM  =      9784.95219456
  ---------------------------------------------------
  free energy    TOTEN  =      -610.02470960 eV

  energy without entropy =     -610.02441495  energy(sigma->0) =     -610.02456228
  exchange ACFDT corr.  =        -0.00014347  see jH, gK, PRB 81, 115126


--------------------------------------------------------------------------------------------------------




--------------------------------------- Iteration      1(  17)  ---------------------------------------


    POTLOK:  cpu time    1.3732: real time    1.3733
    SETDIJ:  cpu time    2.0888: real time    2.0889
    TRIAL :  cpu time  523.0471: real time  523.1174
    CORREC:  cpu time    0.0019: real time    0.0021
    CHARGE:  cpu time    1.6741: real time    1.6743
    --------------------------------------------
      LOOP:  cpu time  528.1881: real time  528.2591

 eigenvalue-minimisations  :     0
 total energy-change (2. order) :-0.7580953E-02  (-0.6445283E-02)
 number of electron     243.9999998 magnetization       5.9991049
 augmentation part       14.0954055 magnetization       4.3183576

 DIPCOR: dipole corrections for dipol
 direction  3 min pos     1,
 dipolmoment           0.000000     -0.000000     -0.000223 electrons x Angstroem
 Tr[quadrupol]     -6531.688691

 energy correction for charged system         0.000000 eV
 dipol+quadrupol energy correction            0.000000 eV
 added-field ion interaction          0.000000 eV  (added to PSCEN)


 Free energy of the ion-electron system (eV)
  ---------------------------------------------------
  alpha Z        PSCENC =       101.91181865
  Ewald energy   TEWEN  =     39255.32842196
  -Hartree energ DENC   =    -47689.33065979
  -exchange      EXHF   =       554.16920089
  -V(xc)+E(xc)   XCENC  =       616.94296955
  PAW double counting   =     27083.22984532   -27130.28861870
  entropy T*S    EENTRO =        -0.00021671
  eigenvalues    EBANDS =     -3186.94716835
  atomic energy  EATOM  =      9784.95219456
  ---------------------------------------------------
  free energy    TOTEN  =      -610.03229055 eV

  energy without entropy =     -610.03207385  energy(sigma->0) =     -610.03218220
  exchange ACFDT corr.  =        -0.00009696  see jH, gK, PRB 81, 115126


--------------------------------------------------------------------------------------------------------




--------------------------------------- Iteration      1(  18)  ---------------------------------------


    POTLOK:  cpu time    1.3716: real time    1.3717
    SETDIJ:  cpu time    2.0893: real time    2.0894
    TRIAL :  cpu time  522.9495: real time  523.0239
    CORREC:  cpu time    0.0018: real time    0.0021
    CHARGE:  cpu time    1.6704: real time    1.6705
    --------------------------------------------
      LOOP:  cpu time  528.0849: real time  528.1598

 eigenvalue-minimisations  :     0
 total energy-change (2. order) :-0.5996041E-02  (-0.5088042E-02)
 number of electron     243.9999998 magnetization       5.9993316
 augmentation part       14.0960506 magnetization       4.3200447

 DIPCOR: dipole corrections for dipol
 direction  3 min pos     1,
 dipolmoment           0.000000     -0.000000     -0.000226 electrons x Angstroem
 Tr[quadrupol]     -6531.689568

 energy correction for charged system         0.000000 eV
 dipol+quadrupol energy correction            0.000000 eV
 added-field ion interaction          0.000000 eV  (added to PSCEN)


 Free energy of the ion-electron system (eV)
  ---------------------------------------------------
  alpha Z        PSCENC =       101.91181865
  Ewald energy   TEWEN  =     39255.32842196
  -Hartree energ DENC   =    -47689.40668244
  -exchange      EXHF   =       554.20194151
  -V(xc)+E(xc)   XCENC  =       616.95315153
  PAW double counting   =     27085.15151032   -27132.22827782
  entropy T*S    EENTRO =        -0.00016584
  eigenvalues    EBANDS =     -3186.90214815
  atomic energy  EATOM  =      9784.95219456
  ---------------------------------------------------
  free energy    TOTEN  =      -610.03828660 eV

  energy without entropy =     -610.03812076  energy(sigma->0) =     -610.03820368
  exchange ACFDT corr.  =        -0.00006878  see jH, gK, PRB 81, 115126


--------------------------------------------------------------------------------------------------------




--------------------------------------- Iteration      1(  19)  ---------------------------------------


    POTLOK:  cpu time    1.3708: real time    1.3710
    SETDIJ:  cpu time    2.0858: real time    2.0859
    TRIAL :  cpu time  523.4198: real time  523.4827
    CORREC:  cpu time    0.0019: real time    0.0022
    CHARGE:  cpu time    1.6754: real time    1.6754
    --------------------------------------------
      LOOP:  cpu time  528.5568: real time  528.6202

 eigenvalue-minimisations  :     0
 total energy-change (2. order) :-0.4743280E-02  (-0.4020720E-02)
 number of electron     243.9999998 magnetization       5.9994798
 augmentation part       14.0966082 magnetization       4.3214178

 DIPCOR: dipole corrections for dipol
 direction  3 min pos     1,
 dipolmoment           0.000000     -0.000000     -0.000229 electrons x Angstroem
 Tr[quadrupol]     -6531.690204

 energy correction for charged system         0.000000 eV
 dipol+quadrupol energy correction            0.000000 eV
 added-field ion interaction          0.000000 eV  (added to PSCEN)


 Free energy of the ion-electron system (eV)
  ---------------------------------------------------
  alpha Z        PSCENC =       101.91181865
  Ewald energy   TEWEN  =     39255.32842196
  -Hartree energ DENC   =    -47689.46844795
  -exchange      EXHF   =       554.23044208
  -V(xc)+E(xc)   XCENC  =       616.96197740
  PAW double counting   =     27086.79437063   -27133.88657675
  entropy T*S    EENTRO =        -0.00013174
  eigenvalues    EBANDS =     -3186.86706461
  atomic energy  EATOM  =      9784.95219456
  ---------------------------------------------------
  free energy    TOTEN  =      -610.04302988 eV

  energy without entropy =     -610.04289813  energy(sigma->0) =     -610.04296400
  exchange ACFDT corr.  =        -0.00005113  see jH, gK, PRB 81, 115126


--------------------------------------------------------------------------------------------------------




--------------------------------------- Iteration      1(  20)  ---------------------------------------


    POTLOK:  cpu time    1.3677: real time    1.3678
    SETDIJ:  cpu time    2.0955: real time    2.0957
    TRIAL :  cpu time  522.7535: real time  522.8149
    CORREC:  cpu time    0.0018: real time    0.0021
    CHARGE:  cpu time    1.6767: real time    1.6768
    --------------------------------------------
      LOOP:  cpu time  527.8978: real time  527.9598

 eigenvalue-minimisations  :     0
 total energy-change (2. order) :-0.3755412E-02  (-0.3182737E-02)
 number of electron     243.9999998 magnetization       5.9995797
 augmentation part       14.0970897 magnetization       4.3225108

 DIPCOR: dipole corrections for dipol
 direction  3 min pos     1,
 dipolmoment           0.000000     -0.000000     -0.000231 electrons x Angstroem
 Tr[quadrupol]     -6531.690688

 energy correction for charged system         0.000000 eV
 dipol+quadrupol energy correction            0.000000 eV
 added-field ion interaction          0.000000 eV  (added to PSCEN)


 Free energy of the ion-electron system (eV)
  ---------------------------------------------------
  alpha Z        PSCENC =       101.91181865
  Ewald energy   TEWEN  =     39255.32842196
  -Hartree energ DENC   =    -47689.51976940
  -exchange      EXHF   =       554.25519433
  -V(xc)+E(xc)   XCENC  =       616.96963013
  PAW double counting   =     27088.14420473   -27135.25002352
  entropy T*S    EENTRO =        -0.00010829
  eigenvalues    EBANDS =     -3186.83832497
  atomic energy  EATOM  =      9784.95219456
  ---------------------------------------------------
  free energy    TOTEN  =      -610.04678529 eV

  energy without entropy =     -610.04667700  energy(sigma->0) =     -610.04673114
  exchange ACFDT corr.  =        -0.00003970  see jH, gK, PRB 81, 115126


--------------------------------------------------------------------------------------------------------




--------------------------------------- Iteration      1(  21)  ---------------------------------------


    POTLOK:  cpu time    1.3674: real time    1.3674
    SETDIJ:  cpu time    2.0863: real time    2.0865
[...]
  augment    46.64783    56.95550    55.19587    -2.07681    -0.17279     0.03720
  Kinetic  3599.13490  3618.32214  4110.54504    -0.63465    -0.36058     0.15983
  Fock     -325.09497  -334.97206  -310.75229     2.32979     0.05338     0.04664
  -------------------------------------------------------------------------------------
  Total     -21.87071   -47.46867    -0.35638     0.32357    -0.04051     0.03286
  in kB     -11.02995   -23.93966    -0.17973     0.16318    -0.02043     0.01657
  external pressure =      -11.72 kB  Pullay stress =        0.00 kB


 VOLUME and BASIS-vectors are now :
 -----------------------------------------------------------------------------
  energy-cutoff  :      500.00
  volume of cell :     3176.87
      direct lattice vectors                 reciprocal lattice vectors
    12.672000000  0.000000000  0.000000000     0.078914141 -0.000273811  0.000064061
     0.043547953 12.550824450  0.000000000     0.000000000  0.079676041 -0.000004674
    -0.016211108  0.001171858 19.974793387     0.000000000  0.000000000  0.050063096

  length of vectors
    12.672000000 12.550900000 19.974800000     0.078914642  0.079676041  0.050063096


 FORCES acting on ions:
    Electron-Ion                     Ewald-Force                    Non-Local-Force
 -----------------------------------------------------------------------------------------------
   0.148E+01 -.113E+00 -.254E+01   -.147E+01 0.397E-01 0.253E+01   -.871E-01 0.494E-01 -.405E-02
   0.104E+01 0.212E+01 -.156E+00   -.991E+00 -.211E+01 0.158E+00   0.479E-01 0.686E-01 -.860E-03
   0.855E+01 -.854E+00 -.217E+01   -.844E+01 0.995E+00 0.217E+01   -.603E-02 -.943E-01 -.542E-02
   0.355E+01 0.440E+01 -.118E+01   -.323E+01 -.443E+01 0.118E+01   -.280E+00 0.153E+00 -.153E-02
   0.405E+01 0.111E+02 -.478E+00   -.393E+01 -.115E+02 0.476E+00   -.120E+00 0.210E+00 0.692E-02
   0.125E+02 -.583E+00 0.115E+01   -.130E+02 0.683E+00 -.114E+01   0.380E+00 0.459E-03 0.156E-02
   0.132E+02 0.186E+01 0.494E+00   -.133E+02 -.206E+01 -.496E+00   0.187E+00 0.610E-01 0.753E-02
   -.130E+02 0.313E+02 -.169E+01   0.162E+02 -.346E+02 0.174E+01   -.279E+01 0.342E+01 -.455E-01
   0.698E+01 -.428E+01 0.274E+01   -.705E+01 0.385E+01 -.275E+01   0.223E+00 0.182E+00 0.194E-01
   0.448E+02 -.141E+02 0.182E+01   -.486E+02 0.147E+02 -.182E+01   0.362E+01 -.417E+00 0.830E-02
   0.883E+01 0.359E+01 -.122E+00   -.928E+01 -.345E+01 0.128E+00   0.374E+00 0.561E-01 -.346E-02
   0.420E+02 0.162E+02 0.254E+01   -.454E+02 -.167E+02 -.250E+01   0.369E+01 0.504E+00 -.249E-01
   -.137E+02 -.278E+02 0.126E+01   0.160E+02 0.310E+02 -.124E+01   -.232E+01 -.303E+01 -.163E-01
   0.115E+01 -.126E+02 -.203E+01   -.887E+00 0.131E+02 0.203E+01   -.182E+00 -.464E+00 -.159E-01
   -.138E+01 -.959E+00 -.244E+01   0.125E+01 0.119E+01 0.245E+01   0.316E-01 -.208E+00 -.169E-01
   0.138E+02 -.349E+01 -.187E+01   -.139E+02 0.357E+01 0.186E+01   0.135E+00 -.173E+00 -.652E-03
   0.414E+01 -.156E+01 -.284E+01   -.384E+01 0.176E+01 0.285E+01   -.228E+00 -.190E+00 -.228E-01
   -.412E+01 0.157E+01 0.314E+01   0.381E+01 -.177E+01 -.314E+01   0.224E+00 0.188E+00 0.220E-01
   -.229E+01 0.247E+01 -.250E+00   0.256E+01 -.228E+01 0.242E+00   -.239E+00 -.208E+00 0.118E-01
   0.347E+01 0.973E+00 0.712E+00   -.348E+01 -.892E+00 -.701E+00   0.827E-01 -.378E-01 -.673E-02
   -.117E+01 0.126E+02 0.243E+01   0.915E+00 -.130E+02 -.244E+01   0.185E+00 0.465E+00 0.185E-01
   0.137E+02 0.278E+02 -.127E+01   -.160E+02 -.310E+02 0.126E+01   0.232E+01 0.303E+01 0.163E-01
   0.734E+01 0.644E+01 -.119E+01   -.830E+01 -.526E+01 0.120E+01   0.913E+00 -.105E+01 -.312E-02
   0.131E+02 -.313E+02 0.841E+00   -.162E+02 0.346E+02 -.889E+00   0.279E+01 -.342E+01 0.446E-01
   -.734E+01 -.646E+01 0.775E+00   0.830E+01 0.529E+01 -.780E+00   -.913E+00 0.105E+01 -.128E-03
   -.407E+01 -.111E+02 0.290E+00   0.395E+01 0.114E+02 -.290E+00   0.121E+00 -.212E+00 -.506E-02
   -.352E+01 -.440E+01 0.115E+01   0.320E+01 0.445E+01 -.115E+01   0.277E+00 -.149E+00 0.144E-03
   -.347E+01 -.983E+00 -.612E+00   0.348E+01 0.904E+00 0.601E+00   -.821E-01 0.379E-01 0.715E-02
   0.228E+01 -.246E+01 0.136E+00   -.255E+01 0.227E+01 -.128E+00   0.239E+00 0.204E+00 -.112E-01
   -.150E+01 0.109E+00 0.288E+01   0.150E+01 -.367E-01 -.288E+01   0.920E-01 -.498E-01 0.568E-02
   -.762E+01 0.709E+00 0.140E+01   0.754E+01 -.565E+00 -.139E+01   -.411E-01 -.208E-01 -.250E-02
   -.137E+02 0.348E+01 0.252E+01   0.139E+02 -.355E+01 -.251E+01   -.138E+00 0.173E+00 0.497E-03
   0.136E+01 0.946E+00 0.325E+01   -.123E+01 -.117E+01 -.325E+01   -.277E-01 0.209E+00 0.187E-01
   0.627E+01 -.254E+01 0.139E+01   -.626E+01 0.263E+01 -.139E+01   -.429E-01 -.111E+00 0.103E-01
   -.569E+01 -.293E+01 0.131E+01   0.595E+01 0.306E+01 -.131E+01   -.278E+00 -.195E+00 0.864E-02
   -.420E+02 -.161E+02 -.240E+01   0.454E+02 0.167E+02 0.235E+01   -.369E+01 -.504E+00 0.275E-01
   -.884E+01 -.358E+01 0.708E+00   0.929E+01 0.344E+01 -.716E+00   -.371E+00 -.568E-01 0.617E-02
   0.695E+01 -.448E+01 0.633E+00   -.710E+01 0.494E+01 -.625E+00   0.229E+00 -.341E+00 -.487E-02
   -.212E+00 -.434E+01 -.525E+00   0.209E+00 0.471E+01 0.520E+00   0.256E+00 -.162E+00 0.315E-04
   -.448E+02 0.141E+02 -.212E+01   0.486E+02 -.147E+02 0.211E+01   -.363E+01 0.417E+00 -.454E-03
   -.698E+01 0.428E+01 -.279E+01   0.706E+01 -.385E+01 0.279E+01   -.221E+00 -.181E+00 -.192E-01
   0.210E+00 0.434E+01 0.690E+00   -.208E+00 -.470E+01 -.683E+00   -.256E+00 0.162E+00 -.132E-02
   -.696E+01 0.448E+01 -.245E+00   0.712E+01 -.495E+01 0.237E+00   -.228E+00 0.340E+00 0.604E-02
   -.132E+02 -.186E+01 -.374E+00   0.133E+02 0.205E+01 0.377E+00   -.189E+00 -.595E-01 -.974E-02
   -.125E+02 0.577E+00 -.103E+01   0.130E+02 -.677E+00 0.103E+01   -.378E+00 0.131E-02 0.207E-03
   0.570E+01 0.293E+01 -.671E+00   -.596E+01 -.307E+01 0.673E+00   0.279E+00 0.196E+00 -.823E-02
   -.625E+01 0.254E+01 -.610E+00   0.624E+01 -.264E+01 0.612E+00   0.421E-01 0.110E+00 -.926E-02
   -.852E+01 0.857E+00 0.277E+01   0.840E+01 -.999E+00 -.277E+01   0.308E-02 0.940E-01 0.481E-02
   -.106E+01 -.211E+01 0.714E+00   0.101E+01 0.211E+01 -.718E+00   -.444E-01 -.691E-01 0.252E-02
   0.762E+01 -.722E+00 -.522E+00   -.755E+01 0.580E+00 0.514E+00   0.417E-01 0.200E-01 0.284E-02
   -.135E+02 -.195E+02 -.365E+01   0.166E+02 0.242E+02 0.375E+01   -.347E+01 -.530E+01 -.109E+00
   0.135E+02 0.195E+02 0.254E+01   -.165E+02 -.243E+02 -.263E+01   0.347E+01 0.530E+01 0.888E-01
   0.985E+01 -.332E+02 0.512E+00   -.215E+00 0.490E+02 -.526E+00   -.914E+01 -.149E+02 0.915E-02
   -.139E+01 0.422E+02 0.723E+01   0.127E+02 -.600E+02 -.759E+01   -.110E+02 0.168E+02 0.361E+00
   0.139E+01 -.422E+02 -.749E+01   -.127E+02 0.600E+02 0.789E+01   0.110E+02 -.168E+02 -.403E+00
   -.982E+01 0.332E+02 -.214E+01   0.173E+00 -.489E+02 0.224E+01   0.914E+01 0.149E+02 -.875E-01
   -.102E+02 -.802E+01 0.118E+02   0.101E+02 0.105E+02 -.116E+02   -.878E+00 -.198E+01 -.158E+00
   0.102E+02 0.802E+01 -.142E+02   -.101E+02 -.105E+02 0.141E+02   0.876E+00 0.198E+01 0.165E+00
 -----------------------------------------------------------------------------------------------
   -.374E-02 -.794E-03 0.126E+00   -.782E-13 -.320E-12 0.711E-14   0.273E-02 -.933E-03 -.115E+00
 
 
 POSITION                                       TOTAL-FORCE (eV/Angst)
 -----------------------------------------------------------------------------------
      2.84704     12.53562      9.99774        -0.091517     -0.021858     -0.010381
      0.68752      1.24206      9.98920         0.088564      0.084625      0.001212
      1.43289     12.54225      9.99602         0.109648      0.040517     -0.010941
      3.51085      1.21920      9.99454         0.030299      0.124607      0.002117
      2.80628      2.45047      9.99168        -0.000834     -0.091322      0.005226
      0.70270      3.74683      9.98378        -0.077214      0.100624      0.005473
      1.38941      2.48313      9.98745         0.035829     -0.135668      0.006005
      3.52049      3.67407      9.99353         0.221584      0.292492     -0.000834
      0.79753      6.25567      9.97749         0.153803     -0.244393      0.012794
      1.46874      4.96714      9.98059         0.063016      0.170441      0.009061
      0.76066      8.77751      9.98642        -0.067192      0.205184      0.002690
      1.51120      7.54170      9.97607         0.466318     -0.050760      0.013511
      3.53243      8.83344      9.98042        -0.135654     -0.059914      0.001705
      2.84567     10.06297      9.99246         0.063877     -0.053080     -0.012365
      0.73701     11.29179      9.99548        -0.108818      0.008973     -0.014745
      1.43404     10.04341      9.99305         0.021173     -0.104324     -0.010597
      3.55051     11.30261      9.99662         0.067006      0.002695     -0.015637
      7.08019     12.53458      9.97863        -0.075373     -0.006275      0.016388
      4.92604      1.23041      9.99210         0.008932     -0.025691      0.004102
      5.66864     12.53704      9.98649         0.081621      0.041656      0.004480
      7.74136      1.22330      9.98258        -0.055128      0.058913      0.013656
      7.05471      2.45288      9.99711         0.133956      0.061563     -0.001550
      5.62038      2.47999      9.99692        -0.001957      0.070930      0.005471
      7.06670      7.61238      9.98779        -0.222263     -0.294934     -0.001489
      4.96673      8.80635      9.98239         0.004035     -0.065155     -0.005975
      7.78085      8.83597      9.98638         0.005376      0.085395     -0.005296
      7.07634     10.06708      9.98236        -0.038750     -0.117691     -0.002296
      4.96199     11.30014      9.98979        -0.079320     -0.039299     -0.004081
      5.66105     10.05603      9.98543        -0.005695      0.018531     -0.004409
      7.78349     11.30155      9.97712         0.102914      0.020677      0.010647
     11.30240     12.54666      9.98238        -0.132651      0.123800      0.006125
      9.15314      1.24290      9.98030        -0.030201      0.104888      0.011917
      9.89355     12.54531      9.97669         0.117738     -0.005980      0.015655
     11.94391      1.25486      9.98375        -0.022328     -0.023356      0.009556
     11.24714      2.51443      9.98438        -0.047645     -0.068596      0.007645
      9.07596      3.74463     10.00047        -0.470204      0.051509     -0.012150
      9.82639      2.50883      9.98752         0.072737     -0.206027     -0.001695
     11.94989      3.76922      9.98595         0.093613      0.103029      0.003095
     11.24140      5.02519      9.99065         0.270788      0.186299     -0.004994
      9.11850      6.31921      9.99830        -0.065796     -0.171731     -0.010079
      9.78958      5.03060      9.99969        -0.151703      0.246382     -0.012737
     12.01773      6.26111      9.98530        -0.271924     -0.185819      0.005199
     11.30923      7.51712      9.98899        -0.092945     -0.104085     -0.001740
      9.19780      8.80318      9.98860        -0.041813      0.137340     -0.006644
      9.88443      7.53949      9.99269         0.081245     -0.099166     -0.005131
     12.01198      8.77191      9.98897         0.045589      0.069371     -0.006455
     11.31523     10.03150      9.98856         0.017924      0.022411     -0.008286
      9.19783     11.29490      9.97719        -0.121070     -0.041663      0.011964
      9.89952     10.04429      9.98430        -0.080287     -0.086186     -0.000547
     12.00025     11.29049      9.98913         0.130911     -0.123616     -0.005210
      4.94238      3.73913     10.00207        -0.583881     -0.848479     -0.013409
      5.64475      7.54732      9.98017         0.592044      0.846457      0.010648
      2.83226      4.87738      9.98431        -0.290691     -0.464705     -0.004823
      2.88540      7.62110      9.96842        -0.640880      0.485440      0.034679
      7.70176      3.66524     10.01001         0.637090     -0.482647     -0.035821
      7.75506      6.40912      9.99804         0.279468      0.457698      0.002046
      4.25601      6.14123      9.97029        -0.535532      0.469959      0.011227
      6.33131      5.14515     10.01312         0.542164     -0.469984     -0.013977
 -----------------------------------------------------------------------------------
    total drift:                               -0.000920     -0.001803      0.000204


--------------------------------------------------------------------------------------------------------



  FREE ENERGIE OF THE ION-ELECTRON SYSTEM (eV)
  ---------------------------------------------------
  free  energy   TOTEN  =      -610.06211081 eV

  energy  without entropy=     -610.06207084  energy(sigma->0) =     -610.06209082
 


--------------------------------------------------------------------------------------------------------


    POTLOK:  cpu time    3.4491: real time    3.4494


--------------------------------------------------------------------------------------------------------


 stress matrix after NEB project (eV)
    -21.87071      0.32479      0.03286
      0.32357    -47.46867     -0.04277
      0.03269     -0.04051     -0.35638
  FORCES: max atom, RMS     1.033014    0.341196
  FORCE total and by dimension    2.598468    0.848479
  Stress total and by dimension   52.268010   47.468666
 writing wavefunctions
     LOOP+:  cpu time29133.1771: real time29142.9701
    4ORBIT:  cpu time    0.0000: real time    0.0000
 


 total charge     
 
# of ion       s       p       d       tot
------------------------------------------
    1        0.871   1.787   0.000   2.658
    2        0.867   1.779   0.000   2.646
    3        0.867   1.774   0.000   2.640
    4        0.871   1.788   0.000   2.659
    5        0.873   1.796   0.000   2.669
    6        0.863   1.762   0.000   2.625
    7        0.867   1.769   0.000   2.636
    8        0.868   1.733   0.000   2.601
    9        0.845   1.735   0.000   2.579
   10        0.855   1.717   0.000   2.572
   11        0.864   1.764   0.000   2.629
   12        0.851   1.695   0.000   2.546
   13        0.869   1.755   0.000   2.623
   14        0.873   1.803   0.000   2.676
   15        0.869   1.782   0.000   2.651
   16        0.869   1.771   0.000   2.640
   17        0.869   1.792   0.000   2.662
   18        0.869   1.792   0.000   2.662
   19        0.868   1.781   0.000   2.649
   20        0.870   1.783   0.000   2.653
   21        0.873   1.803   0.000   2.676
   22        0.869   1.755   0.000   2.623
   23        0.870   1.754   0.000   2.624
   24        0.868   1.733   0.000   2.601
   25        0.870   1.754   0.000   2.624
   26        0.873   1.796   0.000   2.669
   27        0.871   1.788   0.000   2.659
   28        0.870   1.783   0.000   2.653
   29        0.868   1.781   0.000   2.649
   30        0.871   1.787   0.000   2.658
   31        0.868   1.772   0.000   2.640
   32        0.869   1.770   0.000   2.640
   33        0.869   1.782   0.000   2.651
   34        0.866   1.766   0.000   2.632
   35        0.863   1.761   0.000   2.624
   36        0.851   1.695   0.000   2.546
   37        0.864   1.764   0.000   2.629
   38        0.862   1.754   0.000   2.616
   39        0.852   1.724   0.000   2.576
   40        0.855   1.717   0.000   2.572
   41        0.845   1.735   0.000   2.579
   42        0.852   1.724   0.000   2.576
   43        0.862   1.754   0.000   2.616
   44        0.867   1.769   0.000   2.636
   45        0.863   1.762   0.000   2.625
   46        0.863   1.761   0.000   2.624
   47        0.866   1.766   0.000   2.632
   48        0.867   1.774   0.000   2.640
   49        0.867   1.779   0.000   2.646
   50        0.868   1.772   0.000   2.640
   51        0.858   1.684   0.000   2.542
   52        0.858   1.684   0.000   2.542
   53        1.232   2.712   0.000   3.944
   54        1.236   2.662   0.000   3.898
   55        1.236   2.662   0.000   3.898
   56        1.232   2.712   0.000   3.944
   57        0.455   0.568   6.154   7.177
   58        0.455   0.568   6.154   7.177
--------------------------------------------------
tot         50.823 103.443  12.308 166.574
 


 magnetization (x)
 
# of ion       s       p       d       tot
------------------------------------------
    1       -0.000  -0.000   0.000  -0.000
    2        0.000   0.001   0.000   0.002
    3       -0.000  -0.000   0.000  -0.001
    4        0.000   0.004   0.000   0.005
    5        0.001   0.002   0.000   0.003
    6       -0.000  -0.000   0.000  -0.000
    7       -0.000  -0.004   0.000  -0.004
    8        0.003   0.003   0.000   0.006
    9        0.001   0.010   0.000   0.010
   10       -0.000  -0.001   0.000  -0.001
   11        0.000   0.000   0.000   0.000
   12        0.000  -0.001   0.000  -0.000
   13       -0.000  -0.004   0.000  -0.005
   14       -0.000   0.000   0.000   0.000
   15        0.000   0.002   0.000   0.002
   16        0.000  -0.000   0.000  -0.000
   17        0.000   0.002   0.000   0.002
   18        0.000   0.002   0.000   0.002
   19       -0.001  -0.002   0.000  -0.003
   20       -0.000   0.001   0.000   0.001
   21       -0.000   0.000   0.000   0.000
   22       -0.000  -0.004   0.000  -0.005
   23        0.002   0.015   0.000   0.017
   24        0.003   0.003   0.000   0.006
   25        0.002   0.015   0.000   0.017
   26        0.001   0.002   0.000   0.003
   27        0.000   0.004   0.000   0.005
   28       -0.000   0.001   0.000   0.001
   29       -0.001  -0.002   0.000  -0.003
   30       -0.000  -0.000   0.000  -0.000
   31       -0.000  -0.000   0.000  -0.000
   32        0.000  -0.000   0.000   0.000
   33        0.000   0.002   0.000   0.002
   34       -0.000   0.000   0.000   0.000
   35        0.000   0.002   0.000   0.002
   36        0.000  -0.001   0.000  -0.000
   37        0.000   0.000   0.000   0.000
   38        0.000   0.002   0.000   0.002
   39       -0.000   0.001   0.000   0.000
   40       -0.000  -0.001   0.000  -0.001
   41        0.001   0.010   0.000   0.010
   42       -0.000   0.001   0.000   0.000
   43        0.000   0.002   0.000   0.002
   44       -0.000  -0.004   0.000  -0.004
   45       -0.000  -0.000   0.000  -0.000
   46        0.000   0.002   0.000   0.002
   47       -0.000   0.000   0.000   0.000
   48       -0.000  -0.000   0.000  -0.001
   49        0.000   0.001   0.000   0.002
   50       -0.000  -0.000   0.000  -0.000
   51       -0.013  -0.057   0.000  -0.069
   52       -0.013  -0.057   0.000  -0.069
   53       -0.002   0.000   0.000  -0.002
   54        0.000   0.005   0.000   0.005
   55        0.000   0.005   0.000   0.005
   56       -0.002   0.000   0.000  -0.002
   57        0.056   0.017   2.787   2.861
   58        0.056   0.017   2.787   2.860
--------------------------------------------------
tot          0.096  -0.006   5.574   5.664
 

 total amount of memory used by VASP MPI-rank0   175459. kBytes
=======================================================================

   base      :      30000. kBytes
   nonl-proj :       4585. kBytes
   fftplans  :      14250. kBytes
   grid      :      34043. kBytes
   one-center:         62. kBytes
   HF        :         23. kBytes
   nonlr-proj:      15072. kBytes
   wavefun   :      77424. kBytes
 
  
  
 General timing and accounting informations for this job:
 ========================================================
  
                  Total CPU time used (sec):    29219.191
                            User time (sec):    29170.253
                          System time (sec):       48.938
                         Elapsed time (sec):    29231.508
  
                   Maximum memory used (kb):      426188.
                   Average memory used (kb):           0.
  
                          Minor page faults:       251971
                          Major page faults:            0
                 Voluntary context switches:         1158
