 vasp.5.4.4.18Apr17-6-g9f103f2a35 (build Feb 25 2019 10:51:38) complex          
  
 executed on             LinuxIFC date 2021.07.24  11:06:47
 running on   32 total cores
 distrk:  each k-point on   32 cores,    1 groups
 distr:  one band on NCORES_PER_BAND=  32 cores,    1 groups


--------------------------------------------------------------------------------------------------------


 INCAR:
 POTCAR:    PAW_PBE C 08Apr2002                   
 POTCAR:    PAW_PBE N 08Apr2002                   
 POTCAR:    PAW_PBE Fe 06Sep2000                  

 ----------------------------------------------------------------------------- 
|                                                                             |
|           W    W    AA    RRRRR   N    N  II  N    N   GGGG   !!!           |
|           W    W   A  A   R    R  NN   N  II  NN   N  G    G  !!!           |
|           W    W  A    A  R    R  N N  N  II  N N  N  G       !!!           |
|           W WW W  AAAAAA  RRRRR   N  N N  II  N  N N  G  GGG   !            |
|           WW  WW  A    A  R   R   N   NN  II  N   NN  G    G                |
|           W    W  A    A  R    R  N    N  II  N    N   GGGG   !!!           |
|                                                                             |
|      For optimal performance we recommend to set                            |
|        NCORE= 4 - approx SQRT( number of cores)                             |
|      NCORE specifies how many cores store one orbital (NPAR=cpu/NCORE).     |
|      This setting can  greatly improve the performance of VASP for DFT.     |
|      The default,   NCORE=1            might be grossly inefficient         |
|      on modern multi-core architectures or massively parallel machines.     |
|      Do your own testing !!!!                                               |
|      Unfortunately you need to use the default for GW and RPA calculations. |
|      (for HF NCORE is supported but not extensively tested yet)             |
|                                                                             |
 ----------------------------------------------------------------------------- 

 POTCAR:    PAW_PBE C 08Apr2002                   
   VRHFIN =C: s2p2                                                              
   LEXCH  = PE                                                                  
   EATOM  =   147.1560 eV,   10.8157 Ry                                         
                                                                                
   TITEL  = PAW_PBE C 08Apr2002                                                 
   LULTRA =        F    use ultrasoft PP ?                                      
   IUNSCR =        1    unscreen: 0-lin 1-nonlin 2-no                           
   RPACOR =    1.200    partial core radius                                     
   POMASS =   12.011; ZVAL   =    4.000    mass and valenz                      
   RCORE  =    1.500    outmost cutoff radius                                   
   RWIGS  =    1.630; RWIGS  =    0.863    wigner-seitz radius (au A)           
   ENMAX  =  400.000; ENMIN  =  300.000 eV                                      
   ICORE  =        2    local potential                                         
   LCOR   =        T    correct aug charges                                     
   LPAW   =        T    paw PP                                                  
   EAUG   =  644.873                                                            
   DEXC   =    0.000                                                            
   RMAX   =    1.529    core radius for proj-oper                               
   RAUG   =    1.300    factor for augmentation sphere                          
   RDEP   =    1.501    radius for radial grids                                 
   RDEPT  =    1.300    core radius for aug-charge                              
                                                                                
   Atomic configuration                                                         
    4 entries                                                                   
     n  l   j            E        occ.                                          
     1  0  0.50      -273.3789   2.0000                                         
     2  0  0.50       -13.7508   2.0000                                         
     2  1  0.50        -5.2854   2.0000                                         
     3  2  1.50        -5.4423   0.0000                                         
   Description                                                                  
     l       E           TYP  RCUT    TYP  RCUT                                 
     0    -13.7508458     23  1.200                                             
     0     -8.2022199     23  1.200                                             
     1     -5.2854383     23  1.500                                             
     1     34.0145650     23  1.500                                             
     2     -5.4423304      7  1.500                                             
  local pseudopotential read in
  partial core-charges read in
  partial kinetic energy density read in
  atomic valenz-charges read in
  non local Contribution for L=           0  read in
    real space projection operators read in
  non local Contribution for L=           0  read in
    real space projection operators read in
  non local Contribution for L=           1  read in
    real space projection operators read in
  non local Contribution for L=           1  read in
    real space projection operators read in
    PAW grid and wavefunctions read in
 
   number of l-projection  operators is LMAX  =           4
   number of lm-projection operators is LMMAX =           8
 
 POTCAR:    PAW_PBE N 08Apr2002                   
   VRHFIN =N: s2p3                                                              
   LEXCH  = PE                                                                  
   EATOM  =   264.5486 eV,   19.4438 Ry                                         
                                                                                
   TITEL  = PAW_PBE N 08Apr2002                                                 
   LULTRA =        F    use ultrasoft PP ?                                      
   IUNSCR =        1    unscreen: 0-lin 1-nonlin 2-no                           
   RPACOR =    1.200    partial core radius                                     
   POMASS =   14.001; ZVAL   =    5.000    mass and valenz                      
   RCORE  =    1.500    outmost cutoff radius                                   
   RWIGS  =    1.400; RWIGS  =    0.741    wigner-seitz radius (au A)           
   ENMAX  =  400.000; ENMIN  =  300.000 eV                                      
   ICORE  =        2    local potential                                         
   LCOR   =        T    correct aug charges                                     
   LPAW   =        T    paw PP                                                  
   EAUG   =  627.112                                                            
   DEXC   =    0.000                                                            
   RMAX   =    1.529    core radius for proj-oper                               
   RAUG   =    1.300    factor for augmentation sphere                          
   RDEP   =    1.514    radius for radial grids                                 
   RDEPT  =    1.338    core radius for aug-charge                              
                                                                                
   Atomic configuration                                                         
    4 entries                                                                   
     n  l   j            E        occ.                                          
     1  0  0.50      -384.7179   2.0000                                         
     2  0  0.50       -18.5828   2.0000                                         
     2  1  0.50        -7.0898   3.0000                                         
     3  2  1.50        -6.8029   0.0000                                         
   Description                                                                  
     l       E           TYP  RCUT    TYP  RCUT                                 
     0    -18.5828119     23  1.200                                             
     0    -13.5018863     23  1.200                                             
     1     -7.0897853     23  1.500                                             
     1      9.5240782     23  1.500                                             
     2     -6.8029130      7  1.500                                             
  local pseudopotential read in
  partial core-charges read in
  partial kinetic energy density read in
  atomic valenz-charges read in
  non local Contribution for L=           0  read in
    real space projection operators read in
  non local Contribution for L=           0  read in
    real space projection operators read in
  non local Contribution for L=           1  read in
    real space projection operators read in
  non local Contribution for L=           1  read in
    real space projection operators read in
    PAW grid and wavefunctions read in
 
   number of l-projection  operators is LMAX  =           4
   number of lm-projection operators is LMMAX =           8
 
 POTCAR:    PAW_PBE Fe 06Sep2000                  
   VRHFIN =Fe:  d7 s1                                                           
   LEXCH  = PE                                                                  
   EATOM  =   594.3153 eV,   43.6809 Ry                                         
                                                                                
   TITEL  = PAW_PBE Fe 06Sep2000                                                
   LULTRA =        F    use ultrasoft PP ?                                      
   IUNSCR =        1    unscreen: 0-lin 1-nonlin 2-no                           
   RPACOR =    2.000    partial core radius                                     
   POMASS =   55.847; ZVAL   =    8.000    mass and valenz                      
   RCORE  =    2.300    outmost cutoff radius                                   
   RWIGS  =    2.460; RWIGS  =    1.302    wigner-seitz radius (au A)           
   ENMAX  =  267.882; ENMIN  =  200.911 eV                                      
   RCLOC  =    1.701    cutoff for local pot                                    
   LCOR   =        T    correct aug charges                                     
   LPAW   =        T    paw PP                                                  
   EAUG   =  511.368                                                            
   DEXC   =    0.000                                                            
   RMAX   =    2.356    core radius for proj-oper                               
   RAUG   =    1.300    factor for augmentation sphere                          
   RDEP   =    2.442    radius for radial grids                                 
   RDEPT  =    1.890    core radius for aug-charge                              
                                                                                
   Atomic configuration                                                         
    9 entries                                                                   
     n  l   j            E        occ.                                          
     1  0  0.50     -6993.8440   2.0000                                         
     2  0  0.50      -814.6047   2.0000                                         
     2  1  1.50      -693.3689   6.0000                                         
     3  0  0.50       -89.4732   2.0000                                         
     3  1  1.50       -55.6373   6.0000                                         
     3  2  2.50        -3.8151   7.0000                                         
     4  0  0.50        -4.2551   1.0000                                         
     4  1  1.50        -3.4015   0.0000                                         
     4  3  2.50        -1.3606   0.0000                                         
   Description                                                                  
     l       E           TYP  RCUT    TYP  RCUT                                 
     2     -3.8151135     23  2.300                                             
     2     -5.1756961     23  2.300                                             
     0     -4.2550963     23  2.300                                             
     0      7.2035603     23  2.300                                             
     1     -2.7211652     23  2.300                                             
     1     18.4316424     23  2.300                                             
  local pseudopotential read in
  partial core-charges read in
  partial kinetic energy density read in
  atomic valenz-charges read in
  non local Contribution for L=           2  read in
    real space projection operators read in
  non local Contribution for L=           2  read in
    real space projection operators read in
  non local Contribution for L=           0  read in
    real space projection operators read in
  non local Contribution for L=           0  read in
    real space projection operators read in
  non local Contribution for L=           1  read in
    real space projection operators read in
  non local Contribution for L=           1  read in
    real space projection operators read in
    PAW grid and wavefunctions read in
 
   number of l-projection  operators is LMAX  =           6
   number of lm-projection operators is LMMAX =          18
 

 ----------------------------------------------------------------------------- 
|                                                                             |
|  ADVICE TO THIS USER RUNNING 'VASP/VAMP'   (HEAR YOUR MASTER'S VOICE ...):  |
|                                                                             |
|      You have a (more or less) 'large supercell' and for larger cells       |
|      it might be more efficient to use real space projection opertators     |
|      So try LREAL= Auto  in the INCAR   file.                               |
|      Mind:          For very  accurate calculation you might also keep the  |
|      reciprocal projection scheme          (i.e. LREAL=.FALSE.)             |
|                                                                             |
 ----------------------------------------------------------------------------- 

  PAW_PBE C 08Apr2002                   :
 energy of atom  1       EATOM= -147.1560
 kinetic energy error for atom=    0.0076 (will be added to EATOM!!)
  PAW_PBE N 08Apr2002                   :
 energy of atom  2       EATOM= -264.5486
 kinetic energy error for atom=    0.0138 (will be added to EATOM!!)
  PAW_PBE Fe 06Sep2000                  :
 energy of atom  3       EATOM= -594.3153
 kinetic energy error for atom=    0.0026 (will be added to EATOM!!)
 
 
 POSCAR:  C  N Fe                                
  positions in cartesian coordinates
  No initial velocities read in
 exchange correlation table for  LEXCH =        8
   RHO(1)=    0.500       N(1)  =     2000
   RHO(2)=  100.500       N(2)  =     4000

 VTST: version 3.2, (02/03/18)

 CHAIN: initializing optimizer
 
 OPT: Using VASP Conjugate-Gradient optimizer
 CHAIN: Read ICHAIN            0
 
 POSCAR:  C  N Fe                                
  positions in cartesian coordinates
  No initial velocities read in
 


--------------------------------------------------------------------------------------------------------


 ion  position               nearest neighbor table
   1  0.221  0.998  0.500-   3 1.41  17 1.42   4 1.42
   2  0.054  0.098  0.500-  34 1.41   7 1.42   3 1.44
   3  0.110  0.998  0.500-   1 1.41  15 1.43   2 1.44
   4  0.276  0.096  0.500-  19 1.41   5 1.41   1 1.42
   5  0.220  0.194  0.500-   7 1.41   8 1.41   4 1.41
   6  0.055  0.297  0.500-  38 1.41   7 1.43  10 1.44
   7  0.109  0.196  0.500-   5 1.41   2 1.42   6 1.43
   8  0.275  0.291  0.500-  55 1.39  51 1.41   5 1.41  57 2.54
   9  0.062  0.499  0.500-  42 1.44  10 1.46  12 1.46
  10  0.114  0.395  0.500-  55 1.34   6 1.44   9 1.46
  11  0.060  0.699  0.500-  46 1.42  16 1.43  12 1.45
  12  0.119  0.599  0.499-  56 1.39  11 1.45   9 1.46
  13  0.278  0.702  0.500-  56 1.38  14 1.41  25 1.42
  14  0.223  0.801  0.500-  16 1.41  13 1.41  17 1.43
  15  0.055  0.899  0.500-  50 1.41   3 1.43  16 1.43
  16  0.112  0.800  0.500-  14 1.41  11 1.43  15 1.43
  17  0.278  0.900  0.500-  28 1.41   1 1.42  14 1.43
  18  0.556  0.000  0.500-  20 1.41  30 1.43  21 1.43
  19  0.388  0.099  0.500-   4 1.41  20 1.43  23 1.44
  20  0.444  1.000  0.500-  18 1.41  28 1.43  19 1.43
  21  0.610  0.100  0.500-  32 1.41  22 1.43  18 1.43
  22  0.554  0.199  0.500-  52 1.42  21 1.43  23 1.44
  23  0.441  0.200  0.500-  51 1.43  19 1.44  22 1.44
  24  0.556  0.604  0.500-  53 1.42  26 1.44  54 1.45  58 2.42
  25  0.390  0.701  0.500-  13 1.42  54 1.43  29 1.43
  26  0.612  0.703  0.500-  44 1.42  27 1.42  24 1.44
  27  0.556  0.802  0.500-  29 1.42  26 1.42  30 1.43
  28  0.389  0.900  0.500-  17 1.41  20 1.43  29 1.43
  29  0.445  0.801  0.500-  27 1.42  28 1.43  25 1.43
  30  0.611  0.901  0.500-  48 1.42  18 1.43  27 1.43
  31  0.888  0.999  0.500-  33 1.41  34 1.43  50 1.44
  32  0.721  0.101  0.500-  21 1.41  37 1.43  33 1.44
  33  0.777  0.000  0.500-  31 1.41  48 1.43  32 1.44
  34  0.942  0.099  0.500-   2 1.41  31 1.43  35 1.44
  35  0.887  0.200  0.500-  37 1.42  38 1.44  34 1.44
  36  0.717  0.302  0.501-  52 1.42  37 1.46  41 1.46
  37  0.775  0.201  0.500-  35 1.42  32 1.43  36 1.46
  38  0.944  0.299  0.500-   6 1.41  35 1.44  39 1.44
  39  0.890  0.400  0.500-  41 1.42  38 1.44  42 1.46
  40  0.724  0.503  0.500-  53 1.39  45 1.43  41 1.44
  41  0.778  0.401  0.500-  39 1.42  40 1.44  36 1.46
  42  0.949  0.499  0.500-   9 1.44  43 1.44  39 1.46
  43  0.893  0.600  0.500-  45 1.42  46 1.43  42 1.44
  44  0.724  0.701  0.500-  26 1.42  49 1.43  45 1.44
  45  0.781  0.601  0.500-  43 1.42  40 1.43  44 1.44
  46  0.948  0.699  0.500-  11 1.42  43 1.43  47 1.45
  47  0.891  0.799  0.500-  49 1.42  50 1.43  46 1.45
  48  0.723  0.900  0.500-  30 1.42  33 1.43  49 1.44
  49  0.779  0.800  0.500-  47 1.42  44 1.43  48 1.44
  50  0.944  0.899  0.500-  15 1.41  47 1.43  31 1.44
  51  0.386  0.299  0.500-   8 1.41  23 1.43  58 2.10  57 2.43
  52  0.605  0.300  0.501-  22 1.42  36 1.42  58 2.00
  53  0.615  0.508  0.500-  40 1.39  24 1.42  58 1.83
  54  0.442  0.599  0.501-  25 1.43  24 1.45  57 2.01  58 2.37
  55  0.220  0.387  0.500-  10 1.34   8 1.39  57 1.87
  56  0.229  0.605  0.499-  13 1.38  12 1.39  57 1.98
  57  0.331  0.485  0.500-  55 1.87  56 1.98  54 2.01  58 2.30  51 2.43   8 2.54
  58  0.500  0.420  0.502-  53 1.83  52 2.00  51 2.10  57 2.30  54 2.37  24 2.42
 
  LATTYP: Found a triclinic cell.
 ALAT       =    34.4663906621
 B/A-ratio  =     0.3641489509
 C/A-ratio  =     0.5795442928
 COS(alpha) =     0.0000558505
 COS(beta)  =     0.5798833554
 COS(gamma) =     0.7270545882
  
  Lattice vectors:
  
 A1 = (  12.6011152025, -25.1028207590, -19.9747933873)
 A2 = (  -0.0435479530, -12.5508244504,   0.0000000000)
 A3 = (   0.0162111085,  -0.0011718581, -19.9747933873)


Analysis of symmetry for initial positions (statically):
=====================================================================
 Subroutine PRICEL returns:
 Original cell was already a primitive cell.
 

 Routine SETGRP: Setting up the symmetry group for a 
 triclinic supercell.


 Subroutine GETGRP returns: Found  1 space group operations
 (whereof  1 operations were pure point group operations)
 out of a pool of  2 trial point group operations.


The static configuration has the point symmetry C_1 .


Analysis of symmetry for dynamics (positions and initial velocities):
=====================================================================
 Subroutine PRICEL returns:
 Original cell was already a primitive cell.
 

 Routine SETGRP: Setting up the symmetry group for a 
 triclinic supercell.


 Subroutine GETGRP returns: Found  1 space group operations
 (whereof  1 operations were pure point group operations)
 out of a pool of  2 trial point group operations.


The dynamic configuration has the point symmetry C_1 .


Analysis of structural, dynamic, and magnetic symmetry:
=====================================================================
 Subroutine PRICEL returns:
 Original cell was already a primitive cell.
 

 Routine SETGRP: Setting up the symmetry group for a 
 triclinic supercell.


 Subroutine GETGRP returns: Found  1 space group operations
 (whereof  1 operations were pure point group operations)
 out of a pool of  2 trial point group operations.


The magnetic configuration has the point symmetry C_1 .


 Subroutine INISYM returns: Found  1 space group operations
 (whereof  1 operations are pure point group operations),
 and found     1 'primitive' translations

 
 
 KPOINTS: KPOINTS created by Atomic Simulation Env

Automatic generation of k-mesh.
Space group operators:
 irot       det(A)        alpha          n_x          n_y          n_z        tau_x        tau_y        tau_z
    1     1.000000     0.000000     1.000000     0.000000     0.000000     0.000000     0.000000     0.000000
 
 Subroutine IBZKPT returns following result:
 ===========================================
 
 Found      2 irreducible k-points:
 
 Following reciprocal coordinates:
            Coordinates               Weight
  0.250000  0.250000 -0.000000      2.000000
 -0.250000  0.250000  0.000000      2.000000
 
 Following cartesian coordinates:
            Coordinates               Weight
  0.019729  0.019851  0.000015      2.000000
 -0.019729  0.019987 -0.000017      2.000000
 
 
 Subroutine IBZKPT_HF returns following result:
 ==============================================
 
 Found      4 k-points in 1st BZ
 the following      4 k-points will be used (e.g. in the exchange kernel)
 Following reciprocal coordinates:   # in IRBZ
  0.250000  0.250000 -0.000000    0.25000000   1 t-inv F
 -0.250000  0.250000  0.000000    0.25000000   2 t-inv F
 -0.250000 -0.250000  0.000000    0.25000000   1 t-inv T
  0.250000 -0.250000 -0.000000    0.25000000   2 t-inv T


--------------------------------------------------------------------------------------------------------




 Dimension of arrays:
   k-points           NKPTS =      2   k-points in BZ     NKDIM =      4   number of bands    NBANDS=    155
   number of dos      NEDOS =    301   number of ions     NIONS =     58
   non local maximal  LDIM  =      6   non local SUM 2l+1 LMDIM =     18
   total plane-waves  NPLWV = ******
   max r-space proj   IRMAX =      1   max aug-charges    IRDMAX=  15698
   dimension x,y,z NGX =    96 NGY =   96 NGZ =  150
   dimension x,y,z NGXF=   192 NGYF=  192 NGZF=  300
   support grid    NGXF=   192 NGYF=  192 NGZF=  300
   ions per type =              54   2   2
   NGX,Y,Z   is equivalent  to a cutoff of  12.59, 12.72, 12.48 a.u.
   NGXF,Y,Z  is equivalent  to a cutoff of  25.19, 25.43, 24.97 a.u.

 SYSTEM =  unknown system                          
 POSCAR =   C  N Fe                                

 Startparameter for this run:
   NWRITE =      2    write-flag & timer
   PREC   = accura    normal or accurate (medium, high low for compatibility)
   ISTART =      1    job   : 0-new  1-cont  2-samecut
   ICHARG =      0    charge: 1-file 2-atom 10-const
   ISPIN  =      2    spin polarized calculation?
   LNONCOLLINEAR =      F non collinear calculations
   LSORBIT =      F    spin-orbit coupling
   INIWAV =      1    electr: 0-lowe 1-rand  2-diag
   LASPH  =      T    aspherical Exc in radial PAW
   METAGGA=      F    non-selfconsistent MetaGGA calc.

 Electronic Relaxation 1
   ENCUT  =  500.0 eV  36.75 Ry    6.06 a.u.  23.10 22.88 36.42*2*pi/ulx,y,z
   ENINI  =  500.0     initial cutoff
   ENAUG  =  644.9 eV  augmentation charge cutoff
   NELM   =    250;   NELMIN=  2; NELMDL=  0     # of ELM steps 
   EDIFF  = 0.1E-03   stopping-criterion for ELM
   LREAL  =      F    real-space projection
   NLSPLINE    = F    spline interpolate recip. space projectors
   LCOMPAT=      F    compatible to vasp.4.4
   GGA_COMPAT  = T    GGA compatible to vasp.4.4-vasp.4.6
   LMAXPAW     = -100 max onsite density
   LMAXMIX     =    2 max onsite mixed and CHGCAR
   VOSKOWN=      0    Vosko Wilk Nusair interpolation
   ROPT   =    0.00000   0.00000   0.00000
 Ionic relaxation
   EDIFFG = -.3E-01   stopping-criterion for IOM
   NSW    =      0    number of steps for IOM
   NBLOCK =      1;   KBLOCK =      1    inner block; outer block 
   IBRION =     -1    ionic relax: 0-MD 1-quasi-New 2-CG
   NFREE  =      1    steps in history (QN), initial steepest desc. (CG)
   ISIF   =      2    stress and relaxation
   IWAVPR =     10    prediction:  0-non 1-charg 2-wave 3-comb
   ISYM   =      3    0-nonsym 1-usesym 2-fastsym
   LCORR  =      T    Harris-Foulkes like correction to forces

   POTIM  = 0.5000    time-step for ionic-motion
   TEIN   =    0.0    initial temperature
   TEBEG  =    0.0;   TEEND  =   0.0 temperature during run
   SMASS  =  -3.00    Nose mass-parameter (am)
   estimated Nose-frequenzy (Omega)   =  0.10E-29 period in steps =****** mass=  -0.367E-26a.u.
   SCALEE = 1.0000    scale energy and forces
   NPACO  =    256;   APACO  = 16.0  distance and # of slots for P.C.
   PSTRESS=    0.0 pullay stress

  Mass of Ions in am
   POMASS =  12.01 14.00 55.85
  Ionic Valenz
   ZVAL   =   4.00  5.00  8.00
  Atomic Wigner-Seitz radii
   RWIGS  =  -1.00 -1.00 -1.00
  virtual crystal weights 
   VCA    =   1.00  1.00  1.00
   NELECT =     242.0000    total number of electrons
   NUPDOWN=      -1.0000    fix difference up-down

 DOS related values:
   EMIN   =  10.00;   EMAX   =-10.00  energy-range for DOS
   EFERMI =   0.00
   ISMEAR =     0;   SIGMA  =   0.10  broadening in eV -4-tet -1-fermi 0-gaus

 Electronic relaxation 2 (details)
   IALGO  =     53    algorithm
   LDIAG  =      T    sub-space diagonalisation (order eigenvalues)
   LSUBROT=      F    optimize rotation matrix (better conditioning)
   TURBO    =      0    0=normal 1=particle mesh
   IRESTART =      0    0=no restart 2=restart with 2 vectors
   NREBOOT  =      0    no. of reboots
   NMIN     =      0    reboot dimension
   EREF     =   0.00    reference energy to select bands
   IMIX   =      4    mixing-type and parameters
     AMIX     =   0.40;   BMIX     =  1.00
     AMIX_MAG =   1.60;   BMIX_MAG =  1.00
     AMIN     =   0.10
     WC   =   100.;   INIMIX=   1;  MIXPRE=   1;  MAXMIX= -45

 Intra band minimization:
   WEIMIN = 0.0000     energy-eigenvalue tresh-hold
   EBREAK =  0.16E-06  absolut break condition
   DEPER  =   0.30     relativ break condition  

   TIME   =   0.20     timestep for ELM

  volume/ion in A,a.u.               =      54.77       369.63
  Fermi-wavevector in a.u.,A,eV,Ry     =   0.693980  1.311431  6.552671  0.481608
  Thomas-Fermi vector in A             =   1.776345
 
 Write flags
   LWAVE        =      T    write WAVECAR
   LDOWNSAMPLE  =      F    k-point downsampling of WAVECAR
   LCHARG       =      T    write CHGCAR
   LVTOT        =      F    write LOCPOT, total local potential
   LVHAR        =      F    write LOCPOT, Hartree potential only
   LELF         =      F    write electronic localiz. function (ELF)
   LORBIT       =     11    0 simple, 1 ext, 2 COOP (PROOUT), +10 PAW based schemes


 Dipole corrections
   LMONO  =      F    monopole corrections only (constant potential shift)
   LDIPOL =      T    correct potential (dipole corrections)
   IDIPOL =      3    1-x, 2-y, 3-z, 4-all directions 
   EPSILON=  1.0000000 bulk dielectric constant

 Exchange correlation treatment:
   GGA     =    PE    GGA type
   LEXCH   =     8    internal setting for exchange type
   VOSKOWN=      0    Vosko Wilk Nusair interpolation
   EXXOEP  =     0    0=HF, 1=EXX-LHF (local Hartree Fock) 2=EXX OEP
   LHFCALC =     T    Hartree Fock is set to
   LSYMGRAD=     F    symmetrize gradient (conserves proper symmetry)
   PRECFOCK=normal    Normal, Fast or Accurate (Low or Medium for compatibility)
   LRHFCALC=     F    long range Hartree Fock
   LRSCOR  =     F    long range correlation only (use DFT for short range part)
   LTHOMAS =     F    Thomas Fermi screening in HF
   LMODELHF=     F    short range full HF, long range fraction AEXX
   ENCUT4O =  -1.0   cutoff for four orbital integrals eV
   LMAXFOCK=     4    L truncation for augmentation on plane wave grid
   LMAXFOCKAE=  -1    L truncation for all-electron charge restoration on plane wave grid
   NMAXFOCKAE=   1    number of basis functions for all-electron charge restoration
   LFOCKAEDFT=     F  apply the AE augmentation even for DFT
   NKREDX  =     1    reduce k-point grid by
   NKREDY  =     1    reduce k-point grid by
   NKREDZ  =     1    reduce k-point grid by
   SHIFTRED=     F    shift reduced grid of Gamma
   HFKIDENT=     F    idential grid for each k-point
   ODDONLY =     F    use only odd q-grid points
   EVENONLY=     F    use only even q-grid points
   HFALPHA =   -1.0000 decay constant for conv. correction
   MCALPHA =    0.0000 extent of test-charge in conv. correction in multipole expansion
   AEXX    =    0.2500 exact exchange contribution
   HFSCREEN=    0.2000 screening length (either q_TF or 0.3 A-1)
   HFSCREENC=   0.2000 screening length for correlation (either q_TF or 0.3 A-1)
   HFRCUT  =    0.0000 spherical cutoff for potential kernel
   ALDAX   =    0.7500 LDA exchange part
   AGGAX   =    0.7500 GGA exchange part
   ALDAC   =    1.0000 LDA correlation
   AGGAC   =    1.0000 GGA correlation
   ENCUTFOCK=  -1.0 apply spherical cutoff to Coloumb kernel
   NBANDSGWLOW=     1    first orbital included in HF term
   NBLOCK_FOCK=    64    blocking factor in FOCK_ACC
 Linear response parameters
   LEPSILON=     F    determine dielectric tensor
   LRPA    =     F    only Hartree local field effects (RPA)
   LNABLA  =     F    use nabla operator in PAW spheres
   LVEL    =     F    velocity operator in full k-point grid
   LINTERFAST=   F  fast interpolation
   KINTER  =     0    interpolate to denser k-point grid
   CSHIFT  =0.1000    complex shift for real part using Kramers Kronig
   OMEGAMAX=  -1.0    maximum frequency
   DEG_THRESHOLD= 0.2000000E-02 threshold for treating states as degnerate
   RTIME   =   -0.100 relaxation time in fs
  (WPLASMAI=    0.000 imaginary part of plasma frequency in eV, 0.658/RTIME)
   DFIELD  = 0.0000000 0.0000000 0.0000000 field for delta impulse in time
 
 Orbital magnetization related:
   ORBITALMAG=     F  switch on orbital magnetization
   LCHIMAG   =     F  perturbation theory with respect to B field
   DQ        =  0.001000  dq finite difference perturbation B field
   LLRAUG    =     F  two centre corrections for induced B field



--------------------------------------------------------------------------------------------------------


 Static calculation
 charge density and potential will be updated during run
 spin polarized calculation
 Conjugate gradient for all bands (Freysoldt, et al. PRB 79, 241103 (2009))
 perform sub-space diagonalisation
    before iterative eigenvector-optimisation
 modified Broyden-mixing scheme, WC =      100.0
 initial mixing is a Kerker type mixing with AMIX =  0.4000 and BMIX =      1.0000
 Hartree-type preconditioning will be used
 using additional bands           34
 reciprocal scheme for non local part
 use partial core corrections
 no Harris-corrections to forces 
 use gradient corrections 
 use of overlap-Matrix (Vanderbilt PP)
 Gauss-broadening in eV      SIGMA  =   0.10


--------------------------------------------------------------------------------------------------------


  energy-cutoff  :      500.00
  volume of cell :     3176.87
      direct lattice vectors                 reciprocal lattice vectors
    12.672000000  0.000000000  0.000000000     0.078914141 -0.000273811  0.000064061
     0.043547953 12.550824450  0.000000000     0.000000000  0.079676041 -0.000004674
    -0.016211108  0.001171858 19.974793387     0.000000000  0.000000000  0.050063096

  length of vectors
    12.672000000 12.550900000 19.974800000     0.078914642  0.079676041  0.050063096


 
 old parameters found on file WAVECAR:
  energy-cutoff  :      500.00
  volume of cell :     3176.87
      direct lattice vectors                 reciprocal lattice vectors
    12.672000000  0.000000000  0.000000000     0.078914141 -0.000273811  0.000064061
     0.043547953 12.550824450  0.000000000     0.000000000  0.079676041 -0.000004674
    -0.016211108  0.001171858 19.974793387     0.000000000  0.000000000  0.050063096

  length of vectors

 
 k-points in units of 2pi/SCALE and weight: KPOINTS created by Atomic Simulation Env
   0.01972854  0.01985056  0.00001485       0.500
  -0.01972854  0.01998746 -0.00001718       0.500
 
 k-points in reciprocal lattice and weights: KPOINTS created by Atomic Simulation Env
   0.25000000  0.25000000 -0.00000000       0.500
  -0.25000000  0.25000000  0.00000000       0.500
 
 position of ions in fractional coordinates (direct lattice) 
   0.22141013  0.99755372  0.50025575
   0.05372548  0.09767546  0.50002160
   0.10992228  0.99812017  0.50028395
   0.27641337  0.09622374  0.50006509
   0.21992057  0.19359316  0.49972422
   0.05486570  0.29682393  0.49957703
   0.10883539  0.19624580  0.49971082
   0.27504722  0.29123056  0.49997476
   0.06248767  0.49853804  0.49950384
   0.11429632  0.39465006  0.49962225
   0.05973321  0.69855260  0.49976181
   0.11935248  0.59947138  0.49948938
   0.27776752  0.70238292  0.49987382
   0.22279196  0.80062288  0.50006886
   0.05548883  0.89875015  0.50027326
   0.11159061  0.79958437  0.50006411
   0.27789454  0.89955957  0.50021432
   0.55572493  0.00009942  0.49981216
   0.38773159  0.09881566  0.50019435
   0.44418639  0.99963663  0.50003010
   0.60990185  0.10010385  0.49999594
   0.55438436  0.19936652  0.50046228
   0.44068856  0.19981785  0.50036626
   0.55558277  0.60392430  0.50036944
   0.39010937  0.70072806  0.50016322
   0.61202704  0.70314805  0.49976156
   0.55649823  0.80180513  0.49972206
   0.38946114  0.90015919  0.50003970
   0.44478129  0.80061417  0.49995928
   0.61135607  0.90102837  0.49958906
   0.88826726  0.99934440  0.49991609
   0.72146621  0.10065044  0.49987803
   0.77708499  0.00029266  0.49968562
   0.94225833  0.09934856  0.49992935
   0.88707519  0.19999104  0.49986190
   0.71748807  0.30186824  0.50054294
   0.77486777  0.20123553  0.50006244
   0.94358798  0.29903238  0.49977308
   0.88957271  0.40020496  0.49998855
   0.72415997  0.50264130  0.50031350
   0.77760560  0.40096536  0.50042495
   0.94909824  0.49947978  0.49976066
   0.89281733  0.59965561  0.49986873
   0.72409415  0.70091712  0.49975001
   0.78076462  0.60121531  0.50001062
   0.94760992  0.69896323  0.49983554
   0.89092561  0.79913200  0.49988272
   0.72313046  0.90023239  0.49953851
   0.77907234  0.80030733  0.49966347
   0.94418146  0.89927930  0.50006767
   0.38566374  0.29927521  0.50048671
   0.60506502  0.29995178  0.50097574
   0.61485246  0.50764162  0.50025579
   0.44157941  0.59889767  0.50080489
   0.22010469  0.38705126  0.50015527
   0.22863967  0.60455809  0.49946860
   0.33088430  0.48502798  0.50031821
   0.50036561  0.41960376  0.50228012
 
 position of ions in cartesian coordinates  (Angst):
   2.84104094 12.52070781  9.99250534
   0.67695690  1.22649346  9.98782823
   1.42829103 12.52781726  9.99306861
   3.49879396  1.20827325  9.98869692
   2.78716299  2.43033935  9.98188802
   0.70008557  3.72597044  9.97894803
   1.37960729  2.46363212  9.98162034
   3.48997569  3.65576947  9.98689246
   0.80545655  6.25764881  9.97748597
   1.45744978  4.95376906  9.97985125
   0.77925814  8.76799668  9.98263899
   1.53044315  7.52444539  9.97719713
   3.54235381  8.81607048  9.98487629
   2.84997849 10.04906321  9.98877215
   0.73418315 11.28064161  9.99285503
   1.44078991 10.03602907  9.98867729
   3.55254462 11.29080046  9.99167766
   7.03404813  0.00183353  9.98364468
   4.90952918  1.24080410  9.99127876
   5.66415601 12.54684982  9.98799786
   7.72493002  1.25697183  9.98731556
   7.02572752  2.50280071  9.99663069
   5.58499566  2.50846517  9.99471264
   7.05853295  7.58033428  9.99477619
   4.96587302  8.79530104  9.99065697
   7.77812558  8.82567335  9.98263395
   7.07876146 10.06390097  9.98184489
   4.96634548 11.29832593  9.98818961
   5.66302875 10.04895378  9.98658331
   7.77824322 11.30923440  9.97918832
  11.29153788 12.54318192  9.98572065
   9.13869940  1.26383182  9.98496038
   9.83913328  0.00425873  9.98111692
  11.93651963  1.24749218  9.98598555
  11.24162270  2.51063826  9.98463824
   9.09704026  3.78928186  9.99824181
   9.81978115  2.52625783  9.98864392
  11.96206721  3.75368852  9.98286397
  11.28198817  5.02348810  9.98716789
   9.19033356  6.30914903  9.99365873
   9.86316694  5.03303233  9.99588502
  12.04062250  6.26946869  9.98261599
  11.33179159  7.52675805  9.98477457
   9.19814307  8.79767340  9.98240324
   9.91192526  7.54633370  9.98760889
  12.03044847  8.77315057  9.98411160
  11.31650619 10.03035121  9.98505405
   9.19461446 11.29924405  9.97817843
   9.89915640 10.04510232  9.98067459
  11.99572256 11.28728264  9.98874834
   4.89205029  3.75673708  9.99711858
   7.67232485  3.76522924 10.00688684
   7.80540749  6.37190703  9.99250602
   5.61365646  7.51724636 10.00347420
   2.79791386  4.85839848  9.99049819
   2.91555223  7.58828771  9.97678213
   4.20597712  6.08808735  9.99375291
   6.35076333  5.26696176 10.03294167
 


--------------------------------------------------------------------------------------------------------


 k-point  1 :   0.2500 0.2500-0.0000  plane waves:   80662
 k-point  2 :  -0.2500 0.2500 0.0000  plane waves:   80672

 maximum and minimum number of plane-waves per node :      2551     2466

 maximum number of plane-waves:     80672
 maximum index in each direction: 
   IXMAX=   23   IYMAX=   22   IZMAX=   36
   IXMIN=  -23   IYMIN=  -23   IZMIN=  -36


 parallel 3D FFT for wavefunctions:
    minimum data exchange during FFTs selected (reduces bandwidth)
 parallel 3D FFT for charge:
    minimum data exchange during FFTs selected (reduces bandwidth)


 FFT grid for exact exchange (Hartree Fock) 
  NGX = 70; NGY = 70; NGZ =112

 
 Radii for the augmentation spheres in the non-local exchange
 for species   1 augmentation radius   0.874 (default was   0.699)
       energy cutoff for augmentation   2000.0
 for species   2 augmentation radius   0.886 (default was   0.709)
       energy cutoff for augmentation   2000.0
 for species   3 augmentation radius   1.263 (default was   1.010)
       energy cutoff for augmentation   2000.0

 real space projection operators:
  total allocation   :       2447.74 KBytes
  max/ min on nodes  :        108.00         40.22

 Maximum index for augmentation-charges in exchange          126
  SETUP_FOCK is finished

 total amount of memory used by VASP MPI-rank0   161509. kBytes
=======================================================================

   base      :      30000. kBytes
   nonl-proj :       4585. kBytes
   fftplans  :      14250. kBytes
   grid      :      34043. kBytes
   one-center:         62. kBytes
   HF        :         23. kBytes
   nonlr-proj:       1617. kBytes
   wavefun   :      76929. kBytes
 
     INWAV:  cpu time    3.5162: real time    3.5174
 Broyden mixing: mesh for mixing (old mesh)
   NGX = 47   NGY = 45   NGZ = 73
  (NGX  =192   NGY  =192   NGZ  =300)
  gives a total of 154395 points

 charge density for first step will be calculated from the start-wavefunctions


--------------------------------------------------------------------------------------------------------


 Maximum index for augmentation-charges          737 (set IRDMAX)


--------------------------------------------------------------------------------------------------------


 initial charge from wavefunction
 First call to EWALD:  gamma=   0.121
 Maximum number of real-space cells 3x 3x 2
 Maximum number of reciprocal cells 2x 2x 4

    FEWALD:  cpu time    0.0043: real time    0.0043


--------------------------------------- Iteration      1(   1)  ---------------------------------------


    POTLOK:  cpu time    1.3746: real time    1.3757
    SETDIJ:  cpu time    2.0890: real time    2.0904
    TRIAL :  cpu time  514.3992: real time  514.7311
    CORREC:  cpu time    0.0020: real time    0.0020
    CHARGE:  cpu time    1.6864: real time    1.6875
    --------------------------------------------
      LOOP:  cpu time  519.5670: real time  519.9056

 eigenvalue-minimisations  :     0
 total energy-change (2. order) :-0.6068698E+03  (-0.5030114E+00)
 number of electron     241.9999994 magnetization       4.0000004
 augmentation part       13.7991879 magnetization       3.1021856

 DIPCOR: dipole corrections for dipol
 direction  3 min pos     1,
 dipolmoment           0.000005     -0.000000     -0.005642 electrons x Angstroem
 Tr[quadrupol]     -6436.770572

 energy correction for charged system         0.000000 eV
 dipol+quadrupol energy correction            0.000001 eV
 added-field ion interaction          0.000000 eV  (added to PSCEN)


 Free energy of the ion-electron system (eV)
  ---------------------------------------------------
  alpha Z        PSCENC =       100.92221868
  Ewald energy   TEWEN  =     38615.41472833
  -Hartree energ DENC   =    -46864.66500955
  -exchange      EXHF   =       542.73935586
  -V(xc)+E(xc)   XCENC  =       605.42135803
  PAW double counting   =     26075.02375885   -26120.54948161
  entropy T*S    EENTRO =        -0.00029556
  eigenvalues    EBANDS =     -3113.00033485
  atomic energy  EATOM  =      9551.82545455
  ---------------------------------------------------
  free energy    TOTEN  =      -606.86982734 eV

  energy without entropy =     -606.86953178  energy(sigma->0) =     -606.86967956
  exchange ACFDT corr.  =        -0.00550854  see jH, gK, PRB 81, 115126


--------------------------------------------------------------------------------------------------------




--------------------------------------- Iteration      1(   2)  ---------------------------------------


    POTLOK:  cpu time    1.3925: real time    1.3932
    SETDIJ:  cpu time    2.0871: real time    2.0908
    TRIAL :  cpu time  515.0158: real time  515.1148
    CORREC:  cpu time    0.0019: real time    0.0021
    CHARGE:  cpu time    1.6590: real time    1.6591
    --------------------------------------------
      LOOP:  cpu time  520.1595: real time  520.2631

 eigenvalue-minimisations  :     0
 total energy-change (2. order) :-0.4187724E+00  (-0.4679552E+00)
 number of electron     241.9999994 magnetization       4.0000004
 augmentation part       13.7807312 magnetization       3.1620125

 DIPCOR: dipole corrections for dipol
 direction  3 min pos     1,
 dipolmoment           0.000003     -0.000000     -0.003138 electrons x Angstroem
 Tr[quadrupol]     -6436.611389

 energy correction for charged system         0.000000 eV
 dipol+quadrupol energy correction            0.000000 eV
 added-field ion interaction          0.000000 eV  (added to PSCEN)


 Free energy of the ion-electron system (eV)
  ---------------------------------------------------
  alpha Z        PSCENC =       100.92221806
  Ewald energy   TEWEN  =     38615.41472833
  -Hartree energ DENC   =    -46851.08682710
  -exchange      EXHF   =       542.70723865
  -V(xc)+E(xc)   XCENC  =       605.08651731
  PAW double counting   =     26199.17167692   -26244.47299595
  entropy T*S    EENTRO =        -0.00002276
  eigenvalues    EBANDS =     -3126.85631498
  atomic energy  EATOM  =      9551.82545455
  ---------------------------------------------------
  free energy    TOTEN  =      -607.28859978 eV

  energy without entropy =     -607.28857701  energy(sigma->0) =     -607.28858839
  exchange ACFDT corr.  =        -0.00071921  see jH, gK, PRB 81, 115126


--------------------------------------------------------------------------------------------------------




--------------------------------------- Iteration      1(   3)  ---------------------------------------


    POTLOK:  cpu time    1.4039: real time    1.4040
    SETDIJ:  cpu time    2.0877: real time    2.0877
    TRIAL :  cpu time  514.7224: real time  514.7816
    CORREC:  cpu time    0.0017: real time    0.0019
    CHARGE:  cpu time    1.6584: real time    1.6584
    --------------------------------------------
      LOOP:  cpu time  519.8769: real time  519.9366

 eigenvalue-minimisations  :     0
 total energy-change (2. order) :-0.3654515E+00  (-0.2866474E+00)
 number of electron     241.9999994 magnetization       4.0000005
 augmentation part       13.7732655 magnetization       3.2103319

 DIPCOR: dipole corrections for dipol
 direction  3 min pos     1,
 dipolmoment           0.000003     -0.000000     -0.003100 electrons x Angstroem
 Tr[quadrupol]     -6436.443896

 energy correction for charged system         0.000000 eV
 dipol+quadrupol energy correction            0.000000 eV
 added-field ion interaction          0.000000 eV  (added to PSCEN)


 Free energy of the ion-electron system (eV)
  ---------------------------------------------------
  alpha Z        PSCENC =       100.92221805
  Ewald energy   TEWEN  =     38615.41472833
  -Hartree energ DENC   =    -46836.53854794
  -exchange      EXHF   =       542.74034806
  -V(xc)+E(xc)   XCENC  =       604.74519913
  PAW double counting   =     26358.64623286   -26403.65070116
  entropy T*S    EENTRO =        -0.00000262
  eigenvalues    EBANDS =     -3141.75896035
  atomic energy  EATOM  =      9551.82545455
  ---------------------------------------------------
  free energy    TOTEN  =      -607.65405124 eV

  energy without entropy =     -607.65404862  energy(sigma->0) =     -607.65404993
  exchange ACFDT corr.  =        -0.00003104  see jH, gK, PRB 81, 115126


--------------------------------------------------------------------------------------------------------




--------------------------------------- Iteration      1(   4)  ---------------------------------------


    POTLOK:  cpu time    1.4031: real time    1.4032
    SETDIJ:  cpu time    2.0895: real time    2.0895
    TRIAL :  cpu time  515.3274: real time  515.3838
    CORREC:  cpu time    0.0015: real time    0.0018
    CHARGE:  cpu time    1.6776: real time    1.6777
    --------------------------------------------
      LOOP:  cpu time  520.5021: real time  520.5589

 eigenvalue-minimisations  :     0
 total energy-change (2. order) :-0.2242708E+00  (-0.1762477E+00)
 number of electron     241.9999993 magnetization       4.0000005
 augmentation part       13.7777902 magnetization       3.2412053

 DIPCOR: dipole corrections for dipol
 direction  3 min pos     1,
 dipolmoment           0.000003     -0.000000     -0.003796 electrons x Angstroem
 Tr[quadrupol]     -6436.375836

 energy correction for charged system         0.000000 eV
 dipol+quadrupol energy correction            0.000000 eV
 added-field ion interaction          0.000000 eV  (added to PSCEN)


 Free energy of the ion-electron system (eV)
  ---------------------------------------------------
  alpha Z        PSCENC =       100.92221819
  Ewald energy   TEWEN  =     38615.41472833
  -Hartree energ DENC   =    -46829.72735620
  -exchange      EXHF   =       542.94223832
  -V(xc)+E(xc)   XCENC  =       604.60578348
  PAW double counting   =     26499.20333955   -26544.09471277
  entropy T*S    EENTRO =        -0.00000045
  eigenvalues    EBANDS =     -3148.97001281
  atomic energy  EATOM  =      9551.82545455
  ---------------------------------------------------
  free energy    TOTEN  =      -607.87832199 eV

  energy without entropy =     -607.87832154  energy(sigma->0) =     -607.87832177
  exchange ACFDT corr.  =        -0.00000128  see jH, gK, PRB 81, 115126


--------------------------------------------------------------------------------------------------------




--------------------------------------- Iteration      1(   5)  ---------------------------------------


    POTLOK:  cpu time    1.4021: real time    1.4020
    SETDIJ:  cpu time    2.0870: real time    2.0870
    TRIAL :  cpu time  515.8346: real time  516.0740
    CORREC:  cpu time    0.0015: real time    0.0017
    CHARGE:  cpu time    1.6594: real time    1.6600
    --------------------------------------------
      LOOP:  cpu time  520.9876: real time  521.2276

 eigenvalue-minimisations  :     0
 total energy-change (2. order) :-0.1437295E+00  (-0.1183562E+00)
 number of electron     241.9999993 magnetization       4.0000005
 augmentation part       13.7854046 magnetization       3.2585745

 DIPCOR: dipole corrections for dipol
 direction  3 min pos     1,
 dipolmoment           0.000004     -0.000000     -0.004472 electrons x Angstroem
 Tr[quadrupol]     -6436.402517

 energy correction for charged system         0.000000 eV
 dipol+quadrupol energy correction            0.000001 eV
 added-field ion interaction          0.000000 eV  (added to PSCEN)


 Free energy of the ion-electron system (eV)
  ---------------------------------------------------
  alpha Z        PSCENC =       100.92221835
  Ewald energy   TEWEN  =     38615.41472833
  -Hartree energ DENC   =    -46830.55558340
  -exchange      EXHF   =       543.26650766
  -V(xc)+E(xc)   XCENC  =       604.65811069
  PAW double counting   =     26603.44722506   -26648.39352117
  entropy T*S    EENTRO =        -0.00000010
  eigenvalues    EBANDS =     -3148.60719111
  atomic energy  EATOM  =      9551.82545455
  ---------------------------------------------------
  free energy    TOTEN  =      -608.02205149 eV

  energy without entropy =     -608.02205139  energy(sigma->0) =     -608.02205144
  exchange ACFDT corr.  =        -0.00000017  see jH, gK, PRB 81, 115126


--------------------------------------------------------------------------------------------------------




--------------------------------------- Iteration      1(   6)  ---------------------------------------


    POTLOK:  cpu time    1.4004: real time    1.4009
    SETDIJ:  cpu time    2.0882: real time    2.0885
    TRIAL :  cpu time  514.8873: real time  515.1350
    CORREC:  cpu time    0.0014: real time    0.0017
    CHARGE:  cpu time    1.6606: real time    1.6613
    --------------------------------------------
      LOOP:  cpu time  520.0408: real time  520.2903

 eigenvalue-minimisations  :     0
 total energy-change (2. order) :-0.9954342E-01  (-0.8123114E-01)
 number of electron     241.9999993 magnetization       4.0000005
 augmentation part       13.7915118 magnetization       3.2680479

 DIPCOR: dipole corrections for dipol
 direction  3 min pos     1,
 dipolmoment           0.000004     -0.000000     -0.004964 electrons x Angstroem
 Tr[quadrupol]     -6436.464120

 energy correction for charged system         0.000000 eV
 dipol+quadrupol energy correction            0.000001 eV
 added-field ion interaction          0.000000 eV  (added to PSCEN)


 Free energy of the ion-electron system (eV)
  ---------------------------------------------------
  alpha Z        PSCENC =       100.92221848
  Ewald energy   TEWEN  =     38615.41472833
  -Hartree energ DENC   =    -46834.49676897
  -exchange      EXHF   =       543.60139930
  -V(xc)+E(xc)   XCENC  =       604.78827412
  PAW double counting   =     26672.19083091   -26717.22626286
  entropy T*S    EENTRO =        -0.00000003
  eigenvalues    EBANDS =     -3145.14146866
  atomic energy  EATOM  =      9551.82545455
  ---------------------------------------------------
  free energy    TOTEN  =      -608.12159491 eV

  energy without entropy =     -608.12159488  energy(sigma->0) =     -608.12159490
  exchange ACFDT corr.  =        -0.00000003  see jH, gK, PRB 81, 115126


--------------------------------------------------------------------------------------------------------




--------------------------------------- Iteration      1(   7)  ---------------------------------------


    POTLOK:  cpu time    1.3983: real time    1.3989
    SETDIJ:  cpu time    2.0879: real time    2.0883
    TRIAL :  cpu time  515.7553: real time  515.9280
    CORREC:  cpu time    0.0014: real time    0.0017
    CHARGE:  cpu time    1.6603: real time    1.6603
    --------------------------------------------
      LOOP:  cpu time  520.9065: real time  521.0803

 eigenvalue-minimisations  :     0
 total energy-change (2. order) :-0.6953249E-01  (-0.5586115E-01)
 number of electron     241.9999993 magnetization       4.0000005
 augmentation part       13.7962557 magnetization       3.2738950

 DIPCOR: dipole corrections for dipol
 direction  3 min pos     1,
 dipolmoment           0.000004     -0.000000     -0.005136 electrons x Angstroem
 Tr[quadrupol]     -6436.518476

 energy correction for charged system         0.000000 eV
 dipol+quadrupol energy correction            0.000001 eV
 added-field ion interaction          0.000000 eV  (added to PSCEN)


 Free energy of the ion-electron system (eV)
  ---------------------------------------------------
  alpha Z        PSCENC =       100.92221853
  Ewald energy   TEWEN  =     38615.41472833
  -Hartree energ DENC   =    -46838.25745502
  -exchange      EXHF   =       543.87667232
  -V(xc)+E(xc)   XCENC  =       604.91255321
  PAW double counting   =     26713.65976235   -26758.76118303
  entropy T*S    EENTRO =        -0.00000001
  eigenvalues    EBANDS =     -3141.78387860
  atomic energy  EATOM  =      9551.82545455
  ---------------------------------------------------
  free energy    TOTEN  =      -608.19112740 eV

  energy without entropy =     -608.19112739  energy(sigma->0) =     -608.19112739
  exchange ACFDT corr.  =        -0.00000001  see jH, gK, PRB 81, 115126


--------------------------------------------------------------------------------------------------------




--------------------------------------- Iteration      1(   8)  ---------------------------------------


    POTLOK:  cpu time    1.3965: real time    1.3965
    SETDIJ:  cpu time    2.1160: real time    2.1161
    TRIAL :  cpu time  513.9311: real time  514.0523
    CORREC:  cpu time    0.0013: real time    0.0015
    CHARGE:  cpu time    1.6573: real time    1.6575
    --------------------------------------------
      LOOP:  cpu time  519.1051: real time  519.2271

 eigenvalue-minimisations  :     0
 total energy-change (2. order) :-0.4861429E-01  (-0.3913848E-01)
 number of electron     241.9999993 magnetization       4.0000005
 augmentation part       13.8003559 magnetization       3.2785754

 DIPCOR: dipole corrections for dipol
 direction  3 min pos     1,
 dipolmoment           0.000004     -0.000000     -0.005019 electrons x Angstroem
 Tr[quadrupol]     -6436.551853

 energy correction for charged system         0.000000 eV
 dipol+quadrupol energy correction            0.000001 eV
 added-field ion interaction          0.000000 eV  (added to PSCEN)


 Free energy of the ion-electron system (eV)
  ---------------------------------------------------
  alpha Z        PSCENC =       100.92221849
  Ewald energy   TEWEN  =     38615.41472833
  -Hartree energ DENC   =    -46840.70205136
  -exchange      EXHF   =       544.07597156
  -V(xc)+E(xc)   XCENC  =       605.00065580
  PAW double counting   =     26736.66717261   -26781.82411817
  entropy T*S    EENTRO =        -0.00000000
  eigenvalues    EBANDS =     -3139.61977348
  atomic energy  EATOM  =      9551.82545455
  ---------------------------------------------------
  free energy    TOTEN  =      -608.23974169 eV

  energy without entropy =     -608.23974169  energy(sigma->0) =     -608.23974169
  exchange ACFDT corr.  =        -0.00000000  see jH, gK, PRB 81, 115126


--------------------------------------------------------------------------------------------------------




--------------------------------------- Iteration      1(   9)  ---------------------------------------


    POTLOK:  cpu time    1.3936: real time    1.3937
    SETDIJ:  cpu time    2.1166: real time    2.1170
    TRIAL :  cpu time  513.8582: real time  513.9814
    CORREC:  cpu time    0.0013: real time    0.0016
    CHARGE:  cpu time    1.6575: real time    1.6579
    --------------------------------------------
      LOOP:  cpu time  519.0303: real time  519.1546

 eigenvalue-minimisations  :     0
 total energy-change (2. order) :-0.3457115E-01  (-0.2798627E-01)
 number of electron     241.9999993 magnetization       4.0000005
 augmentation part       13.8035882 magnetization       3.2830209

 DIPCOR: dipole corrections for dipol
 direction  3 min pos     1,
 dipolmoment           0.000004     -0.000000     -0.004823 electrons x Angstroem
 Tr[quadrupol]     -6436.567196

 energy correction for charged system         0.000000 eV
 dipol+quadrupol energy correction            0.000001 eV
 added-field ion interaction          0.000000 eV  (added to PSCEN)


 Free energy of the ion-electron system (eV)
  ---------------------------------------------------
  alpha Z        PSCENC =       100.92221844
  Ewald energy   TEWEN  =     38615.41472833
  -Hartree energ DENC   =    -46841.92634073
  -exchange      EXHF   =       544.21220599
  -V(xc)+E(xc)   XCENC  =       605.05392190
  PAW double counting   =     26748.49431776   -26793.70980588
  entropy T*S    EENTRO =        -0.00000000
  eigenvalues    EBANDS =     -3138.56101319
  atomic energy  EATOM  =      9551.82545455
  ---------------------------------------------------
  free energy    TOTEN  =      -608.27431284 eV

  energy without entropy =     -608.27431284  energy(sigma->0) =     -608.27431284
  exchange ACFDT corr.  =        -0.00000000  see jH, gK, PRB 81, 115126


--------------------------------------------------------------------------------------------------------




--------------------------------------- Iteration      1(  10)  ---------------------------------------


    POTLOK:  cpu time    1.3866: real time    1.3889
    SETDIJ:  cpu time    2.0880: real time    2.0882
    TRIAL :  cpu time  515.5518: real time  515.6620
    CORREC:  cpu time    0.0012: real time    0.0014
    CHARGE:  cpu time    1.6617: real time    1.6619
    --------------------------------------------
      LOOP:  cpu time  520.6921: real time  520.8053

 eigenvalue-minimisations  :     0
 total energy-change (2. order) :-0.2501256E-01  (-0.2033538E-01)
 number of electron     241.9999993 magnetization       4.0000005
 augmentation part       13.8057266 magnetization       3.2873215

 DIPCOR: dipole corrections for dipol
 direction  3 min pos     1,
 dipolmoment           0.000004     -0.000000     -0.004733 electrons x Angstroem
 Tr[quadrupol]     -6436.572160

 energy correction for charged system         0.000000 eV
 dipol+quadrupol energy correction            0.000001 eV
 added-field ion interaction          0.000000 eV  (added to PSCEN)


 Free energy of the ion-electron system (eV)
  ---------------------------------------------------
  alpha Z        PSCENC =       100.92221842
  Ewald energy   TEWEN  =     38615.41472833
  -Hartree energ DENC   =    -46842.38435887
  -exchange      EXHF   =       544.30581093
  -V(xc)+E(xc)   XCENC  =       605.08382656
  PAW double counting   =     26754.08675742   -26799.35767295
  entropy T*S    EENTRO =        -0.00000000
  eigenvalues    EBANDS =     -3138.19608976
  atomic energy  EATOM  =      9551.82545455
  ---------------------------------------------------
  free energy    TOTEN  =      -608.29932540 eV

  energy without entropy =     -608.29932539  energy(sigma->0) =     -608.29932540
  exchange ACFDT corr.  =        -0.00000000  see jH, gK, PRB 81, 115126


--------------------------------------------------------------------------------------------------------




--------------------------------------- Iteration      1(  11)  ---------------------------------------


    POTLOK:  cpu time    1.3835: real time    1.3836
    SETDIJ:  cpu time    2.0898: real time    2.0901
    TRIAL :  cpu time  514.4006: real time  514.5681
    CORREC:  cpu time    0.0013: real time    0.0015
    CHARGE:  cpu time    1.6653: real time    1.6658
    --------------------------------------------
      LOOP:  cpu time  519.5435: real time  519.7123

 eigenvalue-minimisations  :     0
 total energy-change (2. order) :-0.1835108E-01  (-0.1498823E-01)
 number of electron     241.9999993 magnetization       4.0000005
 augmentation part       13.8071082 magnetization       3.2913024

 DIPCOR: dipole corrections for dipol
 direction  3 min pos     1,
 dipolmoment           0.000004     -0.000000     -0.004769 electrons x Angstroem
 Tr[quadrupol]     -6436.573255

 energy correction for charged system         0.000000 eV
 dipol+quadrupol energy correction            0.000001 eV
 added-field ion interaction          0.000000 eV  (added to PSCEN)


 Free energy of the ion-electron system (eV)
  ---------------------------------------------------
  alpha Z        PSCENC =       100.92221842
  Ewald energy   TEWEN  =     38615.41472833
  -Hartree energ DENC   =    -46842.50189127
  -exchange      EXHF   =       544.37428073
  -V(xc)+E(xc)   XCENC  =       605.10163623
  PAW double counting   =     26756.51475300   -26801.82923159
  entropy T*S    EENTRO =        -0.00000000
  eigenvalues    EBANDS =     -3138.13962488
  atomic energy  EATOM  =      9551.82545455
  ---------------------------------------------------
  free energy    TOTEN  =      -608.31767648 eV

  energy without entropy =     -608.31767648  energy(sigma->0) =     -608.31767648
  exchange ACFDT corr.  =        -0.00000000  see jH, gK, PRB 81, 115126


--------------------------------------------------------------------------------------------------------




--------------------------------------- Iteration      1(  12)  ---------------------------------------


    POTLOK:  cpu time    1.3774: real time    1.3777
    SETDIJ:  cpu time    2.0848: real time    2.0852
    TRIAL :  cpu time  512.9501: real time  513.2555
    CORREC:  cpu time    0.0011: real time    0.0014
    CHARGE:  cpu time    1.6599: real time    1.6610
    --------------------------------------------
      LOOP:  cpu time  518.0766: real time  518.3840

 eigenvalue-minimisations  :     0
 total energy-change (2. order) :-0.1363550E-01  (-0.1117555E-01)
 number of electron     241.9999993 magnetization       4.0000005
 augmentation part       13.8082536 magnetization       3.2947992

 DIPCOR: dipole corrections for dipol
 direction  3 min pos     1,
 dipolmoment           0.000004     -0.000000     -0.004835 electrons x Angstroem
 Tr[quadrupol]     -6436.574106

 energy correction for charged system         0.000000 eV
 dipol+quadrupol energy correction            0.000001 eV
 added-field ion interaction          0.000000 eV  (added to PSCEN)


 Free energy of the ion-electron system (eV)
  ---------------------------------------------------
  alpha Z        PSCENC =       100.92221844
  Ewald energy   TEWEN  =     38615.41472833
  -Hartree energ DENC   =    -46842.55262674
  -exchange      EXHF   =       544.42884728
  -V(xc)+E(xc)   XCENC  =       605.11476616
  PAW double counting   =     26757.66340329   -26803.01059893
  entropy T*S    EENTRO =        -0.00000000
  eigenvalues    EBANDS =     -3138.13750436
  atomic energy  EATOM  =      9551.82545455
  ---------------------------------------------------
  free energy    TOTEN  =      -608.33131198 eV

  energy without entropy =     -608.33131197  energy(sigma->0) =     -608.33131198
  exchange ACFDT corr.  =        -0.00000000  see jH, gK, PRB 81, 115126


--------------------------------------------------------------------------------------------------------




--------------------------------------- Iteration      1(  13)  ---------------------------------------


    POTLOK:  cpu time    1.3738: real time    1.3747
    SETDIJ:  cpu time    2.0840: real time    2.0848
    TRIAL :  cpu time  513.2140: real time  513.5461
    CORREC:  cpu time    0.0012: real time    0.0014
    CHARGE:  cpu time    1.6573: real time    1.6580
    --------------------------------------------
      LOOP:  cpu time  518.3333: real time  518.6680

 eigenvalue-minimisations  :     0
 total energy-change (2. order) :-0.1024181E-01  (-0.8441457E-02)
 number of electron     241.9999993 magnetization       4.0000005
 augmentation part       13.8093706 magnetization       3.2977402

 DIPCOR: dipole corrections for dipol
 direction  3 min pos     1,
 dipolmoment           0.000004     -0.000000     -0.004846 electrons x Angstroem
 Tr[quadrupol]     -6436.575836

 energy correction for charged system         0.000000 eV
 dipol+quadrupol energy correction            0.000001 eV
 added-field ion interaction          0.000000 eV  (added to PSCEN)


 Free energy of the ion-electron system (eV)
  ---------------------------------------------------
  alpha Z        PSCENC =       100.92221845
  Ewald energy   TEWEN  =     38615.41472833
  -Hartree energ DENC   =    -46842.64775732
  -exchange      EXHF   =       544.47493264
  -V(xc)+E(xc)   XCENC  =       605.12647129
  PAW double counting   =     26758.64186948   -26804.01672654
  entropy T*S    EENTRO =        -0.00000000
  eigenvalues    EBANDS =     -3138.08274465
  atomic energy  EATOM  =      9551.82545455
  ---------------------------------------------------
  free energy    TOTEN  =      -608.34155378 eV

  energy without entropy =     -608.34155378  energy(sigma->0) =     -608.34155378
  exchange ACFDT corr.  =        -0.00000000  see jH, gK, PRB 81, 115126


--------------------------------------------------------------------------------------------------------




--------------------------------------- Iteration      1(  14)  ---------------------------------------


    POTLOK:  cpu time    1.3697: real time    1.3702
    SETDIJ:  cpu time    2.0846: real time    2.0852
    TRIAL :  cpu time  512.9962: real time  513.2199
    CORREC:  cpu time    0.0012: real time    0.0015
    CHARGE:  cpu time    1.6569: real time    1.6576
    --------------------------------------------
      LOOP:  cpu time  518.1114: real time  518.3371

 eigenvalue-minimisations  :     0
 total energy-change (2. order) :-0.7787478E-02  (-0.6459960E-02)
 number of electron     241.9999993 magnetization       4.0000005
 augmentation part       13.8103746 magnetization       3.3001423

 DIPCOR: dipole corrections for dipol
 direction  3 min pos     1,
 dipolmoment           0.000004     -0.000000     -0.004797 electrons x Angstroem
 Tr[quadrupol]     -6436.578249

 energy correction for charged system         0.000000 eV
 dipol+quadrupol energy correction            0.000001 eV
 added-field ion interaction          0.000000 eV  (added to PSCEN)


 Free energy of the ion-electron system (eV)
  ---------------------------------------------------
  alpha Z        PSCENC =       100.92221843
  Ewald energy   TEWEN  =     38615.41472833
  -Hartree energ DENC   =    -46842.78992805
  -exchange      EXHF   =       544.51458666
  -V(xc)+E(xc)   XCENC  =       605.13730131
  PAW double counting   =     26759.92400364   -26805.32415299
  entropy T*S    EENTRO =        -0.00000000
  eigenvalues    EBANDS =     -3137.97355314
  atomic energy  EATOM  =      9551.82545455
  ---------------------------------------------------
  free energy    TOTEN  =      -608.34934126 eV

  energy without entropy =     -608.34934126  energy(sigma->0) =     -608.34934126
  exchange ACFDT corr.  =        -0.00000000  see jH, gK, PRB 81, 115126


--------------------------------------------------------------------------------------------------------




--------------------------------------- Iteration      1(  15)  ---------------------------------------


    POTLOK:  cpu time    1.3659: real time    1.3661
    SETDIJ:  cpu time    2.0847: real time    2.0853
    TRIAL :  cpu time  513.6394: real time  513.9175
    CORREC:  cpu time    0.0012: real time    0.0014
    CHARGE:  cpu time    1.6552: real time    1.6564
    --------------------------------------------
      LOOP:  cpu time  518.7495: real time  519.0299

 eigenvalue-minimisations  :     0
 total energy-change (2. order) :-0.5994951E-02  (-0.5014646E-02)
 number of electron     241.9999993 magnetization       4.0000005
 augmentation part       13.8111666 magnetization       3.3020749

 DIPCOR: dipole corrections for dipol
 direction  3 min pos     1,
 dipolmoment           0.000004     -0.000000     -0.004732 electrons x Angstroem
 Tr[quadrupol]     -6436.580782

 energy correction for charged system         0.000000 eV
 dipol+quadrupol energy correction            0.000001 eV
 added-field ion interaction          0.000000 eV  (added to PSCEN)


 Free energy of the ion-electron system (eV)
  ---------------------------------------------------
  alpha Z        PSCENC =       100.92221841
  Ewald energy   TEWEN  =     38615.41472833
  -Hartree energ DENC   =    -46842.94201942
  -exchange      EXHF   =       544.54859981
  -V(xc)+E(xc)   XCENC  =       605.14685314
  PAW double counting   =     26761.57983429   -26807.00182816
  entropy T*S    EENTRO =        -0.00000000
  eigenvalues    EBANDS =     -3137.84917716
  atomic energy  EATOM  =      9551.82545455
  ---------------------------------------------------
  free energy    TOTEN  =      -608.35533621 eV

  energy without entropy =     -608.35533621  energy(sigma->0) =     -608.35533621
  exchange ACFDT corr.  =        -0.00000000  see jH, gK, PRB 81, 115126


--------------------------------------------------------------------------------------------------------




--------------------------------------- Iteration      1(  16)  ---------------------------------------


    POTLOK:  cpu time    1.3650: real time    1.3658
    SETDIJ:  cpu time    2.0859: real time    2.0864
    TRIAL :  cpu time  513.2235: real time  513.5512
    CORREC:  cpu time    0.0011: real time    0.0014
    CHARGE:  cpu time    1.6575: real time    1.6586
    --------------------------------------------
      LOOP:  cpu time  518.3362: real time  518.6666

 eigenvalue-minimisations  :     0
 total energy-change (2. order) :-0.4678765E-02  (-0.3950206E-02)
 number of electron     241.9999993 magnetization       4.0000005
 augmentation part       13.8117797 magnetization       3.3036524

 DIPCOR: dipole corrections for dipol
 direction  3 min pos     1,
 dipolmoment           0.000004     -0.000000     -0.004684 electrons x Angstroem
 Tr[quadrupol]     -6436.583037

 energy correction for charged system         0.000000 eV
 dipol+quadrupol energy correction            0.000001 eV
 added-field ion interaction          0.000000 eV  (added to PSCEN)


 Free energy of the ion-electron system (eV)
  ---------------------------------------------------
  alpha Z        PSCENC =       100.92221840
  Ewald energy   TEWEN  =     38615.41472833
  -Hartree energ DENC   =    -46843.07648127
  -exchange      EXHF   =       544.57768308
  -V(xc)+E(xc)   XCENC  =       605.15492219
  PAW double counting   =     26763.44633687   -26808.88561340
  entropy T*S    EENTRO =        -0.00000000
  eigenvalues    EBANDS =     -3137.73926372
  atomic energy  EATOM  =      9551.82545455
  ---------------------------------------------------
  free energy    TOTEN  =      -608.36001498 eV

  energy without entropy =     -608.36001498  energy(sigma->0) =     -608.36001498
  exchange ACFDT corr.  =        -0.00000000  see jH, gK, PRB 81, 115126


--------------------------------------------------------------------------------------------------------




--------------------------------------- Iteration      1(  17)  ---------------------------------------


    POTLOK:  cpu time    1.3659: real time    1.3666
    SETDIJ:  cpu time    2.0838: real time    2.0844
    TRIAL :  cpu time  512.9300: real time  513.2448
    CORREC:  cpu time    0.0011: real time    0.0014
    CHARGE:  cpu time    1.6585: real time    1.6594
    --------------------------------------------
      LOOP:  cpu time  518.0419: real time  518.3592

 eigenvalue-minimisations  :     0
 total energy-change (2. order) :-0.3704033E-02  (-0.3158737E-02)
 number of electron     241.9999993 magnetization       4.0000005
 augmentation part       13.8123010 magnetization       3.3049926

 DIPCOR: dipole corrections for dipol
 direction  3 min pos     1,
 dipolmoment           0.000004     -0.000000     -0.004654 electrons x Angstroem
 Tr[quadrupol]     -6436.584854

 energy correction for charged system         0.000000 eV
 dipol+quadrupol energy correction            0.000001 eV
 added-field ion interaction          0.000000 eV  (added to PSCEN)


 Free energy of the ion-electron system (eV)
  ---------------------------------------------------
  alpha Z        PSCENC =       100.92221839
  Ewald energy   TEWEN  =     38615.41472833
  -Hartree energ DENC   =    -46843.18674937
  -exchange      EXHF   =       544.60263273
  -V(xc)+E(xc)   XCENC  =       605.16171505
  PAW double counting   =     26765.30767161   -26810.76071131
  entropy T*S    EENTRO =        -0.00000000
  eigenvalues    EBANDS =     -3137.65067899
  atomic energy  EATOM  =      9551.82545455
  ---------------------------------------------------
  free energy    TOTEN  =      -608.36371901 eV

  energy without entropy =     -608.36371901  energy(sigma->0) =     -608.36371901
  exchange ACFDT corr.  =        -0.00000000  see jH, gK, PRB 81, 115126


--------------------------------------------------------------------------------------------------------




--------------------------------------- Iteration      1(  18)  ---------------------------------------


    POTLOK:  cpu time    1.3626: real time    1.3633
    SETDIJ:  cpu time    2.0836: real time    2.0844
    TRIAL :  cpu time  513.2598: real time  513.5637
    CORREC:  cpu time    0.0011: real time    0.0013
    CHARGE:  cpu time    1.6588: real time    1.6590
    --------------------------------------------
      LOOP:  cpu time  518.3691: real time  518.6749

 eigenvalue-minimisations  :     0
 total energy-change (2. order) :-0.2976125E-02  (-0.2565624E-02)
 number of electron     241.9999993 magnetization       4.0000005
 augmentation part       13.8127555 magnetization       3.3061559

 DIPCOR: dipole corrections for dipol
 direction  3 min pos     1,
 dipolmoment           0.000004     -0.000000     -0.004629 electrons x Angstroem
 Tr[quadrupol]     -6436.586266

 energy correction for charged system         0.000000 eV
 dipol+quadrupol energy correction            0.000001 eV
 added-field ion interaction          0.000000 eV  (added to PSCEN)


 Free energy of the ion-electron system (eV)
  ---------------------------------------------------
  alpha Z        PSCENC =       100.92221839
  Ewald energy   TEWEN  =     38615.41472833
  -Hartree energ DENC   =    -46843.27783903
  -exchange      EXHF   =       544.62417003
  -V(xc)+E(xc)   XCENC  =       605.16757124
  PAW double counting   =     26767.03530739   -26812.50038053
  entropy T*S    EENTRO =        -0.00000000
  eigenvalues    EBANDS =     -3137.57792549
  atomic energy  EATOM  =      9551.82545455
  ---------------------------------------------------
  free energy    TOTEN  =      -608.36669513 eV

  energy without entropy =     -608.36669513  energy(sigma->0) =     -608.36669513
  exchange ACFDT corr.  =        -0.00000000  see jH, gK, PRB 81, 115126


--------------------------------------------------------------------------------------------------------




--------------------------------------- Iteration      1(  19)  ---------------------------------------


    POTLOK:  cpu time    1.3606: real time    1.3609
    SETDIJ:  cpu time    2.1109: real time    2.1114
    TRIAL :  cpu time  512.1307: real time  512.2477
    CORREC:  cpu time    0.0011: real time    0.0014
    CHARGE:  cpu time    1.6596: real time    1.6598
    --------------------------------------------
      LOOP:  cpu time  517.2659: real time  517.3841

 eigenvalue-minimisations  :     0
 total energy-change (2. order) :-0.2428482E-02  (-0.2114870E-02)
 number of electron     241.9999993 magnetization       4.0000005
 augmentation part       13.8131288 magnetization       3.3071578

 DIPCOR: dipole corrections for dipol
 direction  3 min pos     1,
 dipolmoment           0.000004     -0.000000     -0.004598 electrons x Angstroem
 Tr[quadrupol]     -6436.587387

 energy correction for charged system         0.000000 eV
 dipol+quadrupol energy correction            0.000001 eV
 added-field ion interaction          0.000000 eV  (added to PSCEN)


 Free energy of the ion-electron system (eV)
  ---------------------------------------------------
  alpha Z        PSCENC =       100.92221838
  Ewald energy   TEWEN  =     38615.41472833
  -Hartree energ DENC   =    -46843.35439950
  -exchange      EXHF   =       544.64281194
  -V(xc)+E(xc)   XCENC  =       605.17269329
  PAW double counting   =     26768.56491085   -26814.04079533
  entropy T*S    EENTRO =        -0.00000000
  eigenvalues    EBANDS =     -3137.51674612
  atomic energy  EATOM  =      9551.82545455
  ---------------------------------------------------
  free energy    TOTEN  =      -608.36912362 eV

  energy without entropy =     -608.36912362  energy(sigma->0) =     -608.36912362
  exchange ACFDT corr.  =        -0.00000000  see jH, gK, PRB 81, 115126


--------------------------------------------------------------------------------------------------------




--------------------------------------- Iteration      1(  20)  ---------------------------------------


    POTLOK:  cpu time    1.3593: real time    1.3596
    SETDIJ:  cpu time    2.0864: real time    2.0866
    TRIAL :  cpu time  511.2776: real time  511.4643
    CORREC:  cpu time    0.0011: real time    0.0014
    CHARGE:  cpu time    1.6615: real time    1.6617
    --------------------------------------------
      LOOP:  cpu time  516.3880: real time  516.5756

 eigenvalue-minimisations  :     0
 total energy-change (2. order) :-0.2010561E-02  (-0.1768915E-02)
 number of electron     241.9999993 magnetization       4.0000005
 augmentation part       13.8134380 magnetization       3.3080137

 DIPCOR: dipole corrections for dipol
 direction  3 min pos     1,
 dipolmoment           0.000004     -0.000000     -0.004567 electrons x Angstroem
 Tr[quadrupol]     -6436.588333

 energy correction for charged system         0.000000 eV
 dipol+quadrupol energy correction            0.000001 eV
 added-field ion interaction          0.000000 eV  (added to PSCEN)


 Free energy of the ion-electron system (eV)
  ---------------------------------------------------
  alpha Z        PSCENC =       100.92221837
  Ewald energy   TEWEN  =     38615.41472833
  -Hartree energ DENC   =    -46843.41939294
  -exchange      EXHF   =       544.65892681
  -V(xc)+E(xc)   XCENC  =       605.17716080
  PAW double counting   =     26769.86167012   -26815.34686277
  entropy T*S    EENTRO =        -0.00000000
  eigenvalues    EBANDS =     -3137.46503743
  atomic energy  EATOM  =      9551.82545455
  ---------------------------------------------------
  free energy    TOTEN  =      -608.37113418 eV

  energy without entropy =     -608.37113418  energy(sigma->0) =     -608.37113418
  exchange ACFDT corr.  =        -0.00000000  see jH, gK, PRB 81, 115126


--------------------------------------------------------------------------------------------------------




--------------------------------------- Iteration      1(  21)  ---------------------------------------


    POTLOK:  cpu time    1.3612: real time    1.3614
    SETDIJ:  cpu time    2.0868: real time    2.0869
[...]
  augment    46.33058    50.86601    51.06229    -0.24168     0.45350     0.35844
  Kinetic  3554.12584  3542.67876  4012.02667    11.53673     0.35643     0.48811
  Fock     -322.42762  -327.35577  -303.38400     0.87973    -0.34132    -0.38830
  -------------------------------------------------------------------------------------
  Total     -11.12259   -56.19514    -0.29129     8.98954     0.01211     0.07428
  in kB      -5.60941   -28.34064    -0.14691     4.53365     0.00611     0.03746
  external pressure =      -11.37 kB  Pullay stress =        0.00 kB


 VOLUME and BASIS-vectors are now :
 -----------------------------------------------------------------------------
  energy-cutoff  :      500.00
  volume of cell :     3176.87
      direct lattice vectors                 reciprocal lattice vectors
    12.672000000  0.000000000  0.000000000     0.078914141 -0.000273811  0.000064061
     0.043547953 12.550824450  0.000000000     0.000000000  0.079676041 -0.000004674
    -0.016211108  0.001171858 19.974793387     0.000000000  0.000000000  0.050063096

  length of vectors
    12.672000000 12.550900000 19.974800000     0.078914642  0.079676041  0.050063096


 FORCES acting on ions:
    Electron-Ion                     Ewald-Force                    Non-Local-Force
 -----------------------------------------------------------------------------------------------
   -.143E+01 0.951E+00 -.139E+01   0.147E+01 -.885E+00 0.138E+01   -.835E-01 -.102E+00 -.461E-02
   0.215E+01 0.425E+01 -.370E+00   -.237E+01 -.434E+01 0.375E+00   0.163E+00 0.114E+00 -.105E-01
   0.832E+01 -.130E+01 -.185E+01   -.824E+01 0.134E+01 0.185E+01   0.253E-02 -.513E-01 -.757E-02
   -.888E+00 0.614E+01 0.140E+00   0.142E+01 -.619E+01 -.134E+00   -.443E+00 0.122E+00 -.962E-02
   -.415E+00 0.128E+02 0.281E+01   0.732E+00 -.131E+02 -.282E+01   -.292E+00 0.252E+00 0.305E-01
   0.118E+02 -.469E+00 0.263E+01   -.125E+02 0.993E-01 -.264E+01   0.576E+00 0.319E+00 0.131E-01
   0.145E+02 0.369E+01 0.187E+01   -.146E+02 -.390E+01 -.187E+01   0.103E+00 0.192E+00 0.964E-03
   -.173E+02 0.335E+02 0.175E+01   0.212E+02 -.373E+02 -.167E+01   -.367E+01 0.366E+01 -.520E-01
   0.659E+01 -.321E+01 0.276E+01   -.692E+01 0.333E+01 -.277E+01   0.228E+00 -.557E-01 0.191E-01
   0.530E+02 -.149E+02 0.262E+01   -.567E+02 0.152E+02 -.267E+01   0.405E+01 -.365E+00 0.666E-01
   0.817E+01 0.449E+01 0.109E+01   -.867E+01 -.438E+01 -.109E+01   0.390E+00 -.102E+00 0.282E-02
   0.394E+02 0.105E+02 0.286E+01   -.428E+02 -.108E+02 -.284E+01   0.352E+01 0.351E+00 -.161E-02
   -.121E+02 -.300E+02 0.985E+00   0.146E+02 0.328E+02 -.952E+00   -.258E+01 -.297E+01 -.283E-01
   -.191E+01 -.113E+02 -.365E+00   0.190E+01 0.119E+02 0.367E+00   -.318E-01 -.513E+00 -.354E-02
   0.128E+00 0.431E+00 -.205E+01   -.343E+00 -.202E+00 0.205E+01   0.173E+00 -.204E+00 -.198E-01
   0.135E+02 -.462E+01 -.568E+00   -.138E+02 0.485E+01 0.560E+00   0.265E+00 -.252E+00 0.297E-02
   0.859E+00 -.162E+01 -.123E+01   -.483E+00 0.190E+01 0.124E+01   -.361E+00 -.260E+00 -.152E-01
   -.693E+01 -.296E+01 0.143E+01   0.706E+01 0.315E+01 -.143E+01   -.140E+00 -.236E+00 0.214E-02
   -.123E+02 0.111E+00 -.526E+00   0.127E+02 0.461E+00 0.523E+00   -.440E+00 -.539E+00 -.445E-02
   0.146E+00 -.202E+01 0.143E+00   0.125E-01 0.221E+01 -.131E+00   -.119E+00 -.199E+00 -.852E-02
   0.204E+01 -.246E+01 0.852E+00   -.230E+01 0.308E+01 -.849E+00   0.288E+00 -.561E+00 0.503E-02
   -.523E+01 -.189E+01 -.978E+00   0.575E+01 0.325E+01 0.951E+00   -.304E+00 -.127E+01 0.383E-01
   -.830E+01 -.203E+00 -.468E+00   0.827E+01 0.148E+01 0.394E+00   -.119E+00 -.109E+01 0.710E-01
   -.249E+01 -.112E+02 -.508E+00   0.245E+01 0.115E+02 0.628E+00   0.257E+00 0.812E-01 -.161E+00
   -.171E+02 -.651E+01 -.246E+00   0.183E+02 0.531E+01 0.217E+00   -.111E+01 0.106E+01 0.380E-01
   -.153E+01 0.910E+00 0.239E+01   0.124E+01 -.131E+01 -.244E+01   0.314E+00 0.472E+00 0.572E-01
   -.586E+01 -.192E+01 0.181E+01   0.593E+01 0.184E+01 -.180E+01   -.702E-01 0.500E-01 -.102E-02
   -.756E+01 -.218E+01 0.138E+00   0.789E+01 0.225E+01 -.148E+00   -.300E+00 -.605E-01 0.949E-02
   -.677E+00 -.798E+00 0.564E+00   0.597E+00 0.545E+00 -.568E+00   0.126E+00 0.274E+00 0.307E-02
   0.247E+00 -.140E+01 0.242E+01   -.355E+00 0.157E+01 -.242E+01   0.114E+00 -.115E+00 0.774E-02
   -.361E+01 0.883E+00 0.159E+00   0.336E+01 -.839E+00 -.154E+00   0.161E+00 -.257E-01 -.610E-02
   -.687E+01 -.223E+01 0.112E+01   0.664E+01 0.261E+01 -.111E+01   0.151E+00 -.308E+00 -.427E-02
   0.699E+01 -.364E+01 0.185E+01   -.710E+01 0.379E+01 -.185E+01   0.181E+00 -.178E+00 0.109E-01
   0.110E+02 -.317E+01 0.288E+00   -.111E+02 0.332E+01 -.289E+00   0.217E+00 -.119E+00 0.131E-02
   0.200E+01 -.182E+01 0.105E+01   -.247E+01 0.189E+01 -.106E+01   0.459E+00 -.666E-01 0.133E-01
   -.702E-01 -.100E+02 -.177E+01   -.160E+01 0.999E+01 0.181E+01   0.155E+01 -.161E+00 -.376E-01
   0.702E+01 -.852E+01 0.328E+00   -.754E+01 0.912E+01 -.327E+00   0.512E+00 -.584E+00 0.157E-02
   0.148E+02 -.297E+01 0.129E+01   -.152E+02 0.300E+01 -.128E+01   0.452E+00 -.925E-01 -.481E-02
   -.103E+00 -.398E+01 0.165E+00   -.511E+00 0.398E+01 -.164E+00   0.483E+00 0.166E-02 -.279E-02
   -.910E+01 0.133E+02 -.911E+00   0.859E+01 -.135E+02 0.875E+00   0.467E+00 0.273E+00 -.360E-02
   0.117E+02 0.657E+01 -.197E+01   -.125E+02 -.678E+01 0.201E+01   0.871E+00 0.227E+00 -.443E-01
   0.738E+01 0.341E+01 0.109E+01   -.753E+01 -.346E+01 -.109E+01   0.156E+00 0.706E-01 -.970E-03
   -.186E+01 0.581E+01 0.467E+00   0.155E+01 -.586E+01 -.467E+00   0.272E+00 0.741E-01 0.209E-02
   -.608E+01 0.344E+01 0.162E+01   0.583E+01 -.365E+01 -.162E+01   0.159E+00 0.227E+00 0.282E-02
   0.696E+00 0.753E+00 -.784E-02   -.958E+00 -.124E+01 -.189E-01   0.258E+00 0.398E+00 0.993E-02
   0.778E+01 -.897E+00 0.499E+00   -.812E+01 0.729E+00 -.500E+00   0.366E+00 0.124E+00 0.114E-03
   -.265E+01 0.473E+01 0.156E+00   0.248E+01 -.471E+01 -.153E+00   0.119E+00 0.221E-01 -.773E-02
   -.594E+01 0.972E+00 0.256E+01   0.585E+01 -.958E+00 -.256E+01   0.532E-01 -.501E-02 0.968E-02
   0.342E+01 -.112E+01 0.169E+01   -.353E+01 0.104E+01 -.168E+01   0.126E+00 0.856E-01 0.205E-03
   0.931E+01 -.235E+01 -.787E+00   -.946E+01 0.235E+01 0.775E+00   0.174E+00 -.326E-01 0.650E-03
   -.403E+02 -.259E+02 -.802E+00   0.441E+02 0.312E+02 0.890E+00   -.411E+01 -.535E+01 -.946E-01
   0.355E+01 -.355E+02 -.371E+01   -.724E+01 0.413E+02 0.370E+01   0.372E+01 -.577E+01 -.380E-01
   -.161E+02 0.281E+02 0.307E+01   0.136E+02 -.342E+02 -.283E+01   0.218E+01 0.625E+01 -.718E-01
   0.114E+01 0.189E+02 -.437E+01   -.506E+01 -.248E+02 0.446E+01   0.447E+01 0.595E+01 -.964E-01
   0.461E+01 -.284E+02 -.176E+01   0.550E+01 0.429E+02 0.205E+01   -.971E+01 -.138E+02 -.316E+00
   -.186E+01 0.361E+02 0.530E+01   0.128E+02 -.528E+02 -.553E+01   -.105E+02 0.158E+02 0.239E+00
   -.361E+02 -.500E+01 -.147E+00   0.341E+02 0.953E+01 0.134E+00   0.740E+00 -.399E+01 0.146E-01
   -.886E+01 0.321E+02 -.251E+02   0.140E+02 -.396E+02 0.247E+02   -.464E+01 0.621E+01 0.404E+00
 -----------------------------------------------------------------------------------------------
   0.108E+02 -.355E+01 0.780E-02   0.341E-12 -.142E-13 0.107E-13   -.101E+02 0.327E+01 0.213E-01
 
 
 POSITION                                       TOTAL-FORCE (eV/Angst)
 -----------------------------------------------------------------------------------
      2.84104     12.52071      9.99251        -0.054085     -0.041414     -0.010948
      0.67696      1.22649      9.98783        -0.050158      0.032532     -0.006664
      1.42829     12.52782      9.99307         0.088448     -0.013031     -0.015771
      3.49879      1.20827      9.98870         0.065998      0.078403     -0.004432
      2.78716      2.43034      9.98189         0.007830     -0.019643      0.018861
      0.70009      3.72597      9.97895        -0.105113     -0.034756      0.008944
      1.37961      2.46363      9.98162         0.052700     -0.012537      0.006533
      3.48998      3.65577      9.98689        -0.052826      0.084415      0.027647
      0.80546      6.25765      9.97749        -0.097521      0.051560      0.009397
      1.45745      4.95377      9.97985         0.509764     -0.111795      0.020009
      0.77926      8.76800      9.98264        -0.098464      0.009550      0.006140
      1.53044      7.52445      9.97720         0.310844      0.096425      0.018286
      3.54235      8.81607      9.98488        -0.199856     -0.357024      0.004046
      2.84998     10.04906      9.98877        -0.047023      0.046342     -0.001729
      0.73418     11.28064      9.99286        -0.043351      0.017819     -0.017354
      1.44079     10.03603      9.98868         0.086245     -0.040652     -0.005617
      3.55254     11.29080      9.99168         0.002153      0.006232     -0.004310
      7.03405      0.00183      9.98364        -0.032528     -0.059502      0.004474
      4.90953      1.24080      9.99128        -0.095223      0.006318     -0.007085
      5.66416     12.54685      9.98800         0.041570     -0.022242      0.002312
      7.72493      1.25697      9.98732         0.048732      0.031342      0.008805
      7.02573      2.50280      9.99663         0.193605      0.041413      0.012613
      5.58500      2.50847      9.99471        -0.148518      0.135433      0.000213
      7.05853      7.58033      9.99478         0.223086      0.332112     -0.048422
      4.96587      8.79530      9.99066         0.046955     -0.098077      0.011317
      7.77813      8.82567      9.98263         0.037662      0.090579      0.002354
      7.07876     10.06390      9.98184        -0.006114     -0.032038      0.004934
      4.96635     11.29833      9.98819         0.008005      0.001169      0.000029
      5.66303     10.04895      9.98658         0.060147      0.036063     -0.001050
      7.77824     11.30923      9.97919         0.017907      0.049060      0.009202
     11.29154     12.54318      9.98572        -0.094173      0.021011     -0.001610
      9.13870      1.26383      9.98496        -0.080311      0.059953      0.003687
      9.83913      0.00426      9.98112         0.094241     -0.038959      0.009790
     11.93652      1.24749      9.98599         0.084208      0.014868      0.000941
     11.24162      2.51064      9.98464         0.006173     -0.001955      0.005473
      9.09704      3.78928      9.99824        -0.048651     -0.184777     -0.005561
      9.81978      2.52626      9.98864         0.025526     -0.018818      0.002052
     11.96207      3.75369      9.98286         0.077750     -0.067031      0.002093
     11.28199      5.02349      9.98717        -0.116006     -0.007685     -0.001283
      9.19033      6.30915      9.99366        -0.037159      0.153150     -0.041145
      9.86317      5.03303      9.99589         0.097590      0.034354     -0.012868
     12.04062      6.26947      9.98262         0.017699      0.029777      0.000639
     11.33179      7.52676      9.98477        -0.034735      0.031425      0.001422
      9.19814      8.79767      9.98240        -0.097365      0.036696     -0.000481
      9.91193      7.54633      9.98761         0.014695     -0.080057     -0.016508
     12.03045      8.77315      9.98411         0.058281     -0.043938     -0.000964
     11.31651     10.03035      9.98505        -0.059788      0.054853     -0.005016
      9.19461     11.29924      9.97818        -0.050871      0.012718      0.013965
      9.89916     10.04510      9.98067         0.039751      0.005518      0.004349
     11.99572     11.28728      9.98875         0.045674     -0.047951     -0.010709
      4.89205      3.75674      9.99712        -0.544308     -0.322051     -0.011781
      7.67232      3.76523     10.00689         0.220351     -0.298473     -0.049544
      7.80541      6.37191      9.99251        -0.196863      0.481876      0.166860
      5.61366      7.51725     10.00347         0.786892      0.366224     -0.015034
      2.79791      4.85840      9.99050        -0.432172     -0.503781     -0.052009
      2.91555      7.58829      9.97678        -0.441937      0.515202      0.027674
      4.20598      6.08809      9.99375        -1.158829      0.458253      0.014710
      6.35076      5.26696     10.03294         1.053464     -0.964457     -0.081879
 -----------------------------------------------------------------------------------
    total drift:                               -0.003110      0.001626      0.003967


--------------------------------------------------------------------------------------------------------



  FREE ENERGIE OF THE ION-ELECTRON SYSTEM (eV)
  ---------------------------------------------------
  free  energy   TOTEN  =      -608.39612083 eV

  energy  without entropy=     -608.39612083  energy(sigma->0) =     -608.39612083
 


--------------------------------------------------------------------------------------------------------


    POTLOK:  cpu time    3.4377: real time    3.4378


--------------------------------------------------------------------------------------------------------


 stress matrix after NEB project (eV)
    -11.12259      8.98982      0.07428
      8.98954    -56.19514      0.00852
      0.07549      0.01211     -0.29129
  FORCES: max atom, RMS     1.430618    0.352481
  FORCE total and by dimension    2.684415    1.158829
  Stress total and by dimension   58.679897   56.195136
 writing wavefunctions
     LOOP+:  cpu time55881.0770: real time55892.8664
    4ORBIT:  cpu time    0.0000: real time    0.0000
 


 total charge     
 
# of ion       s       p       d       tot
------------------------------------------
    1        0.871   1.789   0.000   2.660
    2        0.868   1.784   0.000   2.651
    3        0.868   1.773   0.000   2.641
    4        0.873   1.793   0.000   2.666
    5        0.876   1.811   0.000   2.688
    6        0.865   1.780   0.000   2.645
    7        0.871   1.776   0.000   2.648
    8        0.874   1.751   0.000   2.625
    9        0.849   1.748   0.000   2.597
   10        0.862   1.725   0.000   2.587
   11        0.863   1.765   0.000   2.628
   12        0.850   1.690   0.000   2.540
   13        0.873   1.744   0.000   2.617
   14        0.872   1.802   0.000   2.674
   15        0.868   1.785   0.000   2.653
   16        0.870   1.772   0.000   2.642
   17        0.871   1.782   0.000   2.653
   18        0.868   1.781   0.000   2.648
   19        0.868   1.775   0.000   2.643
   20        0.869   1.770   0.000   2.639
   21        0.870   1.772   0.000   2.643
   22        0.873   1.761   0.000   2.634
   23        0.871   1.735   0.000   2.606
   24        0.871   1.742   0.000   2.613
   25        0.868   1.770   0.000   2.638
   26        0.871   1.769   0.000   2.640
   27        0.870   1.783   0.000   2.652
   28        0.867   1.780   0.000   2.647
   29        0.869   1.768   0.000   2.636
   30        0.869   1.775   0.000   2.644
   31        0.866   1.777   0.000   2.643
   32        0.865   1.769   0.000   2.634
   33        0.868   1.767   0.000   2.635
   34        0.868   1.763   0.000   2.631
   35        0.863   1.762   0.000   2.625
   36        0.857   1.728   0.000   2.585
   37        0.864   1.747   0.000   2.611
   38        0.867   1.762   0.000   2.629
   39        0.859   1.755   0.000   2.614
   40        0.868   1.786   0.000   2.654
   41        0.867   1.729   0.000   2.596
   42        0.859   1.723   0.000   2.581
   43        0.864   1.769   0.000   2.633
   44        0.865   1.767   0.000   2.632
   45        0.867   1.756   0.000   2.623
   46        0.865   1.757   0.000   2.622
   47        0.864   1.769   0.000   2.633
   48        0.866   1.770   0.000   2.636
   49        0.867   1.764   0.000   2.631
   50        0.868   1.769   0.000   2.637
   51        0.857   1.675   0.000   2.533
   52        0.871   1.639   0.000   2.510
   53        0.890   1.716   0.000   2.606
   54        0.863   1.639   0.000   2.502
   55        1.238   2.717   0.000   3.955
   56        1.231   2.653   0.000   3.883
   57        0.442   0.555   6.271   7.268
   58        0.495   0.570   6.288   7.354
--------------------------------------------------
tot         50.230 101.406  12.559 164.195
 


 magnetization (x)
 
# of ion       s       p       d       tot
------------------------------------------
    1        0.000   0.002   0.000   0.002
    2        0.000   0.002   0.000   0.003
    3       -0.001  -0.008   0.000  -0.008
    4        0.000   0.003   0.000   0.003
    5        0.000   0.002   0.000   0.002
    6       -0.000   0.000   0.000   0.000
    7       -0.000  -0.007   0.000  -0.007
    8        0.001  -0.002   0.000  -0.001
    9       -0.000  -0.005   0.000  -0.005
   10        0.000   0.001   0.000   0.002
   11        0.000   0.002   0.000   0.002
   12        0.000   0.001   0.000   0.001
   13       -0.001  -0.019   0.000  -0.021
   14        0.000   0.003   0.000   0.004
   15        0.000   0.004   0.000   0.004
   16       -0.001  -0.007   0.000  -0.008
   17       -0.000  -0.004   0.000  -0.005
   18       -0.000  -0.001   0.000  -0.001
   19       -0.001  -0.004   0.000  -0.004
   20       -0.000  -0.003   0.000  -0.003
   21       -0.001  -0.009   0.000  -0.010
   22       -0.000   0.001   0.000   0.001
   23        0.001   0.009   0.000   0.010
   24        0.002   0.024   0.000   0.026
   25        0.001   0.009   0.000   0.010
   26       -0.002  -0.012   0.000  -0.014
   27        0.000   0.006   0.000   0.006
   28        0.000   0.003   0.000   0.003
   29       -0.001  -0.006   0.000  -0.006
   30       -0.000  -0.005   0.000  -0.005
   31        0.000   0.004   0.000   0.005
   32        0.001   0.006   0.000   0.006
   33       -0.000  -0.003   0.000  -0.003
   34       -0.000  -0.005   0.000  -0.005
   35        0.000   0.004   0.000   0.004
   36        0.001   0.011   0.000   0.012
   37       -0.001  -0.007   0.000  -0.009
   38       -0.000  -0.001   0.000  -0.001
   39        0.000   0.003   0.000   0.003
   40        0.001   0.016   0.000   0.017
   41       -0.001  -0.015   0.000  -0.016
   42       -0.001  -0.012   0.000  -0.013
   43        0.000   0.004   0.000   0.004
   44        0.001   0.010   0.000   0.011
   45       -0.002  -0.014   0.000  -0.016
   46       -0.000  -0.004   0.000  -0.004
   47        0.000   0.005   0.000   0.005
   48        0.000   0.005   0.000   0.006
   49       -0.001  -0.008   0.000  -0.008
   50       -0.000  -0.004   0.000  -0.004
   51       -0.008  -0.038   0.000  -0.046
   52       -0.019  -0.076   0.000  -0.095
   53       -0.019  -0.104   0.000  -0.122
   54       -0.007  -0.047   0.000  -0.054
   55       -0.005  -0.038   0.000  -0.043
   56       -0.006  -0.032   0.000  -0.038
   57        0.038   0.005   1.936   1.979
   58        0.044  -0.007   2.384   2.421
--------------------------------------------------
tot          0.014  -0.360   4.320   3.974
 

 total amount of memory used by VASP MPI-rank0   174874. kBytes
=======================================================================

   base      :      30000. kBytes
   nonl-proj :       4585. kBytes
   fftplans  :      14250. kBytes
   grid      :      34043. kBytes
   one-center:         62. kBytes
   HF        :         23. kBytes
   nonlr-proj:      14982. kBytes
   wavefun   :      76929. kBytes
 
  
  
 General timing and accounting informations for this job:
 ========================================================
  
                  Total CPU time used (sec):    55967.930
                            User time (sec):    55889.462
                          System time (sec):       78.467
                         Elapsed time (sec):    55984.553
  
                   Maximum memory used (kb):      429172.
                   Average memory used (kb):           0.
  
                          Minor page faults:       449796
                          Major page faults:            0
                 Voluntary context switches:         1276
