 vasp.5.4.4.18Apr17-6-g9f103f2a35 (build Feb 25 2019 10:51:38) complex          
  
 executed on             LinuxIFC date 2021.06.17  14:13:32
 running on   48 total cores
 distrk:  each k-point on   24 cores,    2 groups
 distr:  one band on NCORES_PER_BAND=  24 cores,    1 groups


--------------------------------------------------------------------------------------------------------


 INCAR:
 POTCAR:    PAW_PBE C 08Apr2002                   
 POTCAR:    PAW_PBE N 08Apr2002                   
 POTCAR:    PAW_PBE Fe 06Sep2000                  
 POTCAR:    PAW_PBE Sc_sv 07Sep2000               

 ----------------------------------------------------------------------------- 
|                                                                             |
|           W    W    AA    RRRRR   N    N  II  N    N   GGGG   !!!           |
|           W    W   A  A   R    R  NN   N  II  NN   N  G    G  !!!           |
|           W    W  A    A  R    R  N N  N  II  N N  N  G       !!!           |
|           W WW W  AAAAAA  RRRRR   N  N N  II  N  N N  G  GGG   !            |
|           WW  WW  A    A  R   R   N   NN  II  N   NN  G    G                |
|           W    W  A    A  R    R  N    N  II  N    N   GGGG   !!!           |
|                                                                             |
|      For optimal performance we recommend to set                            |
|        NCORE= 4 - approx SQRT( number of cores)                             |
|      NCORE specifies how many cores store one orbital (NPAR=cpu/NCORE).     |
|      This setting can  greatly improve the performance of VASP for DFT.     |
|      The default,   NCORE=1            might be grossly inefficient         |
|      on modern multi-core architectures or massively parallel machines.     |
|      Do your own testing !!!!                                               |
|      Unfortunately you need to use the default for GW and RPA calculations. |
|      (for HF NCORE is supported but not extensively tested yet)             |
|                                                                             |
 ----------------------------------------------------------------------------- 


 ----------------------------------------------------------------------------- 
|                                                                             |
|           W    W    AA    RRRRR   N    N  II  N    N   GGGG   !!!           |
|           W    W   A  A   R    R  NN   N  II  NN   N  G    G  !!!           |
|           W    W  A    A  R    R  N N  N  II  N N  N  G       !!!           |
|           W WW W  AAAAAA  RRRRR   N  N N  II  N  N N  G  GGG   !            |
|           WW  WW  A    A  R   R   N   NN  II  N   NN  G    G                |
|           W    W  A    A  R    R  N    N  II  N    N   GGGG   !!!           |
|                                                                             |
|      You have enabled k-point parallelism (KPAR>1).                         |
|      This developmental code was originally  written by Paul Kent at ORNL,  |
|      and carefully double checked in Vienna.                                |
|      GW as well as linear response parallelism added by Martijn Marsman     |
|      and Georg Kresse.                                                      |
|      Carefully verify results versus KPAR=1.                                |
|      Report problems to Paul Kent and Vienna.                               |
|                                                                             |
 ----------------------------------------------------------------------------- 

 POTCAR:    PAW_PBE C 08Apr2002                   
   VRHFIN =C: s2p2                                                              
   LEXCH  = PE                                                                  
   EATOM  =   147.1560 eV,   10.8157 Ry                                         
                                                                                
   TITEL  = PAW_PBE C 08Apr2002                                                 
   LULTRA =        F    use ultrasoft PP ?                                      
   IUNSCR =        1    unscreen: 0-lin 1-nonlin 2-no                           
   RPACOR =    1.200    partial core radius                                     
   POMASS =   12.011; ZVAL   =    4.000    mass and valenz                      
   RCORE  =    1.500    outmost cutoff radius                                   
   RWIGS  =    1.630; RWIGS  =    0.863    wigner-seitz radius (au A)           
   ENMAX  =  400.000; ENMIN  =  300.000 eV                                      
   ICORE  =        2    local potential                                         
   LCOR   =        T    correct aug charges                                     
   LPAW   =        T    paw PP                                                  
   EAUG   =  644.873                                                            
   DEXC   =    0.000                                                            
   RMAX   =    1.529    core radius for proj-oper                               
   RAUG   =    1.300    factor for augmentation sphere                          
   RDEP   =    1.501    radius for radial grids                                 
   RDEPT  =    1.300    core radius for aug-charge                              
                                                                                
   Atomic configuration                                                         
    4 entries                                                                   
     n  l   j            E        occ.                                          
     1  0  0.50      -273.3789   2.0000                                         
     2  0  0.50       -13.7508   2.0000                                         
     2  1  0.50        -5.2854   2.0000                                         
     3  2  1.50        -5.4423   0.0000                                         
   Description                                                                  
     l       E           TYP  RCUT    TYP  RCUT                                 
     0    -13.7508458     23  1.200                                             
     0     -8.2022199     23  1.200                                             
     1     -5.2854383     23  1.500                                             
     1     34.0145650     23  1.500                                             
     2     -5.4423304      7  1.500                                             
  local pseudopotential read in
  partial core-charges read in
  partial kinetic energy density read in
  atomic valenz-charges read in
  non local Contribution for L=           0  read in
    real space projection operators read in
  non local Contribution for L=           0  read in
    real space projection operators read in
  non local Contribution for L=           1  read in
    real space projection operators read in
  non local Contribution for L=           1  read in
    real space projection operators read in
    PAW grid and wavefunctions read in
 
   number of l-projection  operators is LMAX  =           4
   number of lm-projection operators is LMMAX =           8
 
 POTCAR:    PAW_PBE N 08Apr2002                   
   VRHFIN =N: s2p3                                                              
   LEXCH  = PE                                                                  
   EATOM  =   264.5486 eV,   19.4438 Ry                                         
                                                                                
   TITEL  = PAW_PBE N 08Apr2002                                                 
   LULTRA =        F    use ultrasoft PP ?                                      
   IUNSCR =        1    unscreen: 0-lin 1-nonlin 2-no                           
   RPACOR =    1.200    partial core radius                                     
   POMASS =   14.001; ZVAL   =    5.000    mass and valenz                      
   RCORE  =    1.500    outmost cutoff radius                                   
   RWIGS  =    1.400; RWIGS  =    0.741    wigner-seitz radius (au A)           
   ENMAX  =  400.000; ENMIN  =  300.000 eV                                      
   ICORE  =        2    local potential                                         
   LCOR   =        T    correct aug charges                                     
   LPAW   =        T    paw PP                                                  
   EAUG   =  627.112                                                            
   DEXC   =    0.000                                                            
   RMAX   =    1.529    core radius for proj-oper                               
   RAUG   =    1.300    factor for augmentation sphere                          
   RDEP   =    1.514    radius for radial grids                                 
   RDEPT  =    1.338    core radius for aug-charge                              
                                                                                
   Atomic configuration                                                         
    4 entries                                                                   
     n  l   j            E        occ.                                          
     1  0  0.50      -384.7179   2.0000                                         
     2  0  0.50       -18.5828   2.0000                                         
     2  1  0.50        -7.0898   3.0000                                         
     3  2  1.50        -6.8029   0.0000                                         
   Description                                                                  
     l       E           TYP  RCUT    TYP  RCUT                                 
     0    -18.5828119     23  1.200                                             
     0    -13.5018863     23  1.200                                             
     1     -7.0897853     23  1.500                                             
     1      9.5240782     23  1.500                                             
     2     -6.8029130      7  1.500                                             
  local pseudopotential read in
  partial core-charges read in
  partial kinetic energy density read in
  atomic valenz-charges read in
  non local Contribution for L=           0  read in
    real space projection operators read in
  non local Contribution for L=           0  read in
    real space projection operators read in
  non local Contribution for L=           1  read in
    real space projection operators read in
  non local Contribution for L=           1  read in
    real space projection operators read in
    PAW grid and wavefunctions read in
 
   number of l-projection  operators is LMAX  =           4
   number of lm-projection operators is LMMAX =           8
 
 POTCAR:    PAW_PBE Fe 06Sep2000                  
   VRHFIN =Fe:  d7 s1                                                           
   LEXCH  = PE                                                                  
   EATOM  =   594.3153 eV,   43.6809 Ry                                         
                                                                                
   TITEL  = PAW_PBE Fe 06Sep2000                                                
   LULTRA =        F    use ultrasoft PP ?                                      
   IUNSCR =        1    unscreen: 0-lin 1-nonlin 2-no                           
   RPACOR =    2.000    partial core radius                                     
   POMASS =   55.847; ZVAL   =    8.000    mass and valenz                      
   RCORE  =    2.300    outmost cutoff radius                                   
   RWIGS  =    2.460; RWIGS  =    1.302    wigner-seitz radius (au A)           
   ENMAX  =  267.882; ENMIN  =  200.911 eV                                      
   RCLOC  =    1.701    cutoff for local pot                                    
   LCOR   =        T    correct aug charges                                     
   LPAW   =        T    paw PP                                                  
   EAUG   =  511.368                                                            
   DEXC   =    0.000                                                            
   RMAX   =    2.356    core radius for proj-oper                               
   RAUG   =    1.300    factor for augmentation sphere                          
   RDEP   =    2.442    radius for radial grids                                 
   RDEPT  =    1.890    core radius for aug-charge                              
                                                                                
   Atomic configuration                                                         
    9 entries                                                                   
     n  l   j            E        occ.                                          
     1  0  0.50     -6993.8440   2.0000                                         
     2  0  0.50      -814.6047   2.0000                                         
     2  1  1.50      -693.3689   6.0000                                         
     3  0  0.50       -89.4732   2.0000                                         
     3  1  1.50       -55.6373   6.0000                                         
     3  2  2.50        -3.8151   7.0000                                         
     4  0  0.50        -4.2551   1.0000                                         
     4  1  1.50        -3.4015   0.0000                                         
     4  3  2.50        -1.3606   0.0000                                         
   Description                                                                  
     l       E           TYP  RCUT    TYP  RCUT                                 
     2     -3.8151135     23  2.300                                             
     2     -5.1756961     23  2.300                                             
     0     -4.2550963     23  2.300                                             
     0      7.2035603     23  2.300                                             
     1     -2.7211652     23  2.300                                             
     1     18.4316424     23  2.300                                             
  local pseudopotential read in
  partial core-charges read in
  partial kinetic energy density read in
  atomic valenz-charges read in
  non local Contribution for L=           2  read in
    real space projection operators read in
  non local Contribution for L=           2  read in
    real space projection operators read in
  non local Contribution for L=           0  read in
    real space projection operators read in
  non local Contribution for L=           0  read in
    real space projection operators read in
  non local Contribution for L=           1  read in
    real space projection operators read in
  non local Contribution for L=           1  read in
    real space projection operators read in
    PAW grid and wavefunctions read in
 
   number of l-projection  operators is LMAX  =           6
   number of lm-projection operators is LMMAX =          18
 
 POTCAR:    PAW_PBE Sc_sv 07Sep2000               
   VRHFIN =Sc: 3p4s3d                                                           
   LEXCH  = PE                                                                  
   EATOM  =  1273.2868 eV,   93.5839 Ry                                         
                                                                                
   TITEL  = PAW_PBE Sc_sv 07Sep2000                                             
   LULTRA =        F    use ultrasoft PP ?                                      
   IUNSCR =        1    unscreen: 0-lin 1-nonlin 2-no                           
   RPACOR =    2.200    partial core radius                                     
   POMASS =   44.956; ZVAL   =   11.000    mass and valenz                      
   RCORE  =    2.500    outmost cutoff radius                                   
   RWIGS  =    2.700; RWIGS  =    1.429    wigner-seitz radius (au A)           
   ENMAX  =  222.660; ENMIN  =  166.995 eV                                      
   RCLOC  =    1.805    cutoff for local pot                                    
   LCOR   =        T    correct aug charges                                     
   LPAW   =        T    paw PP                                                  
   EAUG   =  443.063                                                            
   RMAX   =    2.551    core radius for proj-oper                               
   RAUG   =    1.300    factor for augmentation sphere                          
   RDEP   =    2.650    radius for radial grids                                 
   RDEPT  =    2.038    core radius for aug-charge                              
                                                                                
   Atomic configuration                                                         
    8 entries                                                                   
     n  l   j            E        occ.                                          
     1  0  0.50     -4394.2533   2.0000                                         
     2  0  0.50      -471.0040   2.0000                                         
     2  1  1.50      -384.9788   6.0000                                         
     3  0  0.50       -52.1410   2.0000                                         
     4  0  0.50        -3.5584   1.0000                                         
     3  1  1.50       -30.8841   6.0000                                         
     3  2  2.50        -1.3655   2.0000                                         
     4  3  2.50        -1.3606   0.0000                                         
   Description                                                                  
     l       E           TYP  RCUT    TYP  RCUT                                 
     0    -52.1409870     23  1.800                                             
     0     -3.5583698     23  2.500                                             
     1    -30.8840697     23  2.300                                             
     1      4.0817478     23  2.300                                             
     2     -1.3655397     23  2.500                                             
     2      0.3564476     23  2.500                                             
  local pseudopotential read in
  partial core-charges read in
  partial kinetic energy density read in
  atomic valenz-charges read in
  non local Contribution for L=           0  read in
    real space projection operators read in
  non local Contribution for L=           0  read in
    real space projection operators read in
  non local Contribution for L=           1  read in
    real space projection operators read in
  non local Contribution for L=           1  read in
    real space projection operators read in
  non local Contribution for L=           2  read in
    real space projection operators read in
  non local Contribution for L=           2  read in
    real space projection operators read in
    PAW grid and wavefunctions read in
 
   number of l-projection  operators is LMAX  =           6
   number of lm-projection operators is LMMAX =          18
 

 ----------------------------------------------------------------------------- 
|                                                                             |
|  ADVICE TO THIS USER RUNNING 'VASP/VAMP'   (HEAR YOUR MASTER'S VOICE ...):  |
|                                                                             |
|      You have a (more or less) 'large supercell' and for larger cells       |
|      it might be more efficient to use real space projection opertators     |
|      So try LREAL= Auto  in the INCAR   file.                               |
|      Mind:          For very  accurate calculation you might also keep the  |
|      reciprocal projection scheme          (i.e. LREAL=.FALSE.)             |
|                                                                             |
 ----------------------------------------------------------------------------- 

  PAW_PBE C 08Apr2002                   :
 energy of atom  1       EATOM= -147.1560
 kinetic energy error for atom=    0.0076 (will be added to EATOM!!)
  PAW_PBE N 08Apr2002                   :
 energy of atom  2       EATOM= -264.5486
 kinetic energy error for atom=    0.0138 (will be added to EATOM!!)
  PAW_PBE Fe 06Sep2000                  :
 energy of atom  3       EATOM= -594.3153
 kinetic energy error for atom=    0.0026 (will be added to EATOM!!)
  PAW_PBE Sc_sv 07Sep2000               :
 energy of atom  4       EATOM=-1273.2868
 kinetic energy error for atom=    0.0031 (will be added to EATOM!!)
 
 
 POSCAR:  C  N Fe Sc                             
  positions in cartesian coordinates
  No initial velocities read in
 exchange correlation table for  LEXCH =        8
   RHO(1)=    0.500       N(1)  =     2000
   RHO(2)=  100.500       N(2)  =     4000

 VTST: version 3.2, (02/03/18)

 CHAIN: initializing optimizer
 
 OPT: Using VASP Conjugate-Gradient optimizer
 CHAIN: Read ICHAIN            0
 
 POSCAR:  C  N Fe Sc                             
  positions in cartesian coordinates
  No initial velocities read in
 


--------------------------------------------------------------------------------------------------------


 ion  position               nearest neighbor table
   1  0.222  0.001  0.501-   3 1.42   4 1.42  19 1.43
   2  0.055  0.102  0.501-   3 1.43  33 1.43   7 1.43
   3  0.110  0.001  0.501-  17 1.42   1 1.42   2 1.43
   4  0.277  0.102  0.500-  21 1.42   1 1.42   5 1.43
   5  0.224  0.204  0.500-   4 1.43   7 1.43   8 1.43
   6  0.056  0.303  0.501-   7 1.42  11 1.43  37 1.44
   7  0.111  0.203  0.501-   6 1.42   2 1.43   5 1.43
   8  0.282  0.303  0.498-  50 1.39   5 1.43   9 1.44
   9  0.228  0.406  0.501-  49 1.38   8 1.44  11 1.45
  10  0.056  0.501  0.502-  11 1.42  14 1.43  40 1.44
  11  0.114  0.403  0.501-  10 1.42   6 1.43   9 1.45
  12  0.227  0.597  0.502-  49 1.38  14 1.44  15 1.44
  13  0.056  0.700  0.501-  18 1.42  14 1.43  44 1.44
  14  0.114  0.600  0.501-  10 1.43  13 1.43  12 1.44
  15  0.283  0.699  0.503-  52 1.39  16 1.43  12 1.44
  16  0.224  0.799  0.502-  19 1.43  18 1.43  15 1.43
  17  0.055  0.901  0.501-   3 1.42  48 1.42  18 1.43
  18  0.111  0.800  0.501-  13 1.42  16 1.43  17 1.43
  19  0.277  0.901  0.501-  27 1.42  16 1.43   1 1.43
  20  0.555  0.001  0.501-  22 1.41  23 1.42  29 1.42
  21  0.389  0.101  0.499-   4 1.42  22 1.42  25 1.42
  22  0.444  0.001  0.501-  20 1.41  21 1.42  27 1.42
  23  0.610  0.101  0.499-  31 1.42  20 1.42  24 1.42
  24  0.556  0.202  0.497-  51 1.39  23 1.42  25 1.43
  25  0.443  0.202  0.497-  50 1.39  21 1.42  24 1.43
  26  0.556  0.799  0.503-  53 1.38  29 1.42  28 1.44
  27  0.389  0.900  0.502-  19 1.42  28 1.42  22 1.42
  28  0.443  0.799  0.503-  52 1.38  27 1.42  26 1.44
  29  0.610  0.900  0.502-  46 1.42  26 1.42  20 1.42
  30  0.888  0.001  0.501-  32 1.42  48 1.42  33 1.42
  31  0.721  0.102  0.500-  23 1.42  32 1.43  36 1.43
  32  0.777  0.001  0.501-  30 1.42  46 1.43  31 1.43
  33  0.943  0.102  0.501-  30 1.42   2 1.43  34 1.43
  34  0.887  0.203  0.501-  37 1.42  33 1.43  36 1.43
  35  0.716  0.304  0.498-  51 1.39  36 1.43  39 1.44
  36  0.774  0.204  0.500-  31 1.43  34 1.43  35 1.43
  37  0.942  0.303  0.501-  34 1.42  38 1.43   6 1.44
  38  0.884  0.403  0.501-  40 1.42  37 1.43  39 1.45
  39  0.770  0.406  0.501-  54 1.39  35 1.44  38 1.45
  40  0.943  0.501  0.502-  38 1.42  41 1.43  10 1.44
  41  0.885  0.601  0.501-  40 1.43  44 1.43  43 1.44
  42  0.716  0.700  0.502-  53 1.39  47 1.43  43 1.44
  43  0.772  0.598  0.502-  54 1.38  42 1.44  41 1.44
  44  0.943  0.700  0.501-  45 1.42  41 1.43  13 1.44
  45  0.887  0.800  0.501-  44 1.42  47 1.43  48 1.43
  46  0.721  0.901  0.501-  29 1.42  32 1.43  47 1.43
  47  0.775  0.799  0.502-  46 1.43  45 1.43  42 1.43
  48  0.943  0.901  0.501-  30 1.42  17 1.42  45 1.43
  49  0.284  0.502  0.503-  12 1.38   9 1.38
  50  0.391  0.301  0.493-  25 1.39   8 1.39  55 1.97
  51  0.607  0.301  0.493-  24 1.39  35 1.39  55 1.98
  52  0.392  0.700  0.504-  28 1.38  15 1.39  56 2.23
  53  0.607  0.700  0.503-  26 1.38  42 1.39  56 2.22
  54  0.714  0.503  0.503-  43 1.38  39 1.39
  55  0.499  0.388  0.446-  50 1.97  51 1.98  56 2.46
  56  0.500  0.558  0.510-  53 2.22  52 2.23  55 2.46
 
  LATTYP: Found a triclinic cell.
 ALAT       =    26.9586935568
 B/A-ratio  =     0.4715658781
 C/A-ratio  =     0.4567617483
 COS(alpha) =     0.0000733038
 COS(beta)  =     0.4585135263
 COS(gamma) =     0.4723508870
  
  Lattice vectors:
  
 A1 = ( -12.7339628130, -12.3599922332,  20.2940370888)
 A2 = ( -12.7128000000,   0.0000000000,   0.0000000000)
 A3 = (  -0.0009026414, -12.3136999669,   0.0000000000)


Analysis of symmetry for initial positions (statically):
=====================================================================
 Subroutine PRICEL returns:
 Original cell was already a primitive cell.
 

 Routine SETGRP: Setting up the symmetry group for a 
 triclinic supercell.


 Subroutine GETGRP returns: Found  1 space group operations
 (whereof  1 operations were pure point group operations)
 out of a pool of  2 trial point group operations.


The static configuration has the point symmetry C_1 .


Analysis of symmetry for dynamics (positions and initial velocities):
=====================================================================
 Subroutine PRICEL returns:
 Original cell was already a primitive cell.
 

 Routine SETGRP: Setting up the symmetry group for a 
 triclinic supercell.


 Subroutine GETGRP returns: Found  1 space group operations
 (whereof  1 operations were pure point group operations)
 out of a pool of  2 trial point group operations.


The dynamic configuration has the point symmetry C_1 .


Analysis of structural, dynamic, and magnetic symmetry:
=====================================================================
 Subroutine PRICEL returns:
 Original cell was already a primitive cell.
 

 Routine SETGRP: Setting up the symmetry group for a 
 triclinic supercell.


 Subroutine GETGRP returns: Found  1 space group operations
 (whereof  1 operations were pure point group operations)
 out of a pool of  2 trial point group operations.


The magnetic configuration has the point symmetry C_1 .


 Subroutine INISYM returns: Found  1 space group operations
 (whereof  1 operations are pure point group operations),
 and found     1 'primitive' translations

 
 
 KPOINTS: KPOINTS created by Atomic Simulation Env

Automatic generation of k-mesh.
Space group operators:
 irot       det(A)        alpha          n_x          n_y          n_z        tau_x        tau_y        tau_z
    1     1.000000     0.000000     1.000000     0.000000     0.000000     0.000000     0.000000     0.000000
 
 Subroutine IBZKPT returns following result:
 ===========================================
 
 Found      2 irreducible k-points:
 
 Following reciprocal coordinates:
            Coordinates               Weight
  0.250000  0.250000  0.000000      2.000000
 -0.250000  0.250000  0.000000      2.000000
 
 Following cartesian coordinates:
            Coordinates               Weight
  0.019665  0.020301  0.000066      2.000000
 -0.019665  0.020304  0.000027      2.000000
 
 
 Subroutine IBZKPT_HF returns following result:
 ==============================================
 
 Found      4 k-points in 1st BZ
 the following      4 k-points will be used (e.g. in the exchange kernel)
 Following reciprocal coordinates:   # in IRBZ
  0.250000  0.250000  0.000000    0.25000000   1 t-inv F
 -0.250000  0.250000  0.000000    0.25000000   2 t-inv F
 -0.250000 -0.250000  0.000000    0.25000000   1 t-inv T
  0.250000 -0.250000 -0.000000    0.25000000   2 t-inv T


--------------------------------------------------------------------------------------------------------




 Dimension of arrays:
   k-points           NKPTS =      2   k-points in BZ     NKDIM =      4   number of bands    NBANDS=    153
   number of dos      NEDOS =    301   number of ions     NIONS =     56
   non local maximal  LDIM  =      6   non local SUM 2l+1 LMDIM =     18
   total plane-waves  NPLWV = ******
   max r-space proj   IRMAX =      1   max aug-charges    IRDMAX=  18216
   dimension x,y,z NGX =    96 NGY =   90 NGZ =  150
   dimension x,y,z NGXF=   192 NGYF=  180 NGZF=  300
   support grid    NGXF=   192 NGYF=  180 NGZF=  300
   ions per type =              48   6   1   1
   NGX,Y,Z   is equivalent  to a cutoff of  12.55, 12.15, 12.29 a.u.
   NGXF,Y,Z  is equivalent  to a cutoff of  25.11, 24.30, 24.58 a.u.

 SYSTEM =  unknown system                          
 POSCAR =   C  N Fe Sc                             

 Startparameter for this run:
   NWRITE =      2    write-flag & timer
   PREC   = accura    normal or accurate (medium, high low for compatibility)
   ISTART =      1    job   : 0-new  1-cont  2-samecut
   ICHARG =      0    charge: 1-file 2-atom 10-const
   ISPIN  =      2    spin polarized calculation?
   LNONCOLLINEAR =      F non collinear calculations
   LSORBIT =      F    spin-orbit coupling
   INIWAV =      1    electr: 0-lowe 1-rand  2-diag
   LASPH  =      T    aspherical Exc in radial PAW
   METAGGA=      F    non-selfconsistent MetaGGA calc.

 Electronic Relaxation 1
   ENCUT  =  500.0 eV  36.75 Ry    6.06 a.u.  23.18 22.45 37.00*2*pi/ulx,y,z
   ENINI  =  500.0     initial cutoff
   ENAUG  =  644.9 eV  augmentation charge cutoff
   NELM   =    250;   NELMIN=  2; NELMDL=  0     # of ELM steps 
   EDIFF  = 0.1E-03   stopping-criterion for ELM
   LREAL  =      F    real-space projection
   NLSPLINE    = F    spline interpolate recip. space projectors
   LCOMPAT=      F    compatible to vasp.4.4
   GGA_COMPAT  = T    GGA compatible to vasp.4.4-vasp.4.6
   LMAXPAW     = -100 max onsite density
   LMAXMIX     =    2 max onsite mixed and CHGCAR
   VOSKOWN=      0    Vosko Wilk Nusair interpolation
   ROPT   =    0.00000   0.00000   0.00000   0.00000
 Ionic relaxation
   EDIFFG = -.3E-01   stopping-criterion for IOM
   NSW    =      0    number of steps for IOM
   NBLOCK =      1;   KBLOCK =      1    inner block; outer block 
   IBRION =     -1    ionic relax: 0-MD 1-quasi-New 2-CG
   NFREE  =      1    steps in history (QN), initial steepest desc. (CG)
   ISIF   =      2    stress and relaxation
   IWAVPR =     10    prediction:  0-non 1-charg 2-wave 3-comb
   ISYM   =      3    0-nonsym 1-usesym 2-fastsym
   LCORR  =      T    Harris-Foulkes like correction to forces

   POTIM  = 0.5000    time-step for ionic-motion
   TEIN   =    0.0    initial temperature
   TEBEG  =    0.0;   TEEND  =   0.0 temperature during run
   SMASS  =  -3.00    Nose mass-parameter (am)
   estimated Nose-frequenzy (Omega)   =  0.10E-29 period in steps =****** mass=  -0.369E-26a.u.
   SCALEE = 1.0000    scale energy and forces
   NPACO  =    256;   APACO  = 16.0  distance and # of slots for P.C.
   PSTRESS=    0.0 pullay stress

  Mass of Ions in am
   POMASS =  12.01 14.00 55.85 44.96
  Ionic Valenz
   ZVAL   =   4.00  5.00  8.00 11.00
  Atomic Wigner-Seitz radii
   RWIGS  =  -1.00 -1.00 -1.00 -1.00
  virtual crystal weights 
   VCA    =   1.00  1.00  1.00  1.00
   NELECT =     241.0000    total number of electrons
   NUPDOWN=      -1.0000    fix difference up-down

 DOS related values:
   EMIN   =  10.00;   EMAX   =-10.00  energy-range for DOS
   EFERMI =   0.00
   ISMEAR =     0;   SIGMA  =   0.10  broadening in eV -4-tet -1-fermi 0-gaus

 Electronic relaxation 2 (details)
   IALGO  =     53    algorithm
   LDIAG  =      T    sub-space diagonalisation (order eigenvalues)
   LSUBROT=      F    optimize rotation matrix (better conditioning)
   TURBO    =      0    0=normal 1=particle mesh
   IRESTART =      0    0=no restart 2=restart with 2 vectors
   NREBOOT  =      0    no. of reboots
   NMIN     =      0    reboot dimension
   EREF     =   0.00    reference energy to select bands
   IMIX   =      4    mixing-type and parameters
     AMIX     =   0.40;   BMIX     =  1.00
     AMIX_MAG =   1.60;   BMIX_MAG =  1.00
     AMIN     =   0.10
     WC   =   100.;   INIMIX=   1;  MIXPRE=   1;  MAXMIX= -45

 Intra band minimization:
   WEIMIN = 0.0000     energy-eigenvalue tresh-hold
   EBREAK =  0.16E-06  absolut break condition
   DEPER  =   0.30     relativ break condition  

   TIME   =   0.20     timestep for ELM

  volume/ion in A,a.u.               =      56.73       382.83
  Fermi-wavevector in a.u.,A,eV,Ry     =   0.693023  1.309624  6.534622  0.480281
  Thomas-Fermi vector in A             =   1.775120
 
 Write flags
   LWAVE        =      T    write WAVECAR
   LDOWNSAMPLE  =      F    k-point downsampling of WAVECAR
   LCHARG       =      T    write CHGCAR
   LVTOT        =      F    write LOCPOT, total local potential
   LVHAR        =      F    write LOCPOT, Hartree potential only
   LELF         =      F    write electronic localiz. function (ELF)
   LORBIT       =     11    0 simple, 1 ext, 2 COOP (PROOUT), +10 PAW based schemes


 Dipole corrections
   LMONO  =      F    monopole corrections only (constant potential shift)
   LDIPOL =      T    correct potential (dipole corrections)
   IDIPOL =      3    1-x, 2-y, 3-z, 4-all directions 
   EPSILON=  1.0000000 bulk dielectric constant

 Exchange correlation treatment:
   GGA     =    PE    GGA type
   LEXCH   =     8    internal setting for exchange type
   VOSKOWN=      0    Vosko Wilk Nusair interpolation
   EXXOEP  =     0    0=HF, 1=EXX-LHF (local Hartree Fock) 2=EXX OEP
   LHFCALC =     T    Hartree Fock is set to
   LSYMGRAD=     F    symmetrize gradient (conserves proper symmetry)
   PRECFOCK=normal    Normal, Fast or Accurate (Low or Medium for compatibility)
   LRHFCALC=     F    long range Hartree Fock
   LRSCOR  =     F    long range correlation only (use DFT for short range part)
   LTHOMAS =     F    Thomas Fermi screening in HF
   LMODELHF=     F    short range full HF, long range fraction AEXX
   ENCUT4O =  -1.0   cutoff for four orbital integrals eV
   LMAXFOCK=     4    L truncation for augmentation on plane wave grid
   LMAXFOCKAE=  -1    L truncation for all-electron charge restoration on plane wave grid
   NMAXFOCKAE=   1    number of basis functions for all-electron charge restoration
   LFOCKAEDFT=     F  apply the AE augmentation even for DFT
   NKREDX  =     1    reduce k-point grid by
   NKREDY  =     1    reduce k-point grid by
   NKREDZ  =     1    reduce k-point grid by
   SHIFTRED=     F    shift reduced grid of Gamma
   HFKIDENT=     F    idential grid for each k-point
   ODDONLY =     F    use only odd q-grid points
   EVENONLY=     F    use only even q-grid points
   HFALPHA =   -1.0000 decay constant for conv. correction
   MCALPHA =    0.0000 extent of test-charge in conv. correction in multipole expansion
   AEXX    =    0.2500 exact exchange contribution
   HFSCREEN=    0.2000 screening length (either q_TF or 0.3 A-1)
   HFSCREENC=   0.2000 screening length for correlation (either q_TF or 0.3 A-1)
   HFRCUT  =    0.0000 spherical cutoff for potential kernel
   ALDAX   =    0.7500 LDA exchange part
   AGGAX   =    0.7500 GGA exchange part
   ALDAC   =    1.0000 LDA correlation
   AGGAC   =    1.0000 GGA correlation
   ENCUTFOCK=  -1.0 apply spherical cutoff to Coloumb kernel
   NBANDSGWLOW=     1    first orbital included in HF term
   NBLOCK_FOCK=    64    blocking factor in FOCK_ACC
 Linear response parameters
   LEPSILON=     F    determine dielectric tensor
   LRPA    =     F    only Hartree local field effects (RPA)
   LNABLA  =     F    use nabla operator in PAW spheres
   LVEL    =     F    velocity operator in full k-point grid
   LINTERFAST=   F  fast interpolation
   KINTER  =     0    interpolate to denser k-point grid
   CSHIFT  =0.1000    complex shift for real part using Kramers Kronig
   OMEGAMAX=  -1.0    maximum frequency
   DEG_THRESHOLD= 0.2000000E-02 threshold for treating states as degnerate
   RTIME   =   -0.100 relaxation time in fs
  (WPLASMAI=    0.000 imaginary part of plasma frequency in eV, 0.658/RTIME)
   DFIELD  = 0.0000000 0.0000000 0.0000000 field for delta impulse in time
 
 Orbital magnetization related:
   ORBITALMAG=     F  switch on orbital magnetization
   LCHIMAG   =     F  perturbation theory with respect to B field
   DQ        =  0.001000  dq finite difference perturbation B field
   LLRAUG    =     F  two centre corrections for induced B field



--------------------------------------------------------------------------------------------------------


 Static calculation
 charge density and potential will be updated during run
 spin polarized calculation
 Conjugate gradient for all bands (Freysoldt, et al. PRB 79, 241103 (2009))
 perform sub-space diagonalisation
    before iterative eigenvector-optimisation
 modified Broyden-mixing scheme, WC =      100.0
 initial mixing is a Kerker type mixing with AMIX =  0.4000 and BMIX =      1.0000
 Hartree-type preconditioning will be used
 using additional bands           32
 reciprocal scheme for non local part
 use partial core corrections
 no Harris-corrections to forces 
 use gradient corrections 
 use of overlap-Matrix (Vanderbilt PP)
 Gauss-broadening in eV      SIGMA  =   0.10


--------------------------------------------------------------------------------------------------------


  energy-cutoff  :      500.00
  volume of cell :     3176.86
      direct lattice vectors                 reciprocal lattice vectors
    12.712800000  0.000000000  0.000000000     0.078660877 -0.000005766  0.000078516
     0.000902641 12.313699967  0.000000000     0.000000000  0.081210359  0.000185247
    -0.020260172 -0.046292266 20.294037089     0.000000000  0.000000000  0.049275558

  length of vectors
    12.712800000 12.313700000 20.294100000     0.078660917  0.081210571  0.049275558


 
 old parameters found on file WAVECAR:
  energy-cutoff  :      500.00
  volume of cell :     3176.86
      direct lattice vectors                 reciprocal lattice vectors
    12.712800000  0.000000000  0.000000000     0.078660877 -0.000005766  0.000078516
     0.000902641 12.313699967  0.000000000     0.000000000  0.081210359  0.000185247
    -0.020260172 -0.046292266 20.294037089     0.000000000  0.000000000  0.049275558

  length of vectors

 
 k-points in units of 2pi/SCALE and weight: KPOINTS created by Atomic Simulation Env
   0.01966522  0.02030115  0.00006594       0.500
  -0.01966522  0.02030403  0.00002668       0.500
 
 k-points in reciprocal lattice and weights: KPOINTS created by Atomic Simulation Env
   0.25000000  0.25000000  0.00000000       0.500
  -0.25000000  0.25000000  0.00000000       0.500
 
 position of ions in fractional coordinates (direct lattice) 
   0.22186415  0.00117001  0.50073059
   0.05521512  0.10236785  0.50145199
   0.10995857  0.00133067  0.50107120
   0.27714909  0.10178991  0.49975071
   0.22368232  0.20380789  0.50002976
   0.05579538  0.30324339  0.50135016
   0.11107192  0.20307731  0.50132161
   0.28236819  0.30318382  0.49830085
   0.22806168  0.40596664  0.50116644
   0.05569110  0.50126310  0.50161801
   0.11389302  0.40255020  0.50146759
   0.22700063  0.59732036  0.50219316
   0.05578718  0.69976065  0.50086666
   0.11357593  0.60044130  0.50130098
   0.28257504  0.69947348  0.50254670
   0.22365608  0.79883487  0.50159261
   0.05529476  0.90056734  0.50093842
   0.11117822  0.79971933  0.50094319
   0.27726622  0.90051564  0.50138239
   0.55456116  0.00077665  0.50072195
   0.38860881  0.10108486  0.49918313
   0.44380154  0.00067465  0.50077818
   0.60964497  0.10124874  0.49909318
   0.55551053  0.20227746  0.49680276
   0.44264811  0.20213935  0.49679676
   0.55572177  0.79870957  0.50291323
   0.38890276  0.89986509  0.50189870
   0.44284195  0.79854656  0.50301516
   0.60957177  0.90002368  0.50178874
   0.88843190  0.00141762  0.50097930
   0.72112620  0.10199234  0.49959043
   0.77653008  0.00137981  0.50058513
   0.94306334  0.10244373  0.50139740
   0.88710209  0.20318672  0.50122820
   0.71568489  0.30350170  0.49828302
   0.77446771  0.20405001  0.49986089
   0.94233759  0.30331857  0.50132096
   0.88423774  0.40269990  0.50143978
   0.77003262  0.40622649  0.50119527
   0.94261878  0.50132286  0.50161801
   0.88487230  0.60058097  0.50132324
   0.71616556  0.69983235  0.50245662
   0.77150674  0.59764138  0.50224451
   0.94273918  0.69984602  0.50087549
   0.88739657  0.79986612  0.50093939
   0.72120772  0.90074194  0.50126572
   0.77496842  0.79914359  0.50153668
   0.94321419  0.90066052  0.50091977
   0.28443857  0.50207945  0.50288212
   0.39107730  0.30108074  0.49280467
   0.60686748  0.30137141  0.49296839
   0.39173757  0.69956717  0.50352185
   0.60706317  0.69987698  0.50328563
   0.71373408  0.50254038  0.50306706
   0.49858893  0.38762920  0.44641125
   0.50037129  0.55785166  0.51046441
 
 position of ions in cartesian coordinates  (Angst):
   2.81037071 -0.00877279 10.16184518
   0.69187164  1.23731368 10.17648528
   1.38773070 -0.00681022 10.16875742
   3.51330776  1.23027578 10.14195937
   2.83368188  2.48648174 10.14762250
   0.69943176  3.71083954 10.17441877
   1.40206149  2.47742580 10.17383943
   3.57986829  3.71024715 10.11253601
   2.88951524  4.97575124 10.17069027
   0.69827942  6.14918235 10.17985457
   1.43810268  4.93366828 10.17680181
   2.87617828  7.33197606 10.19152659
   0.69969519  8.59345643 10.16460648
   1.43425365  7.37044761 10.17342062
   3.58276971  8.58984251 10.19870141
   2.83385376  9.81339304 10.17933913
   0.69361502 11.06612650 10.16606297
   1.40395910  9.82431410 10.16615968
   3.51548471 11.06546923 10.17507276
   7.03988113 -0.01361610 10.16166980
   4.93028375  1.22162029 10.13044104
   5.63181501 -0.01487467 10.16281088
   7.74027428  1.22364240 10.12861550
   7.05221158  2.46778579 10.08213359
   5.61741419  2.46608550 10.08201191
   7.05531161  9.81178899 10.20613971
   4.93468670 11.05743465 10.18555080
   5.62029079  9.80977701 10.20820826
   7.74001013 11.05939256 10.18331938
  11.28430843 -0.00573533 10.16689240
   9.15750344  1.23277589 10.13870668
   9.86173087 -0.00618269 10.15889329
  11.97890972  1.23825050 10.17537734
  11.26757991  2.47877735 10.17194369
   9.08853755  3.71416227 10.11217407
   9.83571001  2.48947086 10.14419540
  11.96986631  3.71176655 10.17382608
  11.23134183  4.93551301 10.17623747
   9.77948306  4.97894967 10.17127543
  11.97361363  6.14991821 10.17985446
  11.23958975  7.37216654 10.17387249
   9.09492142  8.59426572 10.19687335
   9.79837472  7.33592664 10.19256862
  11.97533858  8.59450729 10.16478585
  11.27186793  9.82612183 10.16608265
   9.15922686 11.06826122 10.17270505
   9.84257864  9.81719711 10.17820403
  11.98155767 11.06727468 10.16568442
   3.60627542  6.15917617 10.20550838
   4.96197493  3.68460488 10.00099627
   7.70526936  3.68817646 10.00431887
   4.97051142  8.59095111 10.21849115
   7.70790780  8.59477696 10.21369714
   9.06382003  6.16484331 10.20926165
   6.32976687  4.75248432  9.05948652
   6.35128156  6.84558742 10.35938362
 


--------------------------------------------------------------------------------------------------------


 k-point  1 :   0.2500 0.2500 0.0000  plane waves:   80651
 k-point  2 :  -0.2500 0.2500 0.0000  plane waves:   80626

 maximum and minimum number of plane-waves per node :      3398     3328

 maximum number of plane-waves:     80651
 maximum index in each direction: 
   IXMAX=   23   IYMAX=   22   IZMAX=   36
   IXMIN=  -23   IYMIN=  -22   IZMIN=  -36


 parallel 3D FFT for wavefunctions:
    minimum data exchange during FFTs selected (reduces bandwidth)
 parallel 3D FFT for charge:
    minimum data exchange during FFTs selected (reduces bandwidth)


 FFT grid for exact exchange (Hartree Fock) 
  NGX = 70; NGY = 70; NGZ =112

 
 Radii for the augmentation spheres in the non-local exchange
 for species   1 augmentation radius   0.874 (default was   0.699)
       energy cutoff for augmentation   2000.0
 for species   2 augmentation radius   0.886 (default was   0.709)
       energy cutoff for augmentation   2000.0
 for species   3 augmentation radius   1.263 (default was   1.010)
       energy cutoff for augmentation   2000.0
 for species   4 augmentation radius   1.357 (default was   1.085)
       energy cutoff for augmentation   2000.0

 real space projection operators:
  total allocation   :       2462.80 KBytes
  max/ min on nodes  :        146.12         37.12

 Maximum index for augmentation-charges in exchange           64
  SETUP_FOCK is finished

 total amount of memory used by VASP MPI-rank0   203608. kBytes
=======================================================================

   base      :      30000. kBytes
   nonl-proj :       6975. kBytes
   fftplans  :      17535. kBytes
   grid      :      46049. kBytes
   one-center:         93. kBytes
   HF        :         46. kBytes
   nonlr-proj:       1858. kBytes
   wavefun   :     101052. kBytes
 
     INWAV:  cpu time    3.4106: real time    5.9120
 Broyden mixing: mesh for mixing (old mesh)
   NGX = 47   NGY = 45   NGZ = 75
  (NGX  =192   NGY  =180   NGZ  =300)
  gives a total of 158625 points

 charge density for first step will be calculated from the start-wavefunctions


--------------------------------------------------------------------------------------------------------


 Maximum index for augmentation-charges          799 (set IRDMAX)


--------------------------------------------------------------------------------------------------------


 initial charge from wavefunction
 First call to EWALD:  gamma=   0.121
 Maximum number of real-space cells 3x 3x 2
 Maximum number of reciprocal cells 2x 2x 4

    FEWALD:  cpu time    0.0022: real time    0.0022


--------------------------------------- Iteration      1(   1)  ---------------------------------------


    POTLOK:  cpu time    2.0854: real time    2.0870
    SETDIJ:  cpu time    2.0610: real time    2.0634
    TRIAL :  cpu time  323.1879: real time  323.5549
    CORREC:  cpu time    0.0008: real time    0.0008
    CHARGE:  cpu time    1.3577: real time    1.3589
    --------------------------------------------
      LOOP:  cpu time  328.7290: real time  329.1027

 eigenvalue-minimisations  :     0
 total energy-change (2. order) :-0.5851870E+03  (-0.4364200E+00)
 number of electron     241.0000004 magnetization       2.9572994
 augmentation part       13.1445795 magnetization       2.0505603

 DIPCOR: dipole corrections for dipol
 direction  3 min pos     1,
 dipolmoment           0.000211      0.000482     -0.211326 electrons x Angstroem
 Tr[quadrupol]     -6429.156485

 energy correction for charged system         0.000000 eV
 dipol+quadrupol energy correction           -0.001276 eV
 added-field ion interaction         -0.037408 eV  (added to PSCEN)


 Free energy of the ion-electron system (eV)
  ---------------------------------------------------
  alpha Z        PSCENC =       101.35461523
  Ewald energy   TEWEN  =     39146.13568907
  -Hartree energ DENC   =    -48067.15711233
  -exchange      EXHF   =       559.19968993
  -V(xc)+E(xc)   XCENC  =       642.40049474
  PAW double counting   =     26054.93006282   -26081.96486721
  entropy T*S    EENTRO =        -0.02747416
  eigenvalues    EBANDS =     -3349.81819841
  atomic energy  EATOM  =     10409.76635733
  ---------------------------------------------------
  free energy    TOTEN  =      -585.18704885 eV

  energy without entropy =     -585.15957469  energy(sigma->0) =     -585.17331177
  exchange ACFDT corr.  =        -0.04331750  see jH, gK, PRB 81, 115126


--------------------------------------------------------------------------------------------------------




--------------------------------------- Iteration      1(   2)  ---------------------------------------


    POTLOK:  cpu time    2.1159: real time    2.1173
    SETDIJ:  cpu time    2.0586: real time    2.0600
    TRIAL :  cpu time  322.2536: real time  322.6123
    CORREC:  cpu time    0.0008: real time    0.0008
    CHARGE:  cpu time    1.3569: real time    1.3589
    --------------------------------------------
      LOOP:  cpu time  327.7868: real time  328.1541

 eigenvalue-minimisations  :     0
 total energy-change (2. order) :-0.3474807E+00  (-0.3532555E+00)
 number of electron     241.0000004 magnetization       2.9739687
 augmentation part       13.1059420 magnetization       2.1088011

 DIPCOR: dipole corrections for dipol
 direction  3 min pos     1,
 dipolmoment           0.000231      0.000527     -0.231054 electrons x Angstroem
 Tr[quadrupol]     -6428.968583

 energy correction for charged system         0.000000 eV
 dipol+quadrupol energy correction           -0.001525 eV
 added-field ion interaction         -0.040900 eV  (added to PSCEN)


 Free energy of the ion-electron system (eV)
  ---------------------------------------------------
  alpha Z        PSCENC =       101.35087371
  Ewald energy   TEWEN  =     39146.13568907
  -Hartree energ DENC   =    -48048.78325143
  -exchange      EXHF   =       559.01025953
  -V(xc)+E(xc)   XCENC  =       641.92444498
  PAW double counting   =     26221.27418363   -26248.40509927
  entropy T*S    EENTRO =        -0.02161457
  eigenvalues    EBANDS =     -3367.78051295
  atomic energy  EATOM  =     10409.76635733
  ---------------------------------------------------
  free energy    TOTEN  =      -585.53452955 eV

  energy without entropy =     -585.51291498  energy(sigma->0) =     -585.52372226
  exchange ACFDT corr.  =        -0.03212155  see jH, gK, PRB 81, 115126


--------------------------------------------------------------------------------------------------------




--------------------------------------- Iteration      1(   3)  ---------------------------------------


    POTLOK:  cpu time    2.1234: real time    2.1261
    SETDIJ:  cpu time    2.0691: real time    2.0722
    TRIAL :  cpu time  321.3266: real time  321.6824
    CORREC:  cpu time    0.0008: real time    0.0008
    CHARGE:  cpu time    1.3530: real time    1.3542
    --------------------------------------------
      LOOP:  cpu time  326.8750: real time  327.2404

 eigenvalue-minimisations  :     0
 total energy-change (2. order) :-0.2681820E+00  (-0.2007145E+00)
 number of electron     241.0000004 magnetization       2.9867136
 augmentation part       13.1011809 magnetization       2.1568432

 DIPCOR: dipole corrections for dipol
 direction  3 min pos     1,
 dipolmoment           0.000217      0.000496     -0.217387 electrons x Angstroem
 Tr[quadrupol]     -6428.801149

 energy correction for charged system         0.000000 eV
 dipol+quadrupol energy correction           -0.001350 eV
 added-field ion interaction         -0.038481 eV  (added to PSCEN)


 Free energy of the ion-electron system (eV)
  ---------------------------------------------------
  alpha Z        PSCENC =       101.35346812
  Ewald energy   TEWEN  =     39146.13568907
  -Hartree energ DENC   =    -48031.04989951
  -exchange      EXHF   =       558.88401548
  -V(xc)+E(xc)   XCENC  =       641.49556724
  PAW double counting   =     26392.86447843   -26419.87851153
  entropy T*S    EENTRO =        -0.01690774
  eigenvalues    EBANDS =     -3385.35226164
  atomic energy  EATOM  =     10409.76635733
  ---------------------------------------------------
  free energy    TOTEN  =      -585.80271157 eV

  energy without entropy =     -585.78580383  energy(sigma->0) =     -585.79425770
  exchange ACFDT corr.  =        -0.02269697  see jH, gK, PRB 81, 115126


--------------------------------------------------------------------------------------------------------




--------------------------------------- Iteration      1(   4)  ---------------------------------------


    POTLOK:  cpu time    2.1260: real time    2.1293
    SETDIJ:  cpu time    2.0604: real time    2.0617
    TRIAL :  cpu time  321.2234: real time  321.5829
    CORREC:  cpu time    0.0008: real time    0.0008
    CHARGE:  cpu time    1.3512: real time    1.3579
    --------------------------------------------
      LOOP:  cpu time  326.7625: real time  327.1366

 eigenvalue-minimisations  :     0
 total energy-change (2. order) :-0.1527369E+00  (-0.1099190E+00)
 number of electron     241.0000004 magnetization       2.9952145
 augmentation part       13.1091735 magnetization       2.1909668

 DIPCOR: dipole corrections for dipol
 direction  3 min pos     1,
 dipolmoment           0.000202      0.000462     -0.202528 electrons x Angstroem
 Tr[quadrupol]     -6428.742532

 energy correction for charged system         0.000000 eV
 dipol+quadrupol energy correction           -0.001172 eV
 added-field ion interaction         -0.035851 eV  (added to PSCEN)


 Free energy of the ion-electron system (eV)
  ---------------------------------------------------
  alpha Z        PSCENC =       101.35627661
  Ewald energy   TEWEN  =     39146.13568907
  -Hartree energ DENC   =    -48023.62153442
  -exchange      EXHF   =       558.96562569
  -V(xc)+E(xc)   XCENC  =       641.34783563
  PAW double counting   =     26495.96553120   -26522.98912903
  entropy T*S    EENTRO =        -0.01329127
  eigenvalues    EBANDS =     -3392.86519286
  atomic energy  EATOM  =     10409.76635733
  ---------------------------------------------------
  free energy    TOTEN  =      -585.95544852 eV

  energy without entropy =     -585.94215726  energy(sigma->0) =     -585.94880289
  exchange ACFDT corr.  =        -0.01681290  see jH, gK, PRB 81, 115126


--------------------------------------------------------------------------------------------------------




--------------------------------------- Iteration      1(   5)  ---------------------------------------


    POTLOK:  cpu time    2.1260: real time    2.1285
    SETDIJ:  cpu time    2.0601: real time    2.0628
    TRIAL :  cpu time  321.4614: real time  321.8257
    CORREC:  cpu time    0.0008: real time    0.0008
    CHARGE:  cpu time    1.3520: real time    1.3539
    --------------------------------------------
      LOOP:  cpu time  327.0014: real time  327.3753

 eigenvalue-minimisations  :     0
 total energy-change (2. order) :-0.8590872E-01  (-0.6700938E-01)
 number of electron     241.0000004 magnetization       3.0005168
 augmentation part       13.1116241 magnetization       2.2149497

 DIPCOR: dipole corrections for dipol
 direction  3 min pos     1,
 dipolmoment           0.000199      0.000454     -0.198919 electrons x Angstroem
 Tr[quadrupol]     -6428.769052

 energy correction for charged system         0.000000 eV
 dipol+quadrupol energy correction           -0.001130 eV
 added-field ion interaction         -0.035212 eV  (added to PSCEN)


 Free energy of the ion-electron system (eV)
  ---------------------------------------------------
  alpha Z        PSCENC =       101.35695676
  Ewald energy   TEWEN  =     39146.13568907
  -Hartree energ DENC   =    -48024.15077870
  -exchange      EXHF   =       559.18683802
  -V(xc)+E(xc)   XCENC  =       641.40248611
  PAW double counting   =     26561.97090516   -26589.13296803
  entropy T*S    EENTRO =        -0.01066112
  eigenvalues    EBANDS =     -3392.56355169
  atomic energy  EATOM  =     10409.76635733
  ---------------------------------------------------
  free energy    TOTEN  =      -586.04135724 eV

  energy without entropy =     -586.03069612  energy(sigma->0) =     -586.03602668
  exchange ACFDT corr.  =        -0.01212790  see jH, gK, PRB 81, 115126


--------------------------------------------------------------------------------------------------------




--------------------------------------- Iteration      1(   6)  ---------------------------------------


    POTLOK:  cpu time    2.1239: real time    2.1250
    SETDIJ:  cpu time    2.0607: real time    2.0629
    TRIAL :  cpu time  321.9142: real time  322.2712
    CORREC:  cpu time    0.0007: real time    0.0007
    CHARGE:  cpu time    1.3517: real time    1.3537
    --------------------------------------------
      LOOP:  cpu time  327.4521: real time  327.8167

 eigenvalue-minimisations  :     0
 total energy-change (2. order) :-0.5518642E-01  (-0.4571493E-01)
 number of electron     241.0000004 magnetization       3.0035049
 augmentation part       13.1099664 magnetization       2.2326043

 DIPCOR: dipole corrections for dipol
 direction  3 min pos     1,
 dipolmoment           0.000200      0.000457     -0.200240 electrons x Angstroem
 Tr[quadrupol]     -6428.821191

 energy correction for charged system         0.000000 eV
 dipol+quadrupol energy correction           -0.001146 eV
 added-field ion interaction         -0.035446 eV  (added to PSCEN)


 Free energy of the ion-electron system (eV)
  ---------------------------------------------------
  alpha Z        PSCENC =       101.35670794
  Ewald energy   TEWEN  =     39146.13568907
  -Hartree energ DENC   =    -48027.17479530
  -exchange      EXHF   =       559.42560302
  -V(xc)+E(xc)   XCENC  =       641.51689060
  PAW double counting   =     26613.37156877   -26640.64851046
  entropy T*S    EENTRO =        -0.00877502
  eigenvalues    EBANDS =     -3389.83539350
  atomic energy  EATOM  =     10409.76635733
  ---------------------------------------------------
  free energy    TOTEN  =      -586.09654367 eV

  energy without entropy =     -586.08776865  energy(sigma->0) =     -586.09215616
  exchange ACFDT corr.  =        -0.00904474  see jH, gK, PRB 81, 115126


--------------------------------------------------------------------------------------------------------




--------------------------------------- Iteration      1(   7)  ---------------------------------------


    POTLOK:  cpu time    2.1190: real time    2.1220
    SETDIJ:  cpu time    2.0616: real time    2.0629
    TRIAL :  cpu time  321.5729: real time  321.9407
    CORREC:  cpu time    0.0010: real time    0.0010
    CHARGE:  cpu time    1.3458: real time    1.3471
    --------------------------------------------
      LOOP:  cpu time  327.1014: real time  327.4771

 eigenvalue-minimisations  :     0
 total energy-change (2. order) :-0.3885377E-01  (-0.3191349E-01)
 number of electron     241.0000004 magnetization       3.0049079
 augmentation part       13.1099031 magnetization       2.2466164

 DIPCOR: dipole corrections for dipol
 direction  3 min pos     1,
 dipolmoment           0.000203      0.000464     -0.203387 electrons x Angstroem
 Tr[quadrupol]     -6428.859877

 energy correction for charged system         0.000000 eV
 dipol+quadrupol energy correction           -0.001182 eV
 added-field ion interaction         -0.036003 eV  (added to PSCEN)


 Free energy of the ion-electron system (eV)
  ---------------------------------------------------
  alpha Z        PSCENC =       101.35611453
  Ewald energy   TEWEN  =     39146.13568907
  -Hartree energ DENC   =    -48029.72098068
  -exchange      EXHF   =       559.61768369
  -V(xc)+E(xc)   XCENC  =       641.61912523
  PAW double counting   =     26652.04694518   -26679.38176384
  entropy T*S    EENTRO =        -0.00741091
  eigenvalues    EBANDS =     -3387.56579294
  atomic energy  EATOM  =     10409.76635733
  ---------------------------------------------------
  free energy    TOTEN  =      -586.13539744 eV

  energy without entropy =     -586.12798653  energy(sigma->0) =     -586.13169198
  exchange ACFDT corr.  =        -0.00700879  see jH, gK, PRB 81, 115126


--------------------------------------------------------------------------------------------------------




--------------------------------------- Iteration      1(   8)  ---------------------------------------


    POTLOK:  cpu time    2.1162: real time    2.1184
    SETDIJ:  cpu time    2.0580: real time    2.0602
    TRIAL :  cpu time  321.2531: real time  321.5989
    CORREC:  cpu time    0.0008: real time    0.0008
    CHARGE:  cpu time    1.3406: real time    1.3416
    --------------------------------------------
      LOOP:  cpu time  326.7699: real time  327.1239

 eigenvalue-minimisations  :     0
 total energy-change (2. order) :-0.2785387E-01  (-0.2318845E-01)
 number of electron     241.0000004 magnetization       3.0053439
 augmentation part       13.1121765 magnetization       2.2585655

 DIPCOR: dipole corrections for dipol
 direction  3 min pos     1,
 dipolmoment           0.000208      0.000475     -0.208075 electrons x Angstroem
 Tr[quadrupol]     -6428.874262

 energy correction for charged system         0.000000 eV
 dipol+quadrupol energy correction           -0.001237 eV
 added-field ion interaction         -0.036833 eV  (added to PSCEN)


 Free energy of the ion-electron system (eV)
  ---------------------------------------------------
  alpha Z        PSCENC =       101.35522963
  Ewald energy   TEWEN  =     39146.13568907
  -Hartree energ DENC   =    -48031.08653795
  -exchange      EXHF   =       559.75100192
  -V(xc)+E(xc)   XCENC  =       641.69296420
  PAW double counting   =     26676.07015139   -26703.44705468
  entropy T*S    EENTRO =        -0.00642315
  eigenvalues    EBANDS =     -3386.39364131
  atomic energy  EATOM  =     10409.76635733
  ---------------------------------------------------
  free energy    TOTEN  =      -586.16325131 eV

  energy without entropy =     -586.15682816  energy(sigma->0) =     -586.16003973
  exchange ACFDT corr.  =        -0.00563764  see jH, gK, PRB 81, 115126


--------------------------------------------------------------------------------------------------------




--------------------------------------- Iteration      1(   9)  ---------------------------------------


    POTLOK:  cpu time    2.1115: real time    2.1133
    SETDIJ:  cpu time    2.0623: real time    2.0636
    TRIAL :  cpu time  322.1715: real time  322.6158
    CORREC:  cpu time    0.0008: real time    0.0008
    CHARGE:  cpu time    1.3418: real time    1.3430
    --------------------------------------------
      LOOP:  cpu time  327.6891: real time  328.1415

 eigenvalue-minimisations  :     0
 total energy-change (2. order) :-0.2074276E-01  (-0.1761562E-01)
 number of electron     241.0000004 magnetization       3.0052756
 augmentation part       13.1147308 magnetization       2.2692139

 DIPCOR: dipole corrections for dipol
 direction  3 min pos     1,
 dipolmoment           0.000213      0.000486     -0.212942 electrons x Angstroem
 Tr[quadrupol]     -6428.870376

 energy correction for charged system         0.000000 eV
 dipol+quadrupol energy correction           -0.001295 eV
 added-field ion interaction         -0.037694 eV  (added to PSCEN)


 Free energy of the ion-electron system (eV)
  ---------------------------------------------------
  alpha Z        PSCENC =       101.35430944
  Ewald energy   TEWEN  =     39146.13568907
  -Hartree energ DENC   =    -48031.47607130
  -exchange      EXHF   =       559.83611449
  -V(xc)+E(xc)   XCENC  =       641.74137810
  PAW double counting   =     26687.12341430   -26714.54720871
  entropy T*S    EENTRO =        -0.00571080
  eigenvalues    EBANDS =     -3386.11155364
  atomic energy  EATOM  =     10409.76635733
  ---------------------------------------------------
  free energy    TOTEN  =      -586.18399407 eV

  energy without entropy =     -586.17828327  energy(sigma->0) =     -586.18113867
  exchange ACFDT corr.  =        -0.00470330  see jH, gK, PRB 81, 115126


--------------------------------------------------------------------------------------------------------




--------------------------------------- Iteration      1(  10)  ---------------------------------------


    POTLOK:  cpu time    2.1084: real time    2.1098
    SETDIJ:  cpu time    2.0550: real time    2.0564
    TRIAL :  cpu time  321.6207: real time  321.9798
    CORREC:  cpu time    0.0008: real time    0.0008
    CHARGE:  cpu time    1.3407: real time    1.3426
    --------------------------------------------
      LOOP:  cpu time  327.1266: real time  327.4932

 eigenvalue-minimisations  :     0
 total energy-change (2. order) :-0.1602413E-01  (-0.1378473E-01)
 number of electron     241.0000004 magnetization       3.0049853
 augmentation part       13.1161333 magnetization       2.2788652

 DIPCOR: dipole corrections for dipol
 direction  3 min pos     1,
 dipolmoment           0.000216      0.000493     -0.216297 electrons x Angstroem
 Tr[quadrupol]     -6428.858395

 energy correction for charged system         0.000000 eV
 dipol+quadrupol energy correction           -0.001337 eV
 added-field ion interaction         -0.038288 eV  (added to PSCEN)


 Free energy of the ion-electron system (eV)
  ---------------------------------------------------
  alpha Z        PSCENC =       101.35367447
  Ewald energy   TEWEN  =     39146.13568907
  -Hartree energ DENC   =    -48031.29856445
  -exchange      EXHF   =       559.88984233
  -V(xc)+E(xc)   XCENC  =       641.77213911
  PAW double counting   =     26689.78645457   -26717.25549233
  entropy T*S    EENTRO =        -0.00519253
  eigenvalues    EBANDS =     -3386.34440749
  atomic energy  EATOM  =     10409.76635733
  ---------------------------------------------------
  free energy    TOTEN  =      -586.20001820 eV

  energy without entropy =     -586.19482568  energy(sigma->0) =     -586.19742194
  exchange ACFDT corr.  =        -0.00406256  see jH, gK, PRB 81, 115126


--------------------------------------------------------------------------------------------------------




--------------------------------------- Iteration      1(  11)  ---------------------------------------


    POTLOK:  cpu time    2.1017: real time    2.1033
    SETDIJ:  cpu time    2.0557: real time    2.0572
    TRIAL :  cpu time  321.3941: real time  321.7608
    CORREC:  cpu time    0.0008: real time    0.0008
    CHARGE:  cpu time    1.3449: real time    1.3459
    --------------------------------------------
      LOOP:  cpu time  326.8982: real time  327.2715

 eigenvalue-minimisations  :     0
 total energy-change (2. order) :-0.1270420E-01  (-0.1106308E-01)
 number of electron     241.0000004 magnetization       3.0046164
 augmentation part       13.1164080 magnetization       2.2876004

 DIPCOR: dipole corrections for dipol
 direction  3 min pos     1,
 dipolmoment           0.000218      0.000497     -0.218017 electrons x Angstroem
 Tr[quadrupol]     -6428.845250

 energy correction for charged system         0.000000 eV
 dipol+quadrupol energy correction           -0.001358 eV
 added-field ion interaction         -0.038593 eV  (added to PSCEN)


 Free energy of the ion-electron system (eV)
  ---------------------------------------------------
  alpha Z        PSCENC =       101.35334872
  Ewald energy   TEWEN  =     39146.13568907
  -Hartree energ DENC   =    -48030.89079318
  -exchange      EXHF   =       559.92662196
  -V(xc)+E(xc)   XCENC  =       641.79262475
  PAW double counting   =     26688.73108769   -26716.23631519
  entropy T*S    EENTRO =        -0.00480430
  eigenvalues    EBANDS =     -3386.78615103
  atomic energy  EATOM  =     10409.76635733
  ---------------------------------------------------
  free energy    TOTEN  =      -586.21272240 eV

  energy without entropy =     -586.20791810  energy(sigma->0) =     -586.21032025
  exchange ACFDT corr.  =        -0.00361543  see jH, gK, PRB 81, 115126


--------------------------------------------------------------------------------------------------------




--------------------------------------- Iteration      1(  12)  ---------------------------------------


    POTLOK:  cpu time    2.0992: real time    2.1004
    SETDIJ:  cpu time    2.0580: real time    2.0604
    TRIAL :  cpu time  320.8753: real time  321.2259
    CORREC:  cpu time    0.0008: real time    0.0008
    CHARGE:  cpu time    1.3542: real time    1.3554
    --------------------------------------------
      LOOP:  cpu time  326.3885: real time  326.7468

 eigenvalue-minimisations  :     0
 total energy-change (2. order) :-0.1030972E-01  (-0.9082285E-02)
 number of electron     241.0000004 magnetization       3.0042334
 augmentation part       13.1162432 magnetization       2.2954421

 DIPCOR: dipole corrections for dipol
 direction  3 min pos     1,
 dipolmoment           0.000219      0.000500     -0.219300 electrons x Angstroem
 Tr[quadrupol]     -6428.833408

 energy correction for charged system         0.000000 eV
 dipol+quadrupol energy correction           -0.001374 eV
 added-field ion interaction         -0.038820 eV  (added to PSCEN)


 Free energy of the ion-electron system (eV)
  ---------------------------------------------------
  alpha Z        PSCENC =       101.35310548
  Ewald energy   TEWEN  =     39146.13568907
  -Hartree energ DENC   =    -48030.44352040
  -exchange      EXHF   =       559.95534075
  -V(xc)+E(xc)   XCENC  =       641.80782697
  PAW double counting   =     26687.13381275   -26714.66711408
  entropy T*S    EENTRO =        -0.00450163
  eigenvalues    EBANDS =     -3387.25972568
  atomic energy  EATOM  =     10409.76635733
  ---------------------------------------------------
  free energy    TOTEN  =      -586.22303212 eV

  energy without entropy =     -586.21853050  energy(sigma->0) =     -586.22078131
  exchange ACFDT corr.  =        -0.00329218  see jH, gK, PRB 81, 115126


--------------------------------------------------------------------------------------------------------




--------------------------------------- Iteration      1(  13)  ---------------------------------------


    POTLOK:  cpu time    2.0899: real time    2.0974
    SETDIJ:  cpu time    2.0542: real time    2.0553
    TRIAL :  cpu time  320.4578: real time  320.8349
    CORREC:  cpu time    0.0008: real time    0.0008
    CHARGE:  cpu time    1.3436: real time    1.3458
    --------------------------------------------
      LOOP:  cpu time  325.9472: real time  326.3385

 eigenvalue-minimisations  :     0
 total energy-change (2. order) :-0.8547612E-02  (-0.7612921E-02)
 number of electron     241.0000004 magnetization       3.0038646
 augmentation part       13.1160607 magnetization       2.3024293

 DIPCOR: dipole corrections for dipol
 direction  3 min pos     1,
 dipolmoment           0.000221      0.000505     -0.221184 electrons x Angstroem
 Tr[quadrupol]     -6428.822837

 energy correction for charged system         0.000000 eV
 dipol+quadrupol energy correction           -0.001398 eV
 added-field ion interaction         -0.039153 eV  (added to PSCEN)


 Free energy of the ion-electron system (eV)
  ---------------------------------------------------
  alpha Z        PSCENC =       101.35274827
  Ewald energy   TEWEN  =     39146.13568907
  -Hartree energ DENC   =    -48030.03364972
  -exchange      EXHF   =       559.98024581
  -V(xc)+E(xc)   XCENC  =       641.82048295
  PAW double counting   =     26686.39684034   -26713.95456704
  entropy T*S    EENTRO =        -0.00425686
  eigenvalues    EBANDS =     -3387.69122512
  atomic energy  EATOM  =     10409.76635733
  ---------------------------------------------------
  free energy    TOTEN  =      -586.23157973 eV

  energy without entropy =     -586.22732287  energy(sigma->0) =     -586.22945130
  exchange ACFDT corr.  =        -0.00304789  see jH, gK, PRB 81, 115126


--------------------------------------------------------------------------------------------------------




--------------------------------------- Iteration      1(  14)  ---------------------------------------


    POTLOK:  cpu time    2.0925: real time    2.0940
    SETDIJ:  cpu time    2.0696: real time    2.0707
    TRIAL :  cpu time  320.6834: real time  321.0512
    CORREC:  cpu time    0.0008: real time    0.0008
    CHARGE:  cpu time    1.3427: real time    1.3436
    --------------------------------------------
      LOOP:  cpu time  326.1898: real time  326.5642

 eigenvalue-minimisations  :     0
 total energy-change (2. order) :-0.7225793E-02  (-0.6504216E-02)
 number of electron     241.0000004 magnetization       3.0035220
 augmentation part       13.1158748 magnetization       2.3086503

 DIPCOR: dipole corrections for dipol
 direction  3 min pos     1,
 dipolmoment           0.000223      0.000510     -0.223704 electrons x Angstroem
 Tr[quadrupol]     -6428.812971

 energy correction for charged system         0.000000 eV
 dipol+quadrupol energy correction           -0.001430 eV
 added-field ion interaction         -0.039599 eV  (added to PSCEN)


 Free energy of the ion-electron system (eV)
  ---------------------------------------------------
  alpha Z        PSCENC =       101.35227025
  Ewald energy   TEWEN  =     39146.13568907
  -Hartree energ DENC   =    -48029.67158998
  -exchange      EXHF   =       560.00287599
  -V(xc)+E(xc)   XCENC  =       641.83169565
  PAW double counting   =     26686.68756976   -26714.26861828
  entropy T*S    EENTRO =        -0.00405338
  eigenvalues    EBANDS =     -3388.07079845
  atomic energy  EATOM  =     10409.76635733
  ---------------------------------------------------
  free energy    TOTEN  =      -586.23880553 eV

  energy without entropy =     -586.23475215  energy(sigma->0) =     -586.23677884
  exchange ACFDT corr.  =        -0.00285577  see jH, gK, PRB 81, 115126


--------------------------------------------------------------------------------------------------------




--------------------------------------- Iteration      1(  15)  ---------------------------------------


    POTLOK:  cpu time    2.0903: real time    2.0918
    SETDIJ:  cpu time    2.0529: real time    2.0553
    TRIAL :  cpu time  320.7451: real time  321.1005
    CORREC:  cpu time    0.0008: real time    0.0008
    CHARGE:  cpu time    1.3397: real time    1.3408
    --------------------------------------------
      LOOP:  cpu time  326.2298: real time  326.5931

 eigenvalue-minimisations  :     0
 total energy-change (2. order) :-0.6217472E-02  (-0.5652380E-02)
 number of electron     241.0000004 magnetization       3.0032095
 augmentation part       13.1155756 magnetization       2.3142112

 DIPCOR: dipole corrections for dipol
 direction  3 min pos     1,
 dipolmoment           0.000226      0.000516     -0.226317 electrons x Angstroem
 Tr[quadrupol]     -6428.803566

 energy correction for charged system         0.000000 eV
 dipol+quadrupol energy correction           -0.001463 eV
 added-field ion interaction         -0.040062 eV  (added to PSCEN)


 Free energy of the ion-electron system (eV)
  ---------------------------------------------------
  alpha Z        PSCENC =       101.35177409
  Ewald energy   TEWEN  =     39146.13568907
  -Hartree energ DENC   =    -48029.34574181
  -exchange      EXHF   =       560.02379160
  -V(xc)+E(xc)   XCENC  =       641.84183643
  PAW double counting   =     26687.73015436   -26715.33312304
  entropy T*S    EENTRO =        -0.00388021
  eigenvalues    EBANDS =     -3388.41170765
  atomic energy  EATOM  =     10409.76635733
  ---------------------------------------------------
  free energy    TOTEN  =      -586.24502300 eV

  energy without entropy =     -586.24114278  energy(sigma->0) =     -586.24308289
  exchange ACFDT corr.  =        -0.00270011  see jH, gK, PRB 81, 115126


--------------------------------------------------------------------------------------------------------




--------------------------------------- Iteration      1(  16)  ---------------------------------------


    POTLOK:  cpu time    2.0845: real time    2.0861
    SETDIJ:  cpu time    2.0676: real time    2.0696
    TRIAL :  cpu time  320.5074: real time  320.8667
    CORREC:  cpu time    0.0008: real time    0.0008
    CHARGE:  cpu time    1.3454: real time    1.3477
    --------------------------------------------
      LOOP:  cpu time  326.0069: real time  326.3750

 eigenvalue-minimisations  :     0
 total energy-change (2. order) :-0.5434933E-02  (-0.4986982E-02)
 number of electron     241.0000004 magnetization       3.0029265
 augmentation part       13.1151234 magnetization       2.3192098

 DIPCOR: dipole corrections for dipol
 direction  3 min pos     1,
 dipolmoment           0.000228      0.000521     -0.228619 electrons x Angstroem
 Tr[quadrupol]     -6428.794569

 energy correction for charged system         0.000000 eV
 dipol+quadrupol energy correction           -0.001493 eV
 added-field ion interaction         -0.040469 eV  (added to PSCEN)


 Free energy of the ion-electron system (eV)
  ---------------------------------------------------
  alpha Z        PSCENC =       101.35133667
  Ewald energy   TEWEN  =     39146.13568907
  -Hartree energ DENC   =    -48029.04288330
  -exchange      EXHF   =       560.04325200
  -V(xc)+E(xc)   XCENC  =       641.85105060
  PAW double counting   =     26689.16865667   -26716.79117767
  entropy T*S    EENTRO =        -0.00372924
  eigenvalues    EBANDS =     -3388.72885909
  atomic energy  EATOM  =     10409.76635733
  ---------------------------------------------------
  free energy    TOTEN  =      -586.25045793 eV

  energy without entropy =     -586.24672869  energy(sigma->0) =     -586.24859331
  exchange ACFDT corr.  =        -0.00257081  see jH, gK, PRB 81, 115126


--------------------------------------------------------------------------------------------------------




--------------------------------------- Iteration      1(  17)  ---------------------------------------


    POTLOK:  cpu time    2.0809: real time    2.0838
    SETDIJ:  cpu time    2.0598: real time    2.0614
    TRIAL :  cpu time  320.6106: real time  320.9524
    CORREC:  cpu time    0.0007: real time    0.0007
    CHARGE:  cpu time    1.3403: real time    1.3426
    --------------------------------------------
      LOOP:  cpu time  326.0934: real time  326.4453

 eigenvalue-minimisations  :     0
 total energy-change (2. order) :-0.4818349E-02  (-0.4458840E-02)
 number of electron     241.0000004 magnetization       3.0026708
 augmentation part       13.1145652 magnetization       2.3237297

 DIPCOR: dipole corrections for dipol
 direction  3 min pos     1,
 dipolmoment           0.000230      0.000526     -0.230589 electrons x Angstroem
 Tr[quadrupol]     -6428.785887

 energy correction for charged system         0.000000 eV
 dipol+quadrupol energy correction           -0.001519 eV
 added-field ion interaction         -0.040818 eV  (added to PSCEN)


 Free energy of the ion-electron system (eV)
  ---------------------------------------------------
  alpha Z        PSCENC =       101.35096204
  Ewald energy   TEWEN  =     39146.13568907
  -Hartree energ DENC   =    -48028.75197212
  -exchange      EXHF   =       560.06131828
  -V(xc)+E(xc)   XCENC  =       641.85937187
  PAW double counting   =     26690.71615789   -26718.35575419
  entropy T*S    EENTRO =        -0.00359417
  eigenvalues    EBANDS =     -3389.03367721
  atomic energy  EATOM  =     10409.76635733
  ---------------------------------------------------
  free energy    TOTEN  =      -586.25527628 eV

  energy without entropy =     -586.25168211  energy(sigma->0) =     -586.25347920
  exchange ACFDT corr.  =        -0.00246059  see jH, gK, PRB 81, 115126


--------------------------------------------------------------------------------------------------------




--------------------------------------- Iteration      1(  18)  ---------------------------------------


    POTLOK:  cpu time    2.0826: real time    2.0838
    SETDIJ:  cpu time    2.0554: real time    2.0577
    TRIAL :  cpu time  320.6298: real time  320.9821
    CORREC:  cpu time    0.0008: real time    0.0008
    CHARGE:  cpu time    1.3395: real time    1.3406
    --------------------------------------------
      LOOP:  cpu time  326.1090: real time  326.4683

 eigenvalue-minimisations  :     0
[...]
  Alpha Z   101.39330   101.39330   101.39330
  Ewald   47496.68476 47641.56487-55992.13964     2.01521  -147.50137    -0.41889
  Hartree 47223.70811 47277.67446-46476.07630     0.63987   -74.46349     0.07087
  E(xc)    -708.79053  -709.40177  -722.93590    -0.00296    -0.18316    -0.00827
  Local  -97292.94521-97493.13600 99425.64103    -2.55432   211.05999     0.16139
  n-local  -186.98860  -182.84349  -180.68884     0.02282     1.48625     0.02744
  augment    43.71060    49.75501    47.69121     0.00656     0.75055     0.06874
  Kinetic  3622.90695  3620.31996  4115.79101     0.35143     9.80511     0.12760
  Fock     -341.90218  -348.26639  -318.67849    -0.00156    -0.62503    -0.05404
  -------------------------------------------------------------------------------------
  Total     -42.22280   -42.94006    -0.00263     0.47706     0.32885    -0.02517
  in kB     -21.29411   -21.65584    -0.00132     0.24059     0.16585    -0.01269
  external pressure =      -14.32 kB  Pullay stress =        0.00 kB


 VOLUME and BASIS-vectors are now :
 -----------------------------------------------------------------------------
  energy-cutoff  :      500.00
  volume of cell :     3176.86
      direct lattice vectors                 reciprocal lattice vectors
    12.712800000  0.000000000  0.000000000     0.078660877 -0.000005766  0.000078516
     0.000902641 12.313699967  0.000000000     0.000000000  0.081210359  0.000185247
    -0.020260172 -0.046292266 20.294037089     0.000000000  0.000000000  0.049275558

  length of vectors
    12.712800000 12.313700000 20.294100000     0.078660917  0.081210571  0.049275558


 FORCES acting on ions:
    Electron-Ion                     Ewald-Force                    Non-Local-Force
 -----------------------------------------------------------------------------------------------
   0.422E+01 0.134E+01 -.246E+01   -.466E+01 -.126E+01 0.246E+01   0.477E+00 -.621E-01 -.470E-02
   0.537E+00 -.135E+01 -.681E+01   -.516E+00 0.127E+01 0.680E+01   0.691E-03 0.270E-01 -.162E-02
   0.421E+01 -.237E+00 -.332E+01   -.447E+01 0.229E+00 0.330E+01   0.161E+00 0.120E-01 0.153E-01
   0.127E+02 0.461E+01 -.201E+01   -.132E+02 -.482E+01 0.195E+01   0.360E+00 0.170E+00 0.668E-01
   0.129E+02 -.117E+01 -.717E+01   -.133E+02 0.141E+01 0.708E+01   0.391E+00 -.208E+00 0.709E-01
   0.538E+01 -.283E+01 -.587E+01   -.546E+01 0.271E+01 0.580E+01   0.154E+00 0.654E-01 0.711E-01
   0.298E+01 0.121E+01 -.873E+01   -.341E+01 -.105E+01 0.873E+01   0.354E+00 -.796E-01 -.109E-01
   0.319E+02 -.141E+02 -.918E+01   -.353E+02 0.146E+02 0.950E+01   0.345E+01 -.490E+00 -.355E+00
   0.761E+01 0.145E+02 -.134E+02   -.889E+01 -.164E+02 0.134E+02   0.123E+01 0.198E+01 -.726E-01
   0.769E+01 -.249E+00 -.582E+01   -.781E+01 0.226E+00 0.584E+01   0.187E-01 0.152E-02 -.310E-01
   -.877E+00 0.407E+01 -.736E+01   0.924E+00 -.440E+01 0.731E+01   -.197E-01 0.289E+00 0.405E-01
   0.890E+01 -.166E+02 -.775E+01   -.104E+02 0.184E+02 0.766E+01   0.141E+01 -.183E+01 0.915E-01
   0.433E+01 0.242E+01 0.109E+01   -.438E+01 -.229E+01 -.111E+01   0.147E+00 -.529E-01 0.348E-01
   0.663E+00 -.364E+01 -.146E+01   -.663E+00 0.400E+01 0.137E+01   0.603E-01 -.286E+00 0.101E+00
   0.278E+02 0.877E+01 -.758E+01   -.312E+02 -.924E+01 0.748E+01   0.341E+01 0.483E+00 0.896E-01
   0.978E+01 0.238E+01 -.295E+01   -.103E+02 -.252E+01 0.292E+01   0.564E+00 0.123E+00 0.279E-01
   0.180E+00 0.239E+01 -.980E+00   -.170E+00 -.231E+01 0.969E+00   -.398E-02 -.198E-01 0.151E-01
   0.199E+01 -.168E+01 0.489E+00   -.252E+01 0.151E+01 -.529E+00   0.429E+00 0.813E-01 0.513E-01
   0.991E+01 -.284E+01 -.358E+01   -.103E+02 0.312E+01 0.355E+01   0.357E+00 -.273E+00 0.335E-01
   -.623E+01 0.328E+01 -.674E+01   0.585E+01 -.325E+01 0.669E+01   0.301E+00 -.474E-01 0.378E-01
   0.398E+01 0.113E+02 -.531E+01   -.382E+01 -.118E+02 0.521E+01   0.114E-02 0.547E+00 0.105E+00
   0.629E+01 0.344E+01 -.701E+01   -.591E+01 -.341E+01 0.696E+01   -.301E+00 -.431E-01 0.380E-01
   -.404E+01 0.111E+02 -.483E+01   0.388E+01 -.116E+02 0.473E+01   0.202E-02 0.537E+00 0.107E+00
   0.198E+01 0.319E+02 -.161E+02   -.296E+01 -.348E+02 0.171E+02   0.116E+01 0.276E+01 -.101E+01
   -.226E+01 0.321E+02 -.161E+02   0.326E+01 -.349E+02 0.172E+02   -.118E+01 0.277E+01 -.102E+01
   0.817E+01 -.237E+02 -.933E+01   -.932E+01 0.264E+02 0.923E+01   0.133E+01 -.277E+01 0.845E-01
   0.165E+01 -.495E+01 -.737E+01   -.148E+01 0.551E+01 0.734E+01   -.806E-01 -.584E+00 0.145E-01
   -.738E+01 -.233E+02 -.991E+01   0.850E+01 0.261E+02 0.980E+01   -.130E+01 -.275E+01 0.881E-01
   -.154E+01 -.528E+01 -.684E+01   0.136E+01 0.585E+01 0.681E+01   0.742E-01 -.590E+00 0.173E-01
   -.427E+01 -.591E-01 -.288E+01   0.453E+01 0.560E-01 0.286E+01   -.160E+00 0.130E-01 0.185E-01
   -.127E+02 0.462E+01 -.117E+01   0.132E+02 -.483E+01 0.111E+01   -.359E+00 0.168E+00 0.629E-01
   -.424E+01 0.871E+00 -.179E+01   0.467E+01 -.789E+00 0.179E+01   -.482E+00 -.692E-01 -.294E-02
   -.506E+00 -.175E+01 -.654E+01   0.480E+00 0.166E+01 0.653E+01   0.207E-02 0.243E-01 -.920E-03
   -.290E+01 0.148E+01 -.826E+01   0.333E+01 -.133E+01 0.827E+01   -.347E+00 -.812E-01 -.159E-01
   -.318E+02 -.138E+02 -.880E+01   0.352E+02 0.142E+02 0.910E+01   -.343E+01 -.496E+00 -.342E+00
   -.128E+02 -.149E+01 -.598E+01   0.132E+02 0.174E+01 0.588E+01   -.382E+00 -.222E+00 0.862E-01
   -.531E+01 -.304E+01 -.574E+01   0.539E+01 0.293E+01 0.567E+01   -.148E+00 0.672E-01 0.667E-01
   0.864E+00 0.425E+01 -.705E+01   -.907E+00 -.458E+01 0.700E+01   0.273E-01 0.282E+00 0.449E-01
   -.773E+01 0.146E+02 -.132E+02   0.900E+01 -.166E+02 0.133E+02   -.122E+01 0.200E+01 -.597E-01
   -.788E+01 -.313E-01 -.578E+01   0.799E+01 0.315E-02 0.581E+01   -.214E-01 0.413E-02 -.315E-01
   -.121E+01 -.351E+01 -.157E+01   0.122E+01 0.387E+01 0.148E+01   -.737E-01 -.286E+00 0.100E+00
   -.284E+02 0.806E+01 -.713E+01   0.319E+02 -.852E+01 0.703E+01   -.344E+01 0.463E+00 0.844E-01
   -.985E+01 -.160E+02 -.797E+01   0.113E+02 0.178E+02 0.788E+01   -.143E+01 -.182E+01 0.935E-01
   -.471E+01 0.235E+01 0.990E+00   0.475E+01 -.222E+01 -.101E+01   -.155E+00 -.573E-01 0.341E-01
   -.239E+01 -.157E+01 0.326E+00   0.293E+01 0.140E+01 -.366E+00   -.438E+00 0.796E-01 0.483E-01
   -.979E+01 -.305E+01 -.313E+01   0.102E+02 0.335E+01 0.309E+01   -.352E+00 -.282E+00 0.342E-01
   -.100E+02 0.178E+01 -.288E+01   0.106E+02 -.189E+01 0.286E+01   -.576E+00 0.101E+00 0.242E-01
   -.438E+00 0.199E+01 -.982E+00   0.433E+00 -.191E+01 0.972E+00   -.849E-04 -.273E-01 0.121E-01
   -.995E+02 0.397E+01 -.302E+02   0.127E+03 -.394E+01 0.312E+02   -.255E+02 0.243E-01 -.954E+00
   0.987E+01 -.694E+02 -.525E+01   0.753E-01 0.887E+02 0.614E+01   -.963E+01 -.185E+02 -.517E+00
   -.952E+01 -.695E+02 -.659E+01   -.478E+00 0.889E+02 0.760E+01   0.968E+01 -.186E+02 -.656E+00
   -.893E+01 0.592E+02 -.137E+02   0.199E+02 -.788E+02 0.137E+02   -.103E+02 0.185E+02 0.654E-01
   0.926E+01 0.569E+02 -.113E+02   -.202E+02 -.764E+02 0.111E+02   0.102E+02 0.184E+02 0.162E+00
   0.976E+02 0.519E+01 -.315E+02   -.124E+03 -.513E+01 0.327E+02   0.253E+02 -.195E-01 -.104E+01
   0.628E+00 -.911E+02 0.603E+03   -.630E+00 0.933E+02 -.601E+03   0.227E-01 -.226E+01 -.348E+01
   0.360E+01 0.834E+02 -.230E+03   -.348E+01 -.781E+02 0.223E+03   -.111E+00 -.429E+01 0.603E+01
 -----------------------------------------------------------------------------------------------
   0.365E+00 0.715E+01 0.995E+00   -.853E-13 0.355E-12 0.853E-13   -.332E+00 -.707E+01 -.144E+01
 
 
 POSITION                                       TOTAL-FORCE (eV/Angst)
 -----------------------------------------------------------------------------------
      2.81037     -0.00877     10.16185         0.063661      0.019665      0.000784
      0.69187      1.23731     10.17649         0.018532     -0.059737     -0.007201
      1.38773     -0.00681     10.16876        -0.082282      0.003669     -0.000602
      3.51331      1.23028     10.14196        -0.053923     -0.035973      0.007565
      2.83368      2.48648     10.14762         0.016904      0.019792     -0.021177
      0.69943      3.71084     10.17442         0.088806     -0.049317      0.003613
      1.40206      2.47743     10.17384        -0.067796      0.074730     -0.003941
      3.57987      3.71025     10.11254         0.227774     -0.041607     -0.057609
      2.88952      4.97575     10.17069         0.023688      0.127549     -0.013859
      0.69828      6.14918     10.17985        -0.086420     -0.021795     -0.004680
      1.43810      4.93367     10.17680         0.017357     -0.029202     -0.010269
      2.87618      7.33198     10.19153         0.025483     -0.176718      0.010375
      0.69970      8.59346     10.16461         0.112828      0.080433      0.014905
      1.43425      7.37045     10.17342         0.056196      0.048805      0.013433
      3.58277      8.58984     10.19870         0.170255      0.036612     -0.007964
      2.83385      9.81339     10.17934         0.067545      0.004017      0.007878
      0.69362     11.06613     10.16606         0.003716      0.064472      0.005149
      1.40396      9.82431     10.16616        -0.082121     -0.088055      0.014724
      3.51548     11.06547     10.17507        -0.009826     -0.003576      0.004531
      7.03988     -0.01362     10.16167        -0.076000     -0.016880     -0.003504
      4.93028      1.22162     10.13044         0.161047      0.072196      0.011330
      5.63182     -0.01487     10.16281         0.078033     -0.019005     -0.003613
      7.74027      1.22364     10.12862        -0.153056      0.060698      0.013277
      7.05221      2.46779     10.08213         0.242551      0.064885     -0.056314
      5.61741      2.46609     10.08201        -0.245982      0.064044     -0.058096
      7.05531      9.81179     10.20614         0.243789     -0.159085     -0.015631
      4.93469     11.05743     10.18555         0.077176     -0.058339     -0.012115
      5.62029      9.80978     10.20821        -0.241589     -0.155410     -0.018488
      7.74001     11.05939     10.18332        -0.089950     -0.058732     -0.010070
     11.28431     -0.00574     10.16689         0.085026      0.010223      0.002112
      9.15750      1.23278     10.13871         0.053818     -0.028238      0.009594
      9.86173     -0.00618     10.15889        -0.073777      0.009301      0.002002
     11.97891      1.23825     10.17538        -0.021287     -0.061371     -0.007913
     11.26758      2.47878     10.17194         0.067325      0.070660     -0.008256
      9.08854      3.71416     10.11217        -0.223608     -0.051679     -0.053270
      9.83571      2.48947     10.14420        -0.012101      0.008192     -0.008982
     11.96987      3.71177     10.17383        -0.089012     -0.046759      0.000646
     11.23134      4.93551     10.17624        -0.004875     -0.032318     -0.007148
      9.77948      4.97895     10.17128        -0.024552      0.125176     -0.004894
     11.97361      6.14992     10.17985         0.081420     -0.024129     -0.002197
     11.23959      7.37217     10.17387        -0.054355      0.048777      0.012820
      9.09492      8.59427     10.19687        -0.167150      0.023437     -0.009215
      9.79837      7.33593     10.19257        -0.027335     -0.161940      0.009240
     11.97534      8.59451     10.16479        -0.121655      0.072647      0.013893
     11.27187      9.82612     10.16608         0.081341     -0.087378      0.012254
      9.15923     11.06826     10.17271         0.022028     -0.001816      0.000709
      9.84258      9.81720     10.17820        -0.075483     -0.007434      0.004478
     11.98156     11.06727     10.16568        -0.003331      0.055289      0.002659
      3.60628      6.15918     10.20551        -0.625362      0.052169      0.012586
      4.96197      3.68460     10.00100        -0.514741     -0.827411      0.329056
      7.70527      3.68818     10.00432         0.517555     -0.828108      0.301612
      4.97051      8.59095     10.21849        -0.189760      0.530648      0.032754
      7.70791      8.59478     10.21370         0.179973      0.524100      0.043617
      9.06382      6.16484     10.20926         0.617739      0.035872     -0.003000
      6.32977      4.75248      9.05949         0.024064      0.056514     -0.480854
      6.35128      6.84559     10.35938        -0.008299      0.767440     -0.006735
 -----------------------------------------------------------------------------------
    total drift:                                0.004464      0.000479     -0.007947


--------------------------------------------------------------------------------------------------------



  FREE ENERGIE OF THE ION-ELECTRON SYSTEM (eV)
  ---------------------------------------------------
  free  energy   TOTEN  =      -586.33372547 eV

  energy  without entropy=     -586.33316214  energy(sigma->0) =     -586.33344380
 


--------------------------------------------------------------------------------------------------------


    POTLOK:  cpu time    4.1395: real time    4.1426


--------------------------------------------------------------------------------------------------------


 stress matrix after NEB project (eV)
    -42.22280      0.47703     -0.02517
      0.47706    -42.94006      0.32222
     -0.02521      0.32885     -0.00263
  FORCES: max atom, RMS     1.028516    0.304343
  FORCE total and by dimension    2.277498    0.828108
  Stress total and by dimension   60.226924   42.940062
 writing wavefunctions
     LOOP+:  cpu time36251.9662: real time36296.2342
    4ORBIT:  cpu time    0.0000: real time    0.0000
 


 total charge     
 
# of ion       s       p       d       tot
------------------------------------------
    1        0.865   1.787   0.000   2.652
    2        0.867   1.772   0.000   2.638
    3        0.867   1.782   0.000   2.650
    4        0.871   1.772   0.000   2.642
    5        0.864   1.767   0.000   2.632
    6        0.863   1.769   0.000   2.632
    7        0.866   1.772   0.000   2.638
    8        0.854   1.729   0.000   2.584
    9        0.852   1.719   0.000   2.570
   10        0.866   1.767   0.000   2.633
   11        0.864   1.759   0.000   2.623
   12        0.855   1.728   0.000   2.583
   13        0.865   1.774   0.000   2.639
   14        0.864   1.767   0.000   2.632
   15        0.857   1.726   0.000   2.583
   16        0.865   1.770   0.000   2.635
   17        0.867   1.773   0.000   2.640
   18        0.866   1.776   0.000   2.642
   19        0.871   1.769   0.000   2.640
   20        0.868   1.797   0.000   2.665
   21        0.870   1.788   0.000   2.658
   22        0.868   1.797   0.000   2.665
   23        0.870   1.788   0.000   2.658
   24        0.861   1.746   0.000   2.607
   25        0.861   1.746   0.000   2.607
   26        0.862   1.743   0.000   2.606
   27        0.869   1.786   0.000   2.655
   28        0.862   1.743   0.000   2.605
   29        0.869   1.787   0.000   2.655
   30        0.867   1.783   0.000   2.650
   31        0.871   1.771   0.000   2.642
   32        0.865   1.787   0.000   2.652
   33        0.867   1.771   0.000   2.638
   34        0.866   1.772   0.000   2.638
   35        0.854   1.728   0.000   2.582
   36        0.864   1.766   0.000   2.631
   37        0.863   1.769   0.000   2.632
   38        0.864   1.758   0.000   2.622
   39        0.851   1.717   0.000   2.569
   40        0.866   1.767   0.000   2.633
   41        0.864   1.768   0.000   2.632
   42        0.857   1.728   0.000   2.586
   43        0.855   1.728   0.000   2.583
   44        0.865   1.774   0.000   2.638
   45        0.866   1.777   0.000   2.643
   46        0.871   1.769   0.000   2.641
   47        0.866   1.771   0.000   2.637
   48        0.867   1.774   0.000   2.641
   49        1.238   2.601   0.000   3.839
   50        1.231   2.664   0.000   3.895
   51        1.231   2.662   0.000   3.893
   52        1.233   2.659   0.000   3.892
   53        1.233   2.662   0.000   3.895
   54        1.237   2.601   0.000   3.838
   55        0.471   0.352   6.133   6.956
   56        2.193   6.106   0.950   9.249
--------------------------------------------------
tot         51.548 106.985   7.083 165.616
 


 magnetization (x)
 
# of ion       s       p       d       tot
------------------------------------------
    1        0.000   0.003   0.000   0.003
    2        0.000   0.000   0.000   0.001
    3       -0.000  -0.008   0.000  -0.008
    4       -0.000  -0.001   0.000  -0.001
    5        0.001  -0.000   0.000   0.000
    6        0.000   0.001   0.000   0.001
    7       -0.000  -0.008   0.000  -0.008
    8       -0.000  -0.017   0.000  -0.017
    9        0.001  -0.003   0.000  -0.002
   10       -0.001  -0.017   0.000  -0.018
   11        0.000  -0.003   0.000  -0.003
   12        0.001   0.009   0.000   0.011
   13        0.001   0.009   0.000   0.009
   14       -0.000  -0.008   0.000  -0.009
   15       -0.001  -0.016   0.000  -0.018
   16        0.001   0.005   0.000   0.006
   17        0.000  -0.001   0.000  -0.001
   18       -0.001  -0.014   0.000  -0.015
   19        0.000   0.006   0.000   0.007
   20        0.000   0.000   0.000   0.001
   21        0.000  -0.000   0.000   0.000
   22        0.000   0.000   0.000   0.000
   23        0.000  -0.000   0.000  -0.000
   24        0.001  -0.006   0.000  -0.005
   25        0.001  -0.007   0.000  -0.006
   26        0.001   0.013   0.000   0.013
   27       -0.001  -0.006   0.000  -0.007
   28        0.001   0.013   0.000   0.013
   29       -0.001  -0.007   0.000  -0.007
   30       -0.000  -0.008   0.000  -0.008
   31       -0.000  -0.001   0.000  -0.001
   32        0.000   0.003   0.000   0.003
   33        0.000  -0.000   0.000   0.000
   34       -0.000  -0.007   0.000  -0.007
   35       -0.000  -0.017   0.000  -0.017
   36        0.001  -0.001   0.000  -0.000
   37        0.000   0.000   0.000   0.000
   38        0.000  -0.002   0.000  -0.002
   39        0.001  -0.004   0.000  -0.003
   40       -0.001  -0.019   0.000  -0.020
   41       -0.000  -0.008   0.000  -0.008
   42       -0.001  -0.016   0.000  -0.018
   43        0.001   0.008   0.000   0.009
   44        0.001   0.008   0.000   0.009
   45       -0.001  -0.013   0.000  -0.014
   46        0.000   0.006   0.000   0.007
   47        0.001   0.005   0.000   0.006
   48        0.000  -0.002   0.000  -0.002
   49       -0.002  -0.086   0.000  -0.088
   50        0.004  -0.026   0.000  -0.022
   51        0.004  -0.027   0.000  -0.022
   52        0.001   0.023   0.000   0.024
   53        0.001   0.022   0.000   0.023
   54       -0.002  -0.087   0.000  -0.089
   55        0.064   0.054   3.224   3.342
   56       -0.012  -0.010  -0.180  -0.202
--------------------------------------------------
tot          0.063  -0.265   3.044   2.842
 

 total amount of memory used by VASP MPI-rank0   219736. kBytes
=======================================================================

   base      :      30000. kBytes
   nonl-proj :       6975. kBytes
   fftplans  :      17535. kBytes
   grid      :      46049. kBytes
   one-center:         93. kBytes
   HF        :         46. kBytes
   nonlr-proj:      17986. kBytes
   wavefun   :     101052. kBytes
 
  
  
 General timing and accounting informations for this job:
 ========================================================
  
                  Total CPU time used (sec):    36304.547
                            User time (sec):    36263.973
                          System time (sec):       40.573
                         Elapsed time (sec):    36355.150
  
                   Maximum memory used (kb):      490140.
                   Average memory used (kb):           0.
  
                          Minor page faults:      1868781
                          Major page faults:          215
                 Voluntary context switches:       388888
