 vasp.5.4.4.18Apr17-6-g9f103f2a35 (build Feb 25 2019 10:51:38) complex          
  
 executed on             LinuxIFC date 2021.03.09  16:07:16
 running on   80 total cores
 distrk:  each k-point on   40 cores,    2 groups
 distr:  one band on NCORES_PER_BAND=  40 cores,    1 groups


--------------------------------------------------------------------------------------------------------


 INCAR:
 POTCAR:    PAW_PBE C 08Apr2002                   
 POTCAR:    PAW_PBE N 08Apr2002                   
 POTCAR:    PAW_PBE Cu 22Jun2005                  
 POTCAR:    PAW_PBE Fe 06Sep2000                  

 ----------------------------------------------------------------------------- 
|                                                                             |
|           W    W    AA    RRRRR   N    N  II  N    N   GGGG   !!!           |
|           W    W   A  A   R    R  NN   N  II  NN   N  G    G  !!!           |
|           W    W  A    A  R    R  N N  N  II  N N  N  G       !!!           |
|           W WW W  AAAAAA  RRRRR   N  N N  II  N  N N  G  GGG   !            |
|           WW  WW  A    A  R   R   N   NN  II  N   NN  G    G                |
|           W    W  A    A  R    R  N    N  II  N    N   GGGG   !!!           |
|                                                                             |
|      For optimal performance we recommend to set                            |
|        NCORE= 4 - approx SQRT( number of cores)                             |
|      NCORE specifies how many cores store one orbital (NPAR=cpu/NCORE).     |
|      This setting can  greatly improve the performance of VASP for DFT.     |
|      The default,   NCORE=1            might be grossly inefficient         |
|      on modern multi-core architectures or massively parallel machines.     |
|      Do your own testing !!!!                                               |
|      Unfortunately you need to use the default for GW and RPA calculations. |
|      (for HF NCORE is supported but not extensively tested yet)             |
|                                                                             |
 ----------------------------------------------------------------------------- 


 ----------------------------------------------------------------------------- 
|                                                                             |
|           W    W    AA    RRRRR   N    N  II  N    N   GGGG   !!!           |
|           W    W   A  A   R    R  NN   N  II  NN   N  G    G  !!!           |
|           W    W  A    A  R    R  N N  N  II  N N  N  G       !!!           |
|           W WW W  AAAAAA  RRRRR   N  N N  II  N  N N  G  GGG   !            |
|           WW  WW  A    A  R   R   N   NN  II  N   NN  G    G                |
|           W    W  A    A  R    R  N    N  II  N    N   GGGG   !!!           |
|                                                                             |
|      You have enabled k-point parallelism (KPAR>1).                         |
|      This developmental code was originally  written by Paul Kent at ORNL,  |
|      and carefully double checked in Vienna.                                |
|      GW as well as linear response parallelism added by Martijn Marsman     |
|      and Georg Kresse.                                                      |
|      Carefully verify results versus KPAR=1.                                |
|      Report problems to Paul Kent and Vienna.                               |
|                                                                             |
 ----------------------------------------------------------------------------- 

 POTCAR:    PAW_PBE C 08Apr2002                   
   VRHFIN =C: s2p2                                                              
   LEXCH  = PE                                                                  
   EATOM  =   147.1560 eV,   10.8157 Ry                                         
                                                                                
   TITEL  = PAW_PBE C 08Apr2002                                                 
   LULTRA =        F    use ultrasoft PP ?                                      
   IUNSCR =        1    unscreen: 0-lin 1-nonlin 2-no                           
   RPACOR =    1.200    partial core radius                                     
   POMASS =   12.011; ZVAL   =    4.000    mass and valenz                      
   RCORE  =    1.500    outmost cutoff radius                                   
   RWIGS  =    1.630; RWIGS  =    0.863    wigner-seitz radius (au A)           
   ENMAX  =  400.000; ENMIN  =  300.000 eV                                      
   ICORE  =        2    local potential                                         
   LCOR   =        T    correct aug charges                                     
   LPAW   =        T    paw PP                                                  
   EAUG   =  644.873                                                            
   DEXC   =    0.000                                                            
   RMAX   =    1.529    core radius for proj-oper                               
   RAUG   =    1.300    factor for augmentation sphere                          
   RDEP   =    1.501    radius for radial grids                                 
   RDEPT  =    1.300    core radius for aug-charge                              
                                                                                
   Atomic configuration                                                         
    4 entries                                                                   
     n  l   j            E        occ.                                          
     1  0  0.50      -273.3789   2.0000                                         
     2  0  0.50       -13.7508   2.0000                                         
     2  1  0.50        -5.2854   2.0000                                         
     3  2  1.50        -5.4423   0.0000                                         
   Description                                                                  
     l       E           TYP  RCUT    TYP  RCUT                                 
     0    -13.7508458     23  1.200                                             
     0     -8.2022199     23  1.200                                             
     1     -5.2854383     23  1.500                                             
     1     34.0145650     23  1.500                                             
     2     -5.4423304      7  1.500                                             
  local pseudopotential read in
  partial core-charges read in
  partial kinetic energy density read in
  atomic valenz-charges read in
  non local Contribution for L=           0  read in
    real space projection operators read in
  non local Contribution for L=           0  read in
    real space projection operators read in
  non local Contribution for L=           1  read in
    real space projection operators read in
  non local Contribution for L=           1  read in
    real space projection operators read in
    PAW grid and wavefunctions read in
 
   number of l-projection  operators is LMAX  =           4
   number of lm-projection operators is LMMAX =           8
 
 POTCAR:    PAW_PBE N 08Apr2002                   
   VRHFIN =N: s2p3                                                              
   LEXCH  = PE                                                                  
   EATOM  =   264.5486 eV,   19.4438 Ry                                         
                                                                                
   TITEL  = PAW_PBE N 08Apr2002                                                 
   LULTRA =        F    use ultrasoft PP ?                                      
   IUNSCR =        1    unscreen: 0-lin 1-nonlin 2-no                           
   RPACOR =    1.200    partial core radius                                     
   POMASS =   14.001; ZVAL   =    5.000    mass and valenz                      
   RCORE  =    1.500    outmost cutoff radius                                   
   RWIGS  =    1.400; RWIGS  =    0.741    wigner-seitz radius (au A)           
   ENMAX  =  400.000; ENMIN  =  300.000 eV                                      
   ICORE  =        2    local potential                                         
   LCOR   =        T    correct aug charges                                     
   LPAW   =        T    paw PP                                                  
   EAUG   =  627.112                                                            
   DEXC   =    0.000                                                            
   RMAX   =    1.529    core radius for proj-oper                               
   RAUG   =    1.300    factor for augmentation sphere                          
   RDEP   =    1.514    radius for radial grids                                 
   RDEPT  =    1.338    core radius for aug-charge                              
                                                                                
   Atomic configuration                                                         
    4 entries                                                                   
     n  l   j            E        occ.                                          
     1  0  0.50      -384.7179   2.0000                                         
     2  0  0.50       -18.5828   2.0000                                         
     2  1  0.50        -7.0898   3.0000                                         
     3  2  1.50        -6.8029   0.0000                                         
   Description                                                                  
     l       E           TYP  RCUT    TYP  RCUT                                 
     0    -18.5828119     23  1.200                                             
     0    -13.5018863     23  1.200                                             
     1     -7.0897853     23  1.500                                             
     1      9.5240782     23  1.500                                             
     2     -6.8029130      7  1.500                                             
  local pseudopotential read in
  partial core-charges read in
  partial kinetic energy density read in
  atomic valenz-charges read in
  non local Contribution for L=           0  read in
    real space projection operators read in
  non local Contribution for L=           0  read in
    real space projection operators read in
  non local Contribution for L=           1  read in
    real space projection operators read in
  non local Contribution for L=           1  read in
    real space projection operators read in
    PAW grid and wavefunctions read in
 
   number of l-projection  operators is LMAX  =           4
   number of lm-projection operators is LMMAX =           8
 
 POTCAR:    PAW_PBE Cu 22Jun2005                  
   VRHFIN =Cu: d10 p1                                                           
   LEXCH  = PE                                                                  
   EATOM  =  1390.9808 eV,  102.2342 Ry                                         
                                                                                
   TITEL  = PAW_PBE Cu 22Jun2005                                                
   LULTRA =        F    use ultrasoft PP ?                                      
   IUNSCR =        1    unscreen: 0-lin 1-nonlin 2-no                           
   RPACOR =    2.000    partial core radius                                     
   POMASS =   63.546; ZVAL   =   11.000    mass and valenz                      
   RCORE  =    2.300    outmost cutoff radius                                   
   RWIGS  =    2.200; RWIGS  =    1.164    wigner-seitz radius (au A)           
   ENMAX  =  295.446; ENMIN  =  221.585 eV                                      
   ICORE  =        3    local potential                                         
   LCOR   =        T    correct aug charges                                     
   LPAW   =        T    paw PP                                                  
   EAUG   =  586.980                                                            
   DEXC   =    0.000                                                            
   RMAX   =    2.344    core radius for proj-oper                               
   RAUG   =    1.300    factor for augmentation sphere                          
   RDEP   =    2.302    radius for radial grids                                 
   RDEPT  =    1.771    core radius for aug-charge                              
                                                                                
   Atomic configuration                                                         
    9 entries                                                                   
     n  l   j            E        occ.                                          
     1  0  0.50     -8850.2468   2.0000                                         
     2  0  0.50     -1062.3498   2.0000                                         
     2  1  1.50      -916.8226   6.0000                                         
     3  0  0.50      -114.6929   2.0000                                         
     3  1  1.50       -72.1325   6.0000                                         
     3  2  2.50        -5.0394  10.0000                                         
     4  0  0.50        -4.6097   1.0000                                         
     4  1  0.50        -4.0817   0.0000                                         
     4  3  2.50        -1.3606   0.0000                                         
   Description                                                                  
     l       E           TYP  RCUT    TYP  RCUT                                 
     2     -5.0393973     23  2.200                                             
     2     10.8846608     23  2.200                                             
     0     -4.6097109     23  2.200                                             
     0      8.2520465     23  2.200                                             
     1     -2.7211652     23  2.200                                             
     1     21.7055443     23  2.200                                             
     3      2.7211652     23  2.300                                             
  local pseudopotential read in
  partial core-charges read in
  partial kinetic energy density read in
  atomic valenz-charges read in
  non local Contribution for L=           2  read in
    real space projection operators read in
  non local Contribution for L=           2  read in
    real space projection operators read in
  non local Contribution for L=           0  read in
    real space projection operators read in
  non local Contribution for L=           0  read in
    real space projection operators read in
  non local Contribution for L=           1  read in
    real space projection operators read in
  non local Contribution for L=           1  read in
    real space projection operators read in
    PAW grid and wavefunctions read in
 
   number of l-projection  operators is LMAX  =           6
   number of lm-projection operators is LMMAX =          18
 
 POTCAR:    PAW_PBE Fe 06Sep2000                  
   VRHFIN =Fe:  d7 s1                                                           
   LEXCH  = PE                                                                  
   EATOM  =   594.3153 eV,   43.6809 Ry                                         
                                                                                
   TITEL  = PAW_PBE Fe 06Sep2000                                                
   LULTRA =        F    use ultrasoft PP ?                                      
   IUNSCR =        1    unscreen: 0-lin 1-nonlin 2-no                           
   RPACOR =    2.000    partial core radius                                     
   POMASS =   55.847; ZVAL   =    8.000    mass and valenz                      
   RCORE  =    2.300    outmost cutoff radius                                   
   RWIGS  =    2.460; RWIGS  =    1.302    wigner-seitz radius (au A)           
   ENMAX  =  267.882; ENMIN  =  200.911 eV                                      
   RCLOC  =    1.701    cutoff for local pot                                    
   LCOR   =        T    correct aug charges                                     
   LPAW   =        T    paw PP                                                  
   EAUG   =  511.368                                                            
   DEXC   =    0.000                                                            
   RMAX   =    2.356    core radius for proj-oper                               
   RAUG   =    1.300    factor for augmentation sphere                          
   RDEP   =    2.442    radius for radial grids                                 
   RDEPT  =    1.890    core radius for aug-charge                              
                                                                                
   Atomic configuration                                                         
    9 entries                                                                   
     n  l   j            E        occ.                                          
     1  0  0.50     -6993.8440   2.0000                                         
     2  0  0.50      -814.6047   2.0000                                         
     2  1  1.50      -693.3689   6.0000                                         
     3  0  0.50       -89.4732   2.0000                                         
     3  1  1.50       -55.6373   6.0000                                         
     3  2  2.50        -3.8151   7.0000                                         
     4  0  0.50        -4.2551   1.0000                                         
     4  1  1.50        -3.4015   0.0000                                         
     4  3  2.50        -1.3606   0.0000                                         
   Description                                                                  
     l       E           TYP  RCUT    TYP  RCUT                                 
     2     -3.8151135     23  2.300                                             
     2     -5.1756961     23  2.300                                             
     0     -4.2550963     23  2.300                                             
     0      7.2035603     23  2.300                                             
     1     -2.7211652     23  2.300                                             
     1     18.4316424     23  2.300                                             
  local pseudopotential read in
  partial core-charges read in
  partial kinetic energy density read in
  atomic valenz-charges read in
  non local Contribution for L=           2  read in
    real space projection operators read in
  non local Contribution for L=           2  read in
    real space projection operators read in
  non local Contribution for L=           0  read in
    real space projection operators read in
  non local Contribution for L=           0  read in
    real space projection operators read in
  non local Contribution for L=           1  read in
    real space projection operators read in
  non local Contribution for L=           1  read in
    real space projection operators read in
    PAW grid and wavefunctions read in
 
   number of l-projection  operators is LMAX  =           6
   number of lm-projection operators is LMMAX =          18
 

 ----------------------------------------------------------------------------- 
|                                                                             |
|  ADVICE TO THIS USER RUNNING 'VASP/VAMP'   (HEAR YOUR MASTER'S VOICE ...):  |
|                                                                             |
|      You have a (more or less) 'large supercell' and for larger cells       |
|      it might be more efficient to use real space projection opertators     |
|      So try LREAL= Auto  in the INCAR   file.                               |
|      Mind:          For very  accurate calculation you might also keep the  |
|      reciprocal projection scheme          (i.e. LREAL=.FALSE.)             |
|                                                                             |
 ----------------------------------------------------------------------------- 

  PAW_PBE C 08Apr2002                   :
 energy of atom  1       EATOM= -147.1560
 kinetic energy error for atom=    0.0076 (will be added to EATOM!!)
  PAW_PBE N 08Apr2002                   :
 energy of atom  2       EATOM= -264.5486
 kinetic energy error for atom=    0.0138 (will be added to EATOM!!)
  PAW_PBE Cu 22Jun2005                  :
 energy of atom  3       EATOM=-1390.9808
 kinetic energy error for atom=    0.0043 (will be added to EATOM!!)
  PAW_PBE Fe 06Sep2000                  :
 energy of atom  4       EATOM= -594.3153
 kinetic energy error for atom=    0.0026 (will be added to EATOM!!)
 
 
 POSCAR:  C  N Cu Fe                             
  positions in cartesian coordinates
  No initial velocities read in
 exchange correlation table for  LEXCH =        8
   RHO(1)=    0.500       N(1)  =     2000
   RHO(2)=  100.500       N(2)  =     4000

 VTST: version 3.2, (02/03/18)

 CHAIN: initializing optimizer
 
 OPT: Using VASP Conjugate-Gradient optimizer
 CHAIN: Read ICHAIN            0
 
 POSCAR:  C  N Cu Fe                             
  positions in cartesian coordinates
  No initial velocities read in
 


--------------------------------------------------------------------------------------------------------


 ion  position               nearest neighbor table
   1  0.222  0.000  0.492-   3 1.42  19 1.43   4 1.44
   2  0.057  0.101  0.486-   3 1.43  37 1.43   7 1.44
   3  0.111  1.000  0.488-   1 1.42   2 1.43  17 1.44
   4  0.277  0.101  0.492-  21 1.42   5 1.44   1 1.44
   5  0.224  0.203  0.495-   7 1.44   4 1.44   8 1.45
   6  0.056  0.301  0.491-  41 1.43   7 1.43  11 1.43
   7  0.112  0.201  0.490-   6 1.43   5 1.44   2 1.44
   8  0.280  0.304  0.504-   5 1.45  25 1.45   9 1.47
   9  0.220  0.405  0.507-  54 1.37  11 1.43   8 1.47
  10  0.052  0.501  0.497-  45 1.43  14 1.43  11 1.43
  11  0.109  0.401  0.497-   6 1.43   9 1.43  10 1.43
  12  0.217  0.600  0.514-  54 1.37  14 1.42  15 1.46
  13  0.052  0.700  0.495-  14 1.42  49 1.43  18 1.43
  14  0.107  0.601  0.501-  12 1.42  13 1.42  10 1.43
  15  0.274  0.702  0.518-  16 1.43  29 1.46  12 1.46
  16  0.220  0.800  0.502-  15 1.43  18 1.43  19 1.44
  17  0.055  0.900  0.488-  53 1.43  18 1.43   3 1.44
  18  0.109  0.800  0.494-  17 1.43  13 1.43  16 1.43
  19  0.277  0.900  0.498-   1 1.43  31 1.43  16 1.44
  20  0.555  0.999  0.489-  22 1.42  33 1.42  23 1.43
  21  0.388  0.099  0.490-   4 1.42  26 1.42  22 1.43
  22  0.444  1.000  0.491-  20 1.42  21 1.43  31 1.43
  23  0.611  0.097  0.484-  24 1.42  35 1.43  20 1.43
  24  0.556  0.196  0.488-  23 1.42  27 1.42  26 1.42
  25  0.394  0.298  0.506-  55 1.38  26 1.43   8 1.45
  26  0.445  0.198  0.493-  24 1.42  21 1.42  25 1.43
  27  0.614  0.294  0.492-  28 1.41  39 1.41  24 1.42
  28  0.560  0.389  0.511-  55 1.36  56 1.38  27 1.41
  29  0.382  0.713  0.539-  57 1.34  32 1.46  15 1.46
  30  0.556  0.803  0.512-  58 1.39  33 1.43  32 1.44
  31  0.388  0.900  0.500-  32 1.42  22 1.43  19 1.43
  32  0.444  0.804  0.516-  31 1.42  30 1.44  29 1.46
  33  0.610  0.900  0.495-  20 1.42  51 1.42  30 1.43
  34  0.889  0.999  0.483-  53 1.43  36 1.43  37 1.44
  35  0.722  0.098  0.482-  36 1.42  23 1.43  40 1.43
  36  0.778  0.999  0.484-  35 1.42  34 1.43  51 1.43
  37  0.945  0.099  0.483-  38 1.43   2 1.43  34 1.44
  38  0.890  0.199  0.483-  40 1.42  37 1.43  41 1.43
  39  0.724  0.297  0.488-  27 1.41  40 1.42  44 1.43
  40  0.779  0.198  0.483-  39 1.42  38 1.42  35 1.43
  41  0.944  0.300  0.487-   6 1.43  38 1.43  42 1.43
  42  0.888  0.399  0.491-  44 1.42  45 1.42  41 1.43
  43  0.718  0.494  0.507-  56 1.38  44 1.43  48 1.46
  44  0.777  0.398  0.494-  42 1.42  39 1.43  43 1.43
  45  0.941  0.500  0.495-  42 1.42  10 1.43  46 1.44
  46  0.883  0.599  0.498-  45 1.44  48 1.44  49 1.44
  47  0.719  0.703  0.507-  58 1.38  52 1.43  48 1.46
  48  0.771  0.598  0.506-  46 1.44  47 1.46  43 1.46
  49  0.941  0.699  0.494-  50 1.42  13 1.43  46 1.44
  50  0.887  0.799  0.490-  49 1.42  52 1.43  53 1.44
  51  0.721  0.900  0.490-  33 1.42  52 1.43  36 1.43
  52  0.776  0.800  0.494-  50 1.43  51 1.43  47 1.43
  53  0.943  0.899  0.486-  34 1.43  17 1.43  50 1.44
  54  0.266  0.502  0.521-   9 1.37  12 1.37  59 1.92
  55  0.455  0.386  0.521-  28 1.36  25 1.38  59 1.87
  56  0.614  0.484  0.523-  28 1.38  43 1.38  60 1.91
  57  0.427  0.646  0.583-  29 1.34  60 1.76  59 1.83
  58  0.614  0.710  0.524-  47 1.38  30 1.39  60 1.84
  59  0.398  0.505  0.565-  57 1.83  55 1.87  54 1.92  60 2.35
  60  0.556  0.600  0.574-  57 1.76  58 1.84  56 1.91  59 2.35
 
  LATTYP: Found a simple orthorhombic cell.
 ALAT       =    12.4000000000
 B/A-ratio  =     1.0330645161
 C/A-ratio  =     1.6129032258
  
  Lattice vectors:
  
 A1 = (   0.0000000000, -12.4000000000,   0.0000000000)
 A2 = ( -12.8100000000,   0.0000000000,   0.0000000000)
 A3 = (   0.0000000000,   0.0000000000, -20.0000000000)


Analysis of symmetry for initial positions (statically):
=====================================================================
 Subroutine PRICEL returns:
 Original cell was already a primitive cell.
 

 Routine SETGRP: Setting up the symmetry group for a 
 simple orthorhombic supercell.


 Subroutine GETGRP returns: Found  1 space group operations
 (whereof  1 operations were pure point group operations)
 out of a pool of  8 trial point group operations.


The static configuration has the point symmetry C_1 .


Analysis of symmetry for dynamics (positions and initial velocities):
=====================================================================
 Subroutine PRICEL returns:
 Original cell was already a primitive cell.
 

 Routine SETGRP: Setting up the symmetry group for a 
 simple orthorhombic supercell.


 Subroutine GETGRP returns: Found  1 space group operations
 (whereof  1 operations were pure point group operations)
 out of a pool of  8 trial point group operations.


The dynamic configuration has the point symmetry C_1 .


Analysis of structural, dynamic, and magnetic symmetry:
=====================================================================
 Subroutine PRICEL returns:
 Original cell was already a primitive cell.
 

 Routine SETGRP: Setting up the symmetry group for a 
 simple orthorhombic supercell.


 Subroutine GETGRP returns: Found  1 space group operations
 (whereof  1 operations were pure point group operations)
 out of a pool of  8 trial point group operations.


The magnetic configuration has the point symmetry C_1 .


 Subroutine INISYM returns: Found  1 space group operations
 (whereof  1 operations are pure point group operations),
 and found     1 'primitive' translations

 
 
 KPOINTS: KPOINTS created by Atomic Simulation Env

Automatic generation of k-mesh.
Space group operators:
 irot       det(A)        alpha          n_x          n_y          n_z        tau_x        tau_y        tau_z
    1     1.000000     0.000000     1.000000     0.000000     0.000000     0.000000     0.000000     0.000000
 
 Subroutine IBZKPT returns following result:
 ===========================================
 
 Found      2 irreducible k-points:
 
 Following reciprocal coordinates:
            Coordinates               Weight
  0.250000  0.250000  0.000000      2.000000
 -0.250000  0.250000  0.000000      2.000000
 
 Following cartesian coordinates:
            Coordinates               Weight
  0.019516  0.020161  0.000000      2.000000
 -0.019516  0.020161  0.000000      2.000000
 
 
 Subroutine IBZKPT_HF returns following result:
 ==============================================
 
 Found      4 k-points in 1st BZ
 the following      4 k-points will be used (e.g. in the exchange kernel)
 Following reciprocal coordinates:   # in IRBZ
  0.250000  0.250000  0.000000    0.25000000   1 t-inv F
 -0.250000  0.250000  0.000000    0.25000000   2 t-inv F
 -0.250000 -0.250000  0.000000    0.25000000   1 t-inv T
  0.250000 -0.250000  0.000000    0.25000000   2 t-inv T


--------------------------------------------------------------------------------------------------------




 Dimension of arrays:
   k-points           NKPTS =      2   k-points in BZ     NKDIM =      4   number of bands    NBANDS=    161
   number of dos      NEDOS =    301   number of ions     NIONS =     60
   non local maximal  LDIM  =      6   non local SUM 2l+1 LMDIM =     18
   total plane-waves  NPLWV = ******
   max r-space proj   IRMAX =      1   max aug-charges    IRDMAX=  14730
   dimension x,y,z NGX =    96 NGY =   90 NGZ =  150
   dimension x,y,z NGXF=   192 NGYF=  180 NGZF=  300
   support grid    NGXF=   192 NGYF=  180 NGZF=  300
   ions per type =              53   5   1   1
   NGX,Y,Z   is equivalent  to a cutoff of  12.46, 12.07, 12.47 a.u.
   NGXF,Y,Z  is equivalent  to a cutoff of  24.92, 24.13, 24.94 a.u.

 SYSTEM =  unknown system                          
 POSCAR =   C  N Cu Fe                             

 Startparameter for this run:
   NWRITE =      2    write-flag & timer
   PREC   = accura    normal or accurate (medium, high low for compatibility)
   ISTART =      1    job   : 0-new  1-cont  2-samecut
   ICHARG =      0    charge: 1-file 2-atom 10-const
   ISPIN  =      2    spin polarized calculation?
   LNONCOLLINEAR =      F non collinear calculations
   LSORBIT =      F    spin-orbit coupling
   INIWAV =      1    electr: 0-lowe 1-rand  2-diag
   LASPH  =      T    aspherical Exc in radial PAW
   METAGGA=      F    non-selfconsistent MetaGGA calc.

 Electronic Relaxation 1
   ENCUT  =  500.0 eV  36.75 Ry    6.06 a.u.  23.36 22.61 36.46*2*pi/ulx,y,z
   ENINI  =  500.0     initial cutoff
   ENAUG  =  644.9 eV  augmentation charge cutoff
   NELM   =    250;   NELMIN=  2; NELMDL=  0     # of ELM steps 
   EDIFF  = 0.1E-03   stopping-criterion for ELM
   LREAL  =      F    real-space projection
   NLSPLINE    = F    spline interpolate recip. space projectors
   LCOMPAT=      F    compatible to vasp.4.4
   GGA_COMPAT  = T    GGA compatible to vasp.4.4-vasp.4.6
   LMAXPAW     = -100 max onsite density
   LMAXMIX     =    2 max onsite mixed and CHGCAR
   VOSKOWN=      0    Vosko Wilk Nusair interpolation
   ROPT   =    0.00000   0.00000   0.00000   0.00000
 Ionic relaxation
   EDIFFG = -.3E-01   stopping-criterion for IOM
   NSW    =      0    number of steps for IOM
   NBLOCK =      1;   KBLOCK =      1    inner block; outer block 
   IBRION =     -1    ionic relax: 0-MD 1-quasi-New 2-CG
   NFREE  =      1    steps in history (QN), initial steepest desc. (CG)
   ISIF   =      2    stress and relaxation
   IWAVPR =     10    prediction:  0-non 1-charg 2-wave 3-comb
   ISYM   =      3    0-nonsym 1-usesym 2-fastsym
   LCORR  =      T    Harris-Foulkes like correction to forces

   POTIM  = 0.5000    time-step for ionic-motion
   TEIN   =    0.0    initial temperature
   TEBEG  =    0.0;   TEEND  =   0.0 temperature during run
   SMASS  =  -3.00    Nose mass-parameter (am)
   estimated Nose-frequenzy (Omega)   =  0.10E-29 period in steps =****** mass=  -0.375E-26a.u.
   SCALEE = 1.0000    scale energy and forces
   NPACO  =    256;   APACO  = 16.0  distance and # of slots for P.C.
   PSTRESS=    0.0 pullay stress

  Mass of Ions in am
   POMASS =  12.01 14.00 63.55 55.85
  Ionic Valenz
   ZVAL   =   4.00  5.00 11.00  8.00
  Atomic Wigner-Seitz radii
   RWIGS  =  -1.00 -1.00 -1.00 -1.00
  virtual crystal weights 
   VCA    =   1.00  1.00  1.00  1.00
   NELECT =     256.0000    total number of electrons
   NUPDOWN=      -1.0000    fix difference up-down

 DOS related values:
   EMIN   =  10.00;   EMAX   =-10.00  energy-range for DOS
   EFERMI =   0.00
   ISMEAR =     0;   SIGMA  =   0.10  broadening in eV -4-tet -1-fermi 0-gaus

 Electronic relaxation 2 (details)
   IALGO  =     53    algorithm
   LDIAG  =      T    sub-space diagonalisation (order eigenvalues)
   LSUBROT=      F    optimize rotation matrix (better conditioning)
   TURBO    =      0    0=normal 1=particle mesh
   IRESTART =      0    0=no restart 2=restart with 2 vectors
   NREBOOT  =      0    no. of reboots
   NMIN     =      0    reboot dimension
   EREF     =   0.00    reference energy to select bands
   IMIX   =      4    mixing-type and parameters
     AMIX     =   0.40;   BMIX     =  1.00
     AMIX_MAG =   1.60;   BMIX_MAG =  1.00
     AMIN     =   0.10
     WC   =   100.;   INIMIX=   1;  MIXPRE=   1;  MAXMIX= -45

 Intra band minimization:
   WEIMIN = 0.0000     energy-eigenvalue tresh-hold
   EBREAK =  0.16E-06  absolut break condition
   DEPER  =   0.30     relativ break condition  

   TIME   =   0.20     timestep for ELM

  volume/ion in A,a.u.               =      52.95       357.31
  Fermi-wavevector in a.u.,A,eV,Ry     =   0.707111  1.336247  6.803003  0.500007
  Thomas-Fermi vector in A             =   1.793072
 
 Write flags
   LWAVE        =      T    write WAVECAR
   LDOWNSAMPLE  =      F    k-point downsampling of WAVECAR
   LCHARG       =      T    write CHGCAR
   LVTOT        =      F    write LOCPOT, total local potential
   LVHAR        =      T    write LOCPOT, Hartree potential only
   LELF         =      F    write electronic localiz. function (ELF)
   LORBIT       =     11    0 simple, 1 ext, 2 COOP (PROOUT), +10 PAW based schemes


 Dipole corrections
   LMONO  =      F    monopole corrections only (constant potential shift)
   LDIPOL =      T    correct potential (dipole corrections)
   IDIPOL =      3    1-x, 2-y, 3-z, 4-all directions 
   EPSILON=  1.0000000 bulk dielectric constant

 Exchange correlation treatment:
   GGA     =    PE    GGA type
   LEXCH   =     8    internal setting for exchange type
   VOSKOWN=      0    Vosko Wilk Nusair interpolation
   EXXOEP  =     0    0=HF, 1=EXX-LHF (local Hartree Fock) 2=EXX OEP
   LHFCALC =     T    Hartree Fock is set to
   LSYMGRAD=     F    symmetrize gradient (conserves proper symmetry)
   PRECFOCK=normal    Normal, Fast or Accurate (Low or Medium for compatibility)
   LRHFCALC=     F    long range Hartree Fock
   LRSCOR  =     F    long range correlation only (use DFT for short range part)
   LTHOMAS =     F    Thomas Fermi screening in HF
   LMODELHF=     F    short range full HF, long range fraction AEXX
   ENCUT4O =  -1.0   cutoff for four orbital integrals eV
   LMAXFOCK=     4    L truncation for augmentation on plane wave grid
   LMAXFOCKAE=  -1    L truncation for all-electron charge restoration on plane wave grid
   NMAXFOCKAE=   1    number of basis functions for all-electron charge restoration
   LFOCKAEDFT=     F  apply the AE augmentation even for DFT
   NKREDX  =     1    reduce k-point grid by
   NKREDY  =     1    reduce k-point grid by
   NKREDZ  =     1    reduce k-point grid by
   SHIFTRED=     F    shift reduced grid of Gamma
   HFKIDENT=     F    idential grid for each k-point
   ODDONLY =     F    use only odd q-grid points
   EVENONLY=     F    use only even q-grid points
   HFALPHA =   -1.0000 decay constant for conv. correction
   MCALPHA =    0.0000 extent of test-charge in conv. correction in multipole expansion
   AEXX    =    0.2500 exact exchange contribution
   HFSCREEN=    0.2000 screening length (either q_TF or 0.3 A-1)
   HFSCREENC=   0.2000 screening length for correlation (either q_TF or 0.3 A-1)
   HFRCUT  =    0.0000 spherical cutoff for potential kernel
   ALDAX   =    0.7500 LDA exchange part
   AGGAX   =    0.7500 GGA exchange part
   ALDAC   =    1.0000 LDA correlation
   AGGAC   =    1.0000 GGA correlation
   ENCUTFOCK=  -1.0 apply spherical cutoff to Coloumb kernel
   NBANDSGWLOW=     1    first orbital included in HF term
   NBLOCK_FOCK=    64    blocking factor in FOCK_ACC
 Linear response parameters
   LEPSILON=     F    determine dielectric tensor
   LRPA    =     F    only Hartree local field effects (RPA)
   LNABLA  =     F    use nabla operator in PAW spheres
   LVEL    =     F    velocity operator in full k-point grid
   LINTERFAST=   F  fast interpolation
   KINTER  =     0    interpolate to denser k-point grid
   CSHIFT  =0.1000    complex shift for real part using Kramers Kronig
   OMEGAMAX=  -1.0    maximum frequency
   DEG_THRESHOLD= 0.2000000E-02 threshold for treating states as degnerate
   RTIME   =   -0.100 relaxation time in fs
  (WPLASMAI=    0.000 imaginary part of plasma frequency in eV, 0.658/RTIME)
   DFIELD  = 0.0000000 0.0000000 0.0000000 field for delta impulse in time
 
 Orbital magnetization related:
   ORBITALMAG=     F  switch on orbital magnetization
   LCHIMAG   =     F  perturbation theory with respect to B field
   DQ        =  0.001000  dq finite difference perturbation B field
   LLRAUG    =     F  two centre corrections for induced B field



--------------------------------------------------------------------------------------------------------


 Static calculation
 charge density and potential will be updated during run
 spin polarized calculation
 Conjugate gradient for all bands (Freysoldt, et al. PRB 79, 241103 (2009))
 perform sub-space diagonalisation
    before iterative eigenvector-optimisation
 modified Broyden-mixing scheme, WC =      100.0
 initial mixing is a Kerker type mixing with AMIX =  0.4000 and BMIX =      1.0000
 Hartree-type preconditioning will be used
 using additional bands           33
 reciprocal scheme for non local part
 use partial core corrections
 no Harris-corrections to forces 
 use gradient corrections 
 use of overlap-Matrix (Vanderbilt PP)
 Gauss-broadening in eV      SIGMA  =   0.10


--------------------------------------------------------------------------------------------------------


  energy-cutoff  :      500.00
  volume of cell :     3176.88
      direct lattice vectors                 reciprocal lattice vectors
    12.810000000  0.000000000  0.000000000     0.078064012  0.000000000  0.000000000
     0.000000000 12.400000000  0.000000000     0.000000000  0.080645161  0.000000000
     0.000000000  0.000000000 20.000000000     0.000000000  0.000000000  0.050000000

  length of vectors
    12.810000000 12.400000000 20.000000000     0.078064012  0.080645161  0.050000000


 
 old parameters found on file WAVECAR:
  energy-cutoff  :      500.00
  volume of cell :     3176.88
      direct lattice vectors                 reciprocal lattice vectors
    12.810000000  0.000000000  0.000000000     0.078064012  0.000000000  0.000000000
     0.000000000 12.400000000  0.000000000     0.000000000  0.080645161  0.000000000
     0.000000000  0.000000000 20.000000000     0.000000000  0.000000000  0.050000000

  length of vectors

 
 k-points in units of 2pi/SCALE and weight: KPOINTS created by Atomic Simulation Env
   0.01951600  0.02016129  0.00000000       0.500
  -0.01951600  0.02016129  0.00000000       0.500
 
 k-points in reciprocal lattice and weights: KPOINTS created by Atomic Simulation Env
   0.25000000  0.25000000  0.00000000       0.500
  -0.25000000  0.25000000  0.00000000       0.500
 
 position of ions in fractional coordinates (direct lattice) 
   0.22198032  0.00034715  0.49164379
   0.05687327  0.10056807  0.48627112
   0.11090993  0.99996651  0.48814075
   0.27742092  0.10132770  0.49215065
   0.22406744  0.20336295  0.49501987
   0.05550604  0.30055554  0.49058862
   0.11227167  0.20135585  0.49032884
   0.28043723  0.30394374  0.50410034
   0.21973100  0.40459341  0.50732487
   0.05243957  0.50076030  0.49709019
   0.10911171  0.40112981  0.49711389
   0.21657487  0.59967407  0.51411155
   0.05208971  0.70018389  0.49531640
   0.10735124  0.60092467  0.50094168
   0.27366341  0.70181898  0.51827434
   0.22022132  0.79956095  0.50170552
   0.05486165  0.89969373  0.48792430
   0.10907655  0.79953050  0.49363473
   0.27657022  0.90021004  0.49763527
   0.55459307  0.99875468  0.48869062
   0.38819331  0.09944248  0.49034851
   0.44361600  0.99957269  0.49097552
   0.61122374  0.09746298  0.48411373
   0.55607468  0.19642560  0.48817360
   0.39383902  0.29822535  0.50581358
   0.44513833  0.19802645  0.49276501
   0.61367038  0.29411990  0.49234189
   0.56034032  0.38864177  0.51106321
   0.38208598  0.71337154  0.53928558
   0.55634403  0.80304187  0.51206175
   0.38830470  0.90040579  0.49973761
   0.44379170  0.80427704  0.51571541
   0.61035410  0.89994362  0.49503244
   0.88913436  0.99931538  0.48313173
   0.72246858  0.09832709  0.48224064
   0.77770572  0.99873786  0.48370521
   0.94542040  0.09947658  0.48303263
   0.88987919  0.19912566  0.48320517
   0.72372643  0.29674334  0.48834830
   0.77881861  0.19785926  0.48263623
   0.94430595  0.29983551  0.48698792
   0.88788467  0.39946067  0.49082766
   0.71843548  0.49374082  0.50717052
   0.77688135  0.39763208  0.49385719
   0.94105300  0.50010663  0.49465115
   0.88301772  0.59927148  0.49764597
   0.71853253  0.70275876  0.50747703
   0.77121416  0.59849822  0.50562831
   0.94061364  0.69909798  0.49375103
   0.88689218  0.79921059  0.49000053
   0.72132466  0.89984239  0.49039029
   0.77572018  0.79960495  0.49425828
   0.94348800  0.89898954  0.48587106
   0.26552559  0.50176612  0.52077577
   0.45522995  0.38580533  0.52136469
   0.61361647  0.48380392  0.52282340
   0.42700482  0.64600958  0.58325906
   0.61421405  0.71021861  0.52447828
   0.39805997  0.50479193  0.56515295
   0.55606494  0.60000008  0.57351384
 
 position of ions in cartesian coordinates  (Angst):
   2.84356793  0.00430462  9.83287579
   0.72854661  1.24704407  9.72542232
   1.42075622 12.39958469  9.76281498
   3.55376197  1.25646349  9.84301305
   2.87030387  2.52170059  9.90039745
   0.71103237  3.72688866  9.81177250
   1.43820007  2.49681258  9.80657671
   3.59240094  3.76890232 10.08200675
   2.81475406  5.01695823 10.14649734
   0.67175087  6.20942778  9.94180389
   1.39772102  4.97400959  9.94227780
   2.77432414  7.43595850 10.28223105
   0.66726919  8.68228029  9.90632797
   1.37516936  7.45146595 10.01883356
   3.50562834  8.70255530 10.36548681
   2.82103514  9.91455577 10.03411050
   0.70277774 11.15620225  9.75848596
   1.39727058  9.91417819  9.87269454
   3.54286452 11.16260446  9.95270542
   7.10433721 12.38455799  9.77381248
   4.97275634  1.23308676  9.80697023
   5.68272093 12.39470131  9.81951033
   7.82977606  1.20854097  9.68227461
   7.12331660  2.43567743  9.76347200
   5.04507789  3.69799437 10.11627164
   5.70222206  2.45552797  9.85530014
   7.86111752  3.64708671  9.84683785
   7.17795950  4.81915791 10.22126414
   4.89452144  8.84580714 10.78571159
   7.12676704  9.95771918 10.24123494
   4.97418327 11.16503179  9.99475217
   5.68497169  9.97303531 10.31430811
   7.81863602 11.15930092  9.90064884
  11.38981118 12.39151073  9.66263455
   9.25482248  1.21925596  9.64481278
   9.96241021 12.38434942  9.67410421
  12.11083526  1.23350963  9.66065253
  11.39935236  2.46915824  9.66410345
   9.27093554  3.67961736  9.76696594
   9.97666640  2.45345485  9.65272466
  12.09655922  3.71796027  9.73975849
  11.37380260  4.95331234  9.81655313
   9.20315845  6.12238618 10.14341040
   9.95185008  4.93063779  9.87714388
  12.05488891  6.20132226  9.89302293
  11.31145694  7.43096637  9.95291937
   9.20440165  8.71420867 10.14954053
   9.87925333  7.42137798 10.11256611
  12.04926073  8.66881501  9.87502064
  11.36108880  9.91021130  9.80001056
   9.24016889 11.15804566  9.80780574
   9.93697546  9.91510133  9.88516551
  12.08608123 11.14747031  9.71742113
   3.40138287  6.22189994 10.41551540
   5.83149568  4.78398614 10.42729387
   7.86042700  5.99916865 10.45646805
   5.46993169  8.01051881 11.66518117
   7.86808199  8.80671073 10.48956557
   5.09914820  6.25941994 11.30305910
   7.12319191  7.44000105 11.47027684
 


--------------------------------------------------------------------------------------------------------


 k-point  1 :   0.2500 0.2500 0.0000  plane waves:   80679
 k-point  2 :  -0.2500 0.2500 0.0000  plane waves:   80679

 maximum and minimum number of plane-waves per node :      2047     1989

 maximum number of plane-waves:     80679
 maximum index in each direction: 
   IXMAX=   23   IYMAX=   22   IZMAX=   36
   IXMIN=  -23   IYMIN=  -22   IZMIN=  -36


 parallel 3D FFT for wavefunctions:
    minimum data exchange during FFTs selected (reduces bandwidth)
 parallel 3D FFT for charge:
    minimum data exchange during FFTs selected (reduces bandwidth)


 FFT grid for exact exchange (Hartree Fock) 
  NGX = 72; NGY = 70; NGZ =112

 
 Radii for the augmentation spheres in the non-local exchange
 for species   1 augmentation radius   0.874 (default was   0.699)
       energy cutoff for augmentation   2000.0
 for species   2 augmentation radius   0.886 (default was   0.709)
       energy cutoff for augmentation   2000.0
 for species   3 augmentation radius   1.179 (default was   0.943)
       energy cutoff for augmentation   2000.0
 for species   4 augmentation radius   1.263 (default was   1.010)
       energy cutoff for augmentation   2000.0

 real space projection operators:
  total allocation   :       2540.67 KBytes
  max/ min on nodes  :         91.97         33.38

 Maximum index for augmentation-charges in exchange          162
  SETUP_FOCK is finished

 total amount of memory used by VASP MPI-rank0   140921. kBytes
=======================================================================

   base      :      30000. kBytes
   nonl-proj :       4340. kBytes
   fftplans  :      11188. kBytes
   grid      :      29312. kBytes
   one-center:         62. kBytes
   HF        :         23. kBytes
   nonlr-proj:       1670. kBytes
   wavefun   :      64326. kBytes
 
     INWAV:  cpu time    5.3435: real time    5.3585
 Broyden mixing: mesh for mixing (old mesh)
   NGX = 47   NGY = 45   NGZ = 73
  (NGX  =192   NGY  =180   NGZ  =300)
  gives a total of 154395 points

 charge density for first step will be calculated from the start-wavefunctions


--------------------------------------------------------------------------------------------------------


 Maximum index for augmentation-charges          573 (set IRDMAX)


--------------------------------------------------------------------------------------------------------


 initial charge from wavefunction
 First call to EWALD:  gamma=   0.121
 Maximum number of real-space cells 3x 3x 2
 Maximum number of reciprocal cells 2x 2x 4

    FEWALD:  cpu time    0.0026: real time    0.0026


--------------------------------------- Iteration      1(   1)  ---------------------------------------


    POTLOK:  cpu time    1.0324: real time    1.0371
    SETDIJ:  cpu time    1.2316: real time    1.2351
    TRIAL :  cpu time  228.9856: real time  229.6691
    CORREC:  cpu time    0.0018: real time    0.0018
    CHARGE:  cpu time    1.2418: real time    1.2451
    --------------------------------------------
      LOOP:  cpu time  232.5157: real time  233.2129

 eigenvalue-minimisations  :     0
 total energy-change (2. order) :-0.6212672E+03  (-0.5187208E+00)
 number of electron     255.9999995 magnetization       0.0002010
 augmentation part       17.3178436 magnetization       0.0350716

 DIPCOR: dipole corrections for dipol
 direction  3 min pos     1,
 dipolmoment           0.000000      0.000000      0.033268 electrons x Angstroem
 Tr[quadrupol]     -7185.827753

 energy correction for charged system         0.000000 eV
 dipol+quadrupol energy correction           -0.000032 eV
 added-field ion interaction         -0.049051 eV  (added to PSCEN)


 Free energy of the ion-electron system (eV)
  ---------------------------------------------------
  alpha Z        PSCENC =       108.66167739
  Ewald energy   TEWEN  =     42036.47406070
  -Hartree energ DENC   =    -51559.35642569
  -exchange      EXHF   =       586.78377393
  -V(xc)+E(xc)   XCENC  =       673.50228269
  PAW double counting   =     28007.45264299   -28146.72629946
  entropy T*S    EENTRO =        -0.00008261
  eigenvalues    EBANDS =     -3320.78721447
  atomic energy  EATOM  =     10992.72884013
  ---------------------------------------------------
  free energy    TOTEN  =      -621.26719176 eV

  energy without entropy =     -621.26710915  energy(sigma->0) =     -621.26715046
  exchange ACFDT corr.  =        -0.00078284  see jH, gK, PRB 81, 115126


--------------------------------------------------------------------------------------------------------




--------------------------------------- Iteration      1(   2)  ---------------------------------------


    POTLOK:  cpu time    1.0459: real time    1.0486
    SETDIJ:  cpu time    1.2466: real time    1.2497
    TRIAL :  cpu time  227.2698: real time  227.9261
    CORREC:  cpu time    0.0011: real time    0.0011
    CHARGE:  cpu time    1.2275: real time    1.2306
    --------------------------------------------
      LOOP:  cpu time  230.7936: real time  231.4614

 eigenvalue-minimisations  :     0
 total energy-change (2. order) :-0.3920118E+00  (-0.4344506E+00)
 number of electron     255.9999995 magnetization       0.0000174
 augmentation part       17.2735124 magnetization       0.0351745

 DIPCOR: dipole corrections for dipol
 direction  3 min pos     1,
 dipolmoment           0.000000      0.000000      0.076488 electrons x Angstroem
 Tr[quadrupol]     -7185.665620

 energy correction for charged system         0.000000 eV
 dipol+quadrupol energy correction           -0.000167 eV
 added-field ion interaction         -0.112774 eV  (added to PSCEN)


 Free energy of the ion-electron system (eV)
  ---------------------------------------------------
  alpha Z        PSCENC =       108.59781800
  Ewald energy   TEWEN  =     42036.47406070
  -Hartree energ DENC   =    -51555.40840500
  -exchange      EXHF   =       586.85015124
  -V(xc)+E(xc)   XCENC  =       673.32922704
  PAW double counting   =     28148.57935794   -28289.68920182
  entropy T*S    EENTRO =        -0.00000821
  eigenvalues    EBANDS =     -3323.12096917
  atomic energy  EATOM  =     10992.72884013
  ---------------------------------------------------
  free energy    TOTEN  =      -621.65920355 eV

  energy without entropy =     -621.65919534  energy(sigma->0) =     -621.65919944
  exchange ACFDT corr.  =        -0.00013908  see jH, gK, PRB 81, 115126


--------------------------------------------------------------------------------------------------------




--------------------------------------- Iteration      1(   3)  ---------------------------------------


    POTLOK:  cpu time    1.0557: real time    1.0584
    SETDIJ:  cpu time    1.2276: real time    1.2315
    TRIAL :  cpu time  227.2444: real time  227.8847
    CORREC:  cpu time    0.0015: real time    0.0015
    CHARGE:  cpu time    1.2375: real time    1.2409
    --------------------------------------------
      LOOP:  cpu time  230.7689: real time  231.4237

 eigenvalue-minimisations  :     0
 total energy-change (2. order) :-0.3309825E+00  (-0.2396223E+00)
 number of electron     255.9999995 magnetization       0.0000016
 augmentation part       17.2479993 magnetization       0.0347243

 DIPCOR: dipole corrections for dipol
 direction  3 min pos     1,
 dipolmoment           0.000000      0.000000      0.082973 electrons x Angstroem
 Tr[quadrupol]     -7185.487986

 energy correction for charged system         0.000000 eV
 dipol+quadrupol energy correction           -0.000197 eV
 added-field ion interaction         -0.122336 eV  (added to PSCEN)


 Free energy of the ion-electron system (eV)
  ---------------------------------------------------
  alpha Z        PSCENC =       108.58822643
  Ewald energy   TEWEN  =     42036.47406070
  -Hartree energ DENC   =    -51538.86680081
  -exchange      EXHF   =       586.75534657
  -V(xc)+E(xc)   XCENC  =       672.84599588
  PAW double counting   =     28320.30887992   -28459.95869170
  entropy T*S    EENTRO =        -0.00000077
  eigenvalues    EBANDS =     -3340.86603493
  atomic energy  EATOM  =     10992.72884013
  ---------------------------------------------------
  free energy    TOTEN  =      -621.99018601 eV

  energy without entropy =     -621.99018524  energy(sigma->0) =     -621.99018563
  exchange ACFDT corr.  =        -0.00001098  see jH, gK, PRB 81, 115126


--------------------------------------------------------------------------------------------------------




--------------------------------------- Iteration      1(   4)  ---------------------------------------


    POTLOK:  cpu time    1.0950: real time    1.0977
    SETDIJ:  cpu time    1.2220: real time    1.2251
    TRIAL :  cpu time  227.3414: real time  227.9879
    CORREC:  cpu time    0.0013: real time    0.0013
    CHARGE:  cpu time    1.2296: real time    1.2329
    --------------------------------------------
      LOOP:  cpu time  230.8923: real time  231.5520

 eigenvalue-minimisations  :     0
 total energy-change (2. order) :-0.1798460E+00  (-0.1466391E+00)
 number of electron     255.9999995 magnetization       0.0000003
 augmentation part       17.2771339 magnetization       0.0335049

 DIPCOR: dipole corrections for dipol
 direction  3 min pos     1,
 dipolmoment           0.000000      0.000000      0.066201 electrons x Angstroem
 Tr[quadrupol]     -7185.434458

 energy correction for charged system         0.000000 eV
 dipol+quadrupol energy correction           -0.000125 eV
 added-field ion interaction         -0.097607 eV  (added to PSCEN)


 Free energy of the ion-electron system (eV)
  ---------------------------------------------------
  alpha Z        PSCENC =       108.61302741
  Ewald energy   TEWEN  =     42036.47406070
  -Hartree energ DENC   =    -51530.32128954
  -exchange      EXHF   =       586.84934818
  -V(xc)+E(xc)   XCENC  =       672.59960952
  PAW double counting   =     28468.38138001   -28607.03546012
  entropy T*S    EENTRO =        -0.00000007
  eigenvalues    EBANDS =     -3350.45954755
  atomic energy  EATOM  =     10992.72884013
  ---------------------------------------------------
  free energy    TOTEN  =      -622.17003203 eV

  energy without entropy =     -622.17003196  energy(sigma->0) =     -622.17003200
  exchange ACFDT corr.  =        -0.00000084  see jH, gK, PRB 81, 115126


--------------------------------------------------------------------------------------------------------




--------------------------------------- Iteration      1(   5)  ---------------------------------------


    POTLOK:  cpu time    1.0572: real time    1.0599
    SETDIJ:  cpu time    1.2323: real time    1.2354
    TRIAL :  cpu time  226.4414: real time  227.0794
    CORREC:  cpu time    0.0015: real time    0.0015
    CHARGE:  cpu time    1.2362: real time    1.2395
    --------------------------------------------
      LOOP:  cpu time  229.9713: real time  230.6226

 eigenvalue-minimisations  :     0
 total energy-change (2. order) :-0.1126255E+00  (-0.8501856E-01)
 number of electron     255.9999995 magnetization       0.0000002
 augmentation part       17.2887814 magnetization       0.0319731

 DIPCOR: dipole corrections for dipol
 direction  3 min pos     1,
 dipolmoment           0.000000      0.000000      0.048233 electrons x Angstroem
 Tr[quadrupol]     -7185.501449

 energy correction for charged system         0.000000 eV
 dipol+quadrupol energy correction           -0.000067 eV
 added-field ion interaction         -0.071116 eV  (added to PSCEN)


 Free energy of the ion-electron system (eV)
  ---------------------------------------------------
  alpha Z        PSCENC =       108.63957715
  Ewald energy   TEWEN  =     42036.47406070
  -Hartree energ DENC   =    -51534.66810389
  -exchange      EXHF   =       587.18396932
  -V(xc)+E(xc)   XCENC  =       672.70872379
  PAW double counting   =     28577.22957520   -28716.71695212
  entropy T*S    EENTRO =        -0.00000001
  eigenvalues    EBANDS =     -3345.86234778
  atomic energy  EATOM  =     10992.72884013
  ---------------------------------------------------
  free energy    TOTEN  =      -622.28265757 eV

  energy without entropy =     -622.28265756  energy(sigma->0) =     -622.28265757
  exchange ACFDT corr.  =        -0.00000007  see jH, gK, PRB 81, 115126


--------------------------------------------------------------------------------------------------------




--------------------------------------- Iteration      1(   6)  ---------------------------------------


    POTLOK:  cpu time    1.0538: real time    1.0567
    SETDIJ:  cpu time    1.2175: real time    1.2206
    TRIAL :  cpu time  226.7316: real time  227.3701
    CORREC:  cpu time    0.0012: real time    0.0012
    CHARGE:  cpu time    1.2364: real time    1.2396
    --------------------------------------------
      LOOP:  cpu time  230.2430: real time  230.8950

 eigenvalue-minimisations  :     0
 total energy-change (2. order) :-0.6999936E-01  (-0.5707657E-01)
 number of electron     255.9999995 magnetization       0.0000002
 augmentation part       17.2844696 magnetization       0.0303798

 DIPCOR: dipole corrections for dipol
 direction  3 min pos     1,
 dipolmoment           0.000000      0.000000      0.037029 electrons x Angstroem
 Tr[quadrupol]     -7185.588786

 energy correction for charged system         0.000000 eV
 dipol+quadrupol energy correction           -0.000039 eV
 added-field ion interaction         -0.054595 eV  (added to PSCEN)


 Free energy of the ion-electron system (eV)
  ---------------------------------------------------
  alpha Z        PSCENC =       108.65612511
  Ewald energy   TEWEN  =     42036.47406070
  -Hartree energ DENC   =    -51539.26667341
  -exchange      EXHF   =       587.48253636
  -V(xc)+E(xc)   XCENC  =       672.83307946
  PAW double counting   =     28646.31035141   -28785.89355222
  entropy T*S    EENTRO =        -0.00000000
  eigenvalues    EBANDS =     -3341.67742447
  atomic energy  EATOM  =     10992.72884013
  ---------------------------------------------------
  free energy    TOTEN  =      -622.35265693 eV

  energy without entropy =     -622.35265693  energy(sigma->0) =     -622.35265693
  exchange ACFDT corr.  =        -0.00000001  see jH, gK, PRB 81, 115126


--------------------------------------------------------------------------------------------------------




--------------------------------------- Iteration      1(   7)  ---------------------------------------


    POTLOK:  cpu time    1.0462: real time    1.0563
    SETDIJ:  cpu time    1.2358: real time    1.2390
    TRIAL :  cpu time  226.6824: real time  227.3248
    CORREC:  cpu time    0.0009: real time    0.0009
    CHARGE:  cpu time    1.2329: real time    1.2362
    --------------------------------------------
      LOOP:  cpu time  230.2030: real time  230.8666

 eigenvalue-minimisations  :     0
 total energy-change (2. order) :-0.4656291E-01  (-0.3779571E-01)
 number of electron     255.9999995 magnetization       0.0000002
 augmentation part       17.2948401 magnetization       0.0286971

 DIPCOR: dipole corrections for dipol
 direction  3 min pos     1,
 dipolmoment           0.000000      0.000000      0.031933 electrons x Angstroem
 Tr[quadrupol]     -7185.655875

 energy correction for charged system         0.000000 eV
 dipol+quadrupol energy correction           -0.000029 eV
 added-field ion interaction         -0.047082 eV  (added to PSCEN)


 Free energy of the ion-electron system (eV)
  ---------------------------------------------------
  alpha Z        PSCENC =       108.66364878
  Ewald energy   TEWEN  =     42036.47406070
  -Hartree energ DENC   =    -51541.98623347
  -exchange      EXHF   =       587.69610677
  -V(xc)+E(xc)   XCENC  =       672.91224203
  PAW double counting   =     28686.39720766   -28825.56601676
  entropy T*S    EENTRO =        -0.00000000
  eigenvalues    EBANDS =     -3339.71907569
  atomic energy  EATOM  =     10992.72884013
  ---------------------------------------------------
  free energy    TOTEN  =      -622.39921984 eV

  energy without entropy =     -622.39921984  energy(sigma->0) =     -622.39921984
  exchange ACFDT corr.  =        -0.00000000  see jH, gK, PRB 81, 115126


--------------------------------------------------------------------------------------------------------




--------------------------------------- Iteration      1(   8)  ---------------------------------------


    POTLOK:  cpu time    1.0463: real time    1.0493
    SETDIJ:  cpu time    1.2253: real time    1.2284
    TRIAL :  cpu time  226.0258: real time  226.6583
    CORREC:  cpu time    0.0009: real time    0.0009
    CHARGE:  cpu time    1.2339: real time    1.2371
    --------------------------------------------
      LOOP:  cpu time  229.5350: real time  230.1811

 eigenvalue-minimisations  :     0
 total energy-change (2. order) :-0.3226627E-01  (-0.2547917E-01)
 number of electron     255.9999995 magnetization       0.0000002
 augmentation part       17.3026314 magnetization       0.0270003

 DIPCOR: dipole corrections for dipol
 direction  3 min pos     1,
 dipolmoment           0.000000      0.000000      0.030185 electrons x Angstroem
 Tr[quadrupol]     -7185.702472

 energy correction for charged system         0.000000 eV
 dipol+quadrupol energy correction           -0.000026 eV
 added-field ion interaction         -0.044506 eV  (added to PSCEN)


 Free energy of the ion-electron system (eV)
  ---------------------------------------------------
  alpha Z        PSCENC =       108.66622782
  Ewald energy   TEWEN  =     42036.47406070
  -Hartree energ DENC   =    -51545.56506381
  -exchange      EXHF   =       587.88398044
  -V(xc)+E(xc)   XCENC  =       673.01574645
  PAW double counting   =     28709.12842052   -28848.54700522
  entropy T*S    EENTRO =        -0.00000000
  eigenvalues    EBANDS =     -3336.21669314
  atomic energy  EATOM  =     10992.72884013
  ---------------------------------------------------
  free energy    TOTEN  =      -622.43148611 eV

  energy without entropy =     -622.43148611  energy(sigma->0) =     -622.43148611
  exchange ACFDT corr.  =        -0.00000000  see jH, gK, PRB 81, 115126


--------------------------------------------------------------------------------------------------------




--------------------------------------- Iteration      1(   9)  ---------------------------------------


    POTLOK:  cpu time    1.0431: real time    1.0460
    SETDIJ:  cpu time    1.2260: real time    1.2292
    TRIAL :  cpu time  225.6070: real time  226.2372
    CORREC:  cpu time    0.0009: real time    0.0009
    CHARGE:  cpu time    1.2342: real time    1.2375
    --------------------------------------------
      LOOP:  cpu time  229.1134: real time  229.7575

 eigenvalue-minimisations  :     0
 total energy-change (2. order) :-0.2226818E-01  (-0.1866142E-01)
 number of electron     255.9999995 magnetization       0.0000002
 augmentation part       17.3017564 magnetization       0.0253965

 DIPCOR: dipole corrections for dipol
 direction  3 min pos     1,
 dipolmoment           0.000000      0.000000      0.029710 electrons x Angstroem
 Tr[quadrupol]     -7185.722205

 energy correction for charged system         0.000000 eV
 dipol+quadrupol energy correction           -0.000025 eV
 added-field ion interaction         -0.043805 eV  (added to PSCEN)


 Free energy of the ion-electron system (eV)
  ---------------------------------------------------
  alpha Z        PSCENC =       108.66692948
  Ewald energy   TEWEN  =     42036.47406070
  -Hartree energ DENC   =    -51547.42447265
  -exchange      EXHF   =       588.00253862
  -V(xc)+E(xc)   XCENC  =       673.07272401
  PAW double counting   =     28720.50942831   -28860.10500612
  entropy T*S    EENTRO =        -0.00000000
  eigenvalues    EBANDS =     -3334.37879677
  atomic energy  EATOM  =     10992.72884013
  ---------------------------------------------------
  free energy    TOTEN  =      -622.45375429 eV

  energy without entropy =     -622.45375429  energy(sigma->0) =     -622.45375429
  exchange ACFDT corr.  =        -0.00000000  see jH, gK, PRB 81, 115126


--------------------------------------------------------------------------------------------------------




--------------------------------------- Iteration      1(  10)  ---------------------------------------


    POTLOK:  cpu time    1.0367: real time    1.0429
    SETDIJ:  cpu time    1.2228: real time    1.2260
    TRIAL :  cpu time  225.5992: real time  226.2564
    CORREC:  cpu time    0.0008: real time    0.0008
    CHARGE:  cpu time    1.2299: real time    1.2330
    --------------------------------------------
      LOOP:  cpu time  229.0916: real time  229.7663

 eigenvalue-minimisations  :     0
 total energy-change (2. order) :-0.1638166E-01  (-0.1318074E-01)
 number of electron     255.9999995 magnetization       0.0000002
 augmentation part       17.3036832 magnetization       0.0237380

 DIPCOR: dipole corrections for dipol
 direction  3 min pos     1,
 dipolmoment           0.000000      0.000000      0.028464 electrons x Angstroem
 Tr[quadrupol]     -7185.723847

 energy correction for charged system         0.000000 eV
 dipol+quadrupol energy correction           -0.000023 eV
 added-field ion interaction         -0.041968 eV  (added to PSCEN)


 Free energy of the ion-electron system (eV)
  ---------------------------------------------------
  alpha Z        PSCENC =       108.66876825
  Ewald energy   TEWEN  =     42036.47406070
  -Hartree energ DENC   =    -51547.27385415
  -exchange      EXHF   =       588.05704916
  -V(xc)+E(xc)   XCENC  =       673.07527758
  PAW double counting   =     28724.99091995   -28864.45954075
  entropy T*S    EENTRO =        -0.00000000
  eigenvalues    EBANDS =     -3334.73165682
  atomic energy  EATOM  =     10992.72884013
  ---------------------------------------------------
  free energy    TOTEN  =      -622.47013595 eV

  energy without entropy =     -622.47013595  energy(sigma->0) =     -622.47013595
  exchange ACFDT corr.  =        -0.00000000  see jH, gK, PRB 81, 115126


--------------------------------------------------------------------------------------------------------




--------------------------------------- Iteration      1(  11)  ---------------------------------------


    POTLOK:  cpu time    1.0382: real time    1.0409
    SETDIJ:  cpu time    1.2358: real time    1.2391
    TRIAL :  cpu time  225.4703: real time  226.0921
    CORREC:  cpu time    0.0010: real time    0.0010
    CHARGE:  cpu time    1.2377: real time    1.2410
    --------------------------------------------
      LOOP:  cpu time  228.9860: real time  229.6208

 eigenvalue-minimisations  :     0
 total energy-change (2. order) :-0.1187089E-01  (-0.9736487E-02)
 number of electron     255.9999995 magnetization       0.0000002
 augmentation part       17.3068444 magnetization       0.0220914

 DIPCOR: dipole corrections for dipol
 direction  3 min pos     1,
 dipolmoment           0.000000      0.000000      0.026129 electrons x Angstroem
 Tr[quadrupol]     -7185.725651

 energy correction for charged system         0.000000 eV
 dipol+quadrupol energy correction           -0.000020 eV
 added-field ion interaction         -0.038524 eV  (added to PSCEN)


 Free energy of the ion-electron system (eV)
  ---------------------------------------------------
  alpha Z        PSCENC =       108.67221555
  Ewald energy   TEWEN  =     42036.47406070
  -Hartree energ DENC   =    -51547.34525679
  -exchange      EXHF   =       588.10173367
  -V(xc)+E(xc)   XCENC  =       673.08261126
  PAW double counting   =     28726.44189162   -28865.94121180
  entropy T*S    EENTRO =        -0.00000000
  eigenvalues    EBANDS =     -3334.69689117
  atomic energy  EATOM  =     10992.72884013
  ---------------------------------------------------
  free energy    TOTEN  =      -622.48200684 eV

  energy without entropy =     -622.48200684  energy(sigma->0) =     -622.48200684
  exchange ACFDT corr.  =        -0.00000000  see jH, gK, PRB 81, 115126


--------------------------------------------------------------------------------------------------------




--------------------------------------- Iteration      1(  12)  ---------------------------------------


    POTLOK:  cpu time    1.0457: real time    1.0509
    SETDIJ:  cpu time    1.2120: real time    1.2197
    TRIAL :  cpu time  226.2420: real time  226.8803
    CORREC:  cpu time    0.0009: real time    0.0009
    CHARGE:  cpu time    1.2340: real time    1.2372
    --------------------------------------------
      LOOP:  cpu time  229.7372: real time  230.3960

 eigenvalue-minimisations  :     0
 total energy-change (2. order) :-0.8800617E-02  (-0.7258983E-02)
 number of electron     255.9999995 magnetization       0.0000002
 augmentation part       17.3075520 magnetization       0.0205436

 DIPCOR: dipole corrections for dipol
 direction  3 min pos     1,
 dipolmoment           0.000000      0.000000      0.023949 electrons x Angstroem
 Tr[quadrupol]     -7185.730298

 energy correction for charged system         0.000000 eV
 dipol+quadrupol energy correction           -0.000016 eV
 added-field ion interaction         -0.035311 eV  (added to PSCEN)


 Free energy of the ion-electron system (eV)
  ---------------------------------------------------
  alpha Z        PSCENC =       108.67543252
  Ewald energy   TEWEN  =     42036.47406070
  -Hartree energ DENC   =    -51547.68156522
  -exchange      EXHF   =       588.14281132
  -V(xc)+E(xc)   XCENC  =       673.09543647
  PAW double counting   =     28726.69525018   -28866.29635842
  entropy T*S    EENTRO =        -0.00000000
  eigenvalues    EBANDS =     -3334.32471514
  atomic energy  EATOM  =     10992.72884013
  ---------------------------------------------------
  free energy    TOTEN  =      -622.49080746 eV

  energy without entropy =     -622.49080746  energy(sigma->0) =     -622.49080746
  exchange ACFDT corr.  =        -0.00000000  see jH, gK, PRB 81, 115126


--------------------------------------------------------------------------------------------------------




--------------------------------------- Iteration      1(  13)  ---------------------------------------


    POTLOK:  cpu time    1.0399: real time    1.0432
    SETDIJ:  cpu time    1.2170: real time    1.2202
    TRIAL :  cpu time  225.7558: real time  226.3939
    CORREC:  cpu time    0.0008: real time    0.0008
    CHARGE:  cpu time    1.2296: real time    1.2328
    --------------------------------------------
      LOOP:  cpu time  229.2451: real time  229.8972

 eigenvalue-minimisations  :     0
 total energy-change (2. order) :-0.6660637E-02  (-0.5555721E-02)
 number of electron     255.9999995 magnetization       0.0000002
 augmentation part       17.3077463 magnetization       0.0190919

 DIPCOR: dipole corrections for dipol
 direction  3 min pos     1,
 dipolmoment           0.000000      0.000000      0.022800 electrons x Angstroem
 Tr[quadrupol]     -7185.734776

 energy correction for charged system         0.000000 eV
 dipol+quadrupol energy correction           -0.000015 eV
 added-field ion interaction         -0.033617 eV  (added to PSCEN)


 Free energy of the ion-electron system (eV)
  ---------------------------------------------------
  alpha Z        PSCENC =       108.67712798
  Ewald energy   TEWEN  =     42036.47406070
  -Hartree energ DENC   =    -51547.76129239
  -exchange      EXHF   =       588.17252823
  -V(xc)+E(xc)   XCENC  =       673.09992890
  PAW double counting   =     28726.61684147   -28866.22177119
  entropy T*S    EENTRO =        -0.00000000
  eigenvalues    EBANDS =     -3334.28373192
  atomic energy  EATOM  =     10992.72884013
  ---------------------------------------------------
  free energy    TOTEN  =      -622.49746809 eV

  energy without entropy =     -622.49746809  energy(sigma->0) =     -622.49746809
  exchange ACFDT corr.  =        -0.00000000  see jH, gK, PRB 81, 115126


--------------------------------------------------------------------------------------------------------




--------------------------------------- Iteration      1(  14)  ---------------------------------------


    POTLOK:  cpu time    1.0389: real time    1.0415
    SETDIJ:  cpu time    1.2448: real time    1.2485
    TRIAL :  cpu time  226.2465: real time  226.9385
    CORREC:  cpu time    0.0008: real time    0.0008
    CHARGE:  cpu time    1.2291: real time    1.2322
    --------------------------------------------
      LOOP:  cpu time  229.7622: real time  230.4679

 eigenvalue-minimisations  :     0
 total energy-change (2. order) :-0.5116303E-02  (-0.4278700E-02)
 number of electron     255.9999995 magnetization       0.0000002
 augmentation part       17.3093154 magnetization       0.0177229

 DIPCOR: dipole corrections for dipol
 direction  3 min pos     1,
 dipolmoment           0.000000      0.000000      0.022351 electrons x Angstroem
 Tr[quadrupol]     -7185.739116

 energy correction for charged system         0.000000 eV
 dipol+quadrupol energy correction           -0.000014 eV
 added-field ion interaction         -0.032955 eV  (added to PSCEN)


 Free energy of the ion-electron system (eV)
  ---------------------------------------------------
  alpha Z        PSCENC =       108.67779007
  Ewald energy   TEWEN  =     42036.47406070
  -Hartree energ DENC   =    -51547.80997459
  -exchange      EXHF   =       588.19715118
  -V(xc)+E(xc)   XCENC  =       673.10253389
  PAW double counting   =     28726.89999797   -28866.48485285
  entropy T*S    EENTRO =        -0.00000000
  eigenvalues    EBANDS =     -3334.28813090
  atomic energy  EATOM  =     10992.72884013
  ---------------------------------------------------
  free energy    TOTEN  =      -622.50258440 eV

  energy without entropy =     -622.50258440  energy(sigma->0) =     -622.50258440
  exchange ACFDT corr.  =        -0.00000000  see jH, gK, PRB 81, 115126


--------------------------------------------------------------------------------------------------------




--------------------------------------- Iteration      1(  15)  ---------------------------------------


    POTLOK:  cpu time    1.0333: real time    1.0363
    SETDIJ:  cpu time    1.2423: real time    1.2453
    TRIAL :  cpu time  225.3161: real time  226.7733
    CORREC:  cpu time    0.0008: real time    0.0008
    CHARGE:  cpu time    1.2311: real time    1.2342
    --------------------------------------------
      LOOP:  cpu time  228.8265: real time  230.2968

 eigenvalue-minimisations  :     0
 total energy-change (2. order) :-0.3972012E-02  (-0.3332496E-02)
 number of electron     255.9999995 magnetization       0.0000002
 augmentation part       17.3103842 magnetization       0.0164635

 DIPCOR: dipole corrections for dipol
 direction  3 min pos     1,
 dipolmoment           0.000000      0.000000      0.021888 electrons x Angstroem
 Tr[quadrupol]     -7185.743705

 energy correction for charged system         0.000000 eV
 dipol+quadrupol energy correction           -0.000014 eV
 added-field ion interaction         -0.032273 eV  (added to PSCEN)


 Free energy of the ion-electron system (eV)
  ---------------------------------------------------
  alpha Z        PSCENC =       108.67847330
  Ewald energy   TEWEN  =     42036.47406070
  -Hartree energ DENC   =    -51548.06419403
  -exchange      EXHF   =       588.22274245
  -V(xc)+E(xc)   XCENC  =       673.11020833
  PAW double counting   =     28727.86182421   -28867.48573413
  entropy T*S    EENTRO =        -0.00000000
  eigenvalues    EBANDS =     -3334.03277737
  atomic energy  EATOM  =     10992.72884013
  ---------------------------------------------------
  free energy    TOTEN  =      -622.50655641 eV

  energy without entropy =     -622.50655641  energy(sigma->0) =     -622.50655641
  exchange ACFDT corr.  =        -0.00000000  see jH, gK, PRB 81, 115126


--------------------------------------------------------------------------------------------------------




--------------------------------------- Iteration      1(  16)  ---------------------------------------


    POTLOK:  cpu time    1.0336: real time    1.0365
    SETDIJ:  cpu time    1.2378: real time    1.2409
    TRIAL :  cpu time  225.7073: real time  226.3376
    CORREC:  cpu time    0.0008: real time    0.0008
    CHARGE:  cpu time    1.2298: real time    1.2330
    --------------------------------------------
      LOOP:  cpu time  229.2121: real time  229.8558

 eigenvalue-minimisations  :     0
 total energy-change (2. order) :-0.3111370E-02  (-0.2644764E-02)
 number of electron     255.9999995 magnetization       0.0000002
 augmentation part       17.3104495 magnetization       0.0153173

 DIPCOR: dipole corrections for dipol
 direction  3 min pos     1,
 dipolmoment           0.000000      0.000000      0.021269 electrons x Angstroem
 Tr[quadrupol]     -7185.747192

 energy correction for charged system         0.000000 eV
 dipol+quadrupol energy correction           -0.000013 eV
 added-field ion interaction         -0.031360 eV  (added to PSCEN)


 Free energy of the ion-electron system (eV)
  ---------------------------------------------------
  alpha Z        PSCENC =       108.67938675
  Ewald energy   TEWEN  =     42036.47406070
  -Hartree energ DENC   =    -51548.25260803
  -exchange      EXHF   =       588.24459982
  -V(xc)+E(xc)   XCENC  =       673.11602119
  PAW double counting   =     28729.24794076   -28868.89884353
  entropy T*S    EENTRO =        -0.00000000
  eigenvalues    EBANDS =     -3333.84906556
  atomic energy  EATOM  =     10992.72884013
  ---------------------------------------------------
  free energy    TOTEN  =      -622.50966778 eV

  energy without entropy =     -622.50966778  energy(sigma->0) =     -622.50966778
  exchange ACFDT corr.  =        -0.00000000  see jH, gK, PRB 81, 115126


--------------------------------------------------------------------------------------------------------




--------------------------------------- Iteration      1(  17)  ---------------------------------------


    POTLOK:  cpu time    1.0347: real time    1.0376
    SETDIJ:  cpu time    1.2239: real time    1.2270
    TRIAL :  cpu time  225.8617: real time  226.4868
    CORREC:  cpu time    0.0008: real time    0.0008
    CHARGE:  cpu time    1.2308: real time    1.2340
    --------------------------------------------
      LOOP:  cpu time  229.3545: real time  229.9930

 eigenvalue-minimisations  :     0
 total energy-change (2. order) :-0.2480181E-02  (-0.2110645E-02)
 number of electron     255.9999995 magnetization       0.0000002
 augmentation part       17.3107445 magnetization       0.0142503

 DIPCOR: dipole corrections for dipol
 direction  3 min pos     1,
 dipolmoment           0.000000      0.000000      0.020701 electrons x Angstroem
 Tr[quadrupol]     -7185.749231

 energy correction for charged system         0.000000 eV
 dipol+quadrupol energy correction           -0.000012 eV
 added-field ion interaction         -0.030522 eV  (added to PSCEN)


 Free energy of the ion-electron system (eV)
  ---------------------------------------------------
  alpha Z        PSCENC =       108.68022523
  Ewald energy   TEWEN  =     42036.47406070
  -Hartree energ DENC   =    -51548.29507514
  -exchange      EXHF   =       588.26150256
  -V(xc)+E(xc)   XCENC  =       673.11794026
  PAW double counting   =     28730.73572210   -28870.37950739
  entropy T*S    EENTRO =        -0.00000000
  eigenvalues    EBANDS =     -3333.83585642
  atomic energy  EATOM  =     10992.72884013
  ---------------------------------------------------
  free energy    TOTEN  =      -622.51214796 eV

[...]
  energy-cutoff  :      500.00
  volume of cell :     3176.88
      direct lattice vectors                 reciprocal lattice vectors
    12.810000000  0.000000000  0.000000000     0.078064012  0.000000000  0.000000000
     0.000000000 12.400000000  0.000000000     0.000000000  0.080645161  0.000000000
     0.000000000  0.000000000 20.000000000     0.000000000  0.000000000  0.050000000

  length of vectors
    12.810000000 12.400000000 20.000000000     0.078064012  0.080645161  0.050000000


 FORCES acting on ions:
    Electron-Ion                     Ewald-Force                    Non-Local-Force
 -----------------------------------------------------------------------------------------------
   0.577E+01 -.441E+01 0.376E+02   -.568E+01 0.413E+01 -.376E+02   -.371E-01 0.142E+00 0.850E-01
   -.308E-01 -.915E+00 0.443E+02   0.327E+00 0.827E+00 -.443E+02   -.280E+00 0.414E-01 0.513E-01
   0.606E+01 -.174E+00 0.413E+02   -.600E+01 0.157E+00 -.412E+02   -.113E+00 0.382E-01 -.103E+00
   0.152E+02 0.409E+01 0.350E+02   -.154E+02 -.415E+01 -.347E+02   0.269E+00 0.813E-01 -.203E+00
   0.984E+01 0.813E+01 0.256E+02   -.973E+01 -.803E+01 -.256E+02   -.549E-01 -.703E-01 0.743E-01
   0.438E+01 0.881E+01 0.409E+02   -.426E+01 -.919E+01 -.410E+02   -.112E+00 0.310E+00 0.779E-01
   0.528E+01 0.913E+01 0.345E+02   -.521E+01 -.924E+01 -.344E+02   -.119E+00 0.132E+00 -.750E-01
   0.255E+02 0.270E+02 0.994E+01   -.257E+02 -.270E+02 -.971E+01   0.148E+00 -.154E+00 -.242E+00
   0.387E+02 0.616E+02 0.209E+02   -.402E+02 -.643E+02 -.217E+02   0.140E+01 0.292E+01 0.813E+00
   0.171E+02 0.285E+01 0.312E+02   -.172E+02 -.273E+01 -.310E+02   0.117E+00 -.741E-01 -.894E-01
   0.212E+02 0.161E+02 0.357E+02   -.213E+02 -.163E+02 -.358E+02   0.657E-01 0.248E+00 0.136E+00
   0.455E+02 -.517E+02 -.823E+00   -.468E+02 0.548E+02 0.481E+00   0.140E+01 -.316E+01 0.334E+00
   0.888E+01 -.961E+01 0.359E+02   -.885E+01 0.987E+01 -.359E+02   0.299E-01 -.247E+00 -.496E-01
   0.246E+02 -.109E+02 0.293E+02   -.246E+02 0.112E+02 -.295E+02   -.777E-01 -.357E+00 0.183E+00
   0.327E+02 -.249E+02 -.145E+02   -.324E+02 0.248E+02 0.146E+02   -.651E+00 0.203E+00 -.285E+00
   0.145E+02 -.172E+02 0.292E+02   -.142E+02 0.169E+02 -.293E+02   -.230E+00 0.119E+00 0.233E+00
   0.972E+00 -.636E+01 0.492E+02   -.751E+00 0.643E+01 -.493E+02   -.201E+00 -.537E-01 0.920E-01
   0.720E+01 -.774E+01 0.433E+02   -.710E+01 0.783E+01 -.433E+02   -.139E+00 -.574E-01 0.698E-01
   0.130E+02 -.902E+01 0.298E+02   -.131E+02 0.916E+01 -.294E+02   0.849E-01 0.230E-01 -.355E+00
   -.183E+01 -.289E+01 0.624E+02   0.148E+01 0.290E+01 -.622E+02   0.306E+00 -.337E-01 -.124E+00
   0.744E+01 0.790E+01 0.558E+02   -.796E+01 -.822E+01 -.559E+02   0.480E+00 0.305E+00 0.117E+00
   0.596E+01 -.215E+01 0.598E+02   -.616E+01 0.200E+01 -.598E+02   0.202E+00 0.146E+00 0.116E+00
   -.642E+01 0.836E+01 0.749E+02   0.652E+01 -.864E+01 -.750E+02   -.776E-01 0.294E+00 0.161E+00
   -.453E+01 0.202E+02 0.720E+02   0.436E+01 -.206E+02 -.719E+02   0.183E+00 0.484E+00 -.120E+00
   0.424E+02 0.589E+02 0.273E+02   -.446E+02 -.617E+02 -.281E+02   0.238E+01 0.282E+01 0.836E+00
   0.919E+01 0.245E+02 0.598E+02   -.958E+01 -.249E+02 -.599E+02   0.348E+00 0.367E+00 0.141E+00
   -.197E+02 0.278E+02 0.780E+02   0.201E+02 -.286E+02 -.786E+02   -.368E+00 0.592E+00 0.627E+00
   -.428E+02 0.455E+02 0.297E+02   0.444E+02 -.485E+02 -.309E+02   -.170E+01 0.305E+01 0.136E+01
   0.533E+02 -.891E+02 -.695E+02   -.535E+02 0.893E+02 0.689E+02   0.793E+00 -.101E+01 0.142E+01
   0.119E+02 -.500E+02 0.691E+01   -.142E+02 0.526E+02 -.743E+01   0.240E+01 -.280E+01 0.609E+00
   0.916E+01 -.146E+02 0.392E+02   -.928E+01 0.142E+02 -.393E+02   0.196E+00 0.308E+00 0.200E+00
   0.488E+01 -.324E+02 0.745E+00   -.517E+01 0.318E+02 -.747E+00   0.391E+00 0.839E+00 -.100E+00
   -.503E+01 -.169E+02 0.495E+02   0.493E+01 0.172E+02 -.498E+02   0.133E+00 -.106E+00 0.283E+00
   -.672E+01 -.327E+01 0.565E+02   0.687E+01 0.324E+01 -.565E+02   -.169E+00 0.111E-03 0.907E-03
   -.878E+01 0.271E+01 0.682E+02   0.879E+01 -.279E+01 -.681E+02   -.553E-01 0.547E-01 -.117E+00
   -.859E+01 -.800E-01 0.611E+02   0.880E+01 0.180E+00 -.612E+02   -.175E+00 -.457E-01 0.112E+00
   -.318E+01 0.395E+01 0.547E+02   0.344E+01 -.399E+01 -.548E+02   -.244E+00 0.697E-01 0.498E-01
   -.848E+01 0.329E+01 0.576E+02   0.869E+01 -.337E+01 -.576E+02   -.213E+00 0.814E-01 -.374E-01
   -.227E+02 0.118E+02 0.648E+02   0.232E+02 -.120E+02 -.647E+02   -.501E+00 0.180E+00 -.105E+00
   -.108E+02 0.908E+01 0.697E+02   0.111E+02 -.933E+01 -.698E+02   -.243E+00 0.249E+00 0.170E+00
   -.185E+01 0.523E+01 0.508E+02   0.200E+01 -.531E+01 -.508E+02   -.148E+00 0.593E-01 0.803E-01
   -.102E+02 0.530E+01 0.453E+02   0.106E+02 -.517E+01 -.453E+02   -.401E+00 -.115E+00 0.629E-01
   -.637E+02 -.892E+01 0.194E+02   0.669E+02 0.912E+01 -.206E+02   -.336E+01 -.402E+00 0.114E+01
   -.245E+02 0.565E+01 0.489E+02   0.250E+02 -.564E+01 -.491E+02   -.416E+00 0.168E-01 0.149E+00
   -.354E+00 -.207E+01 0.321E+02   0.313E+00 0.222E+01 -.320E+02   0.108E-01 -.129E+00 -.654E-01
   -.773E+01 -.319E+01 0.225E+02   0.772E+01 0.325E+01 -.225E+02   0.397E-01 -.450E-01 0.511E-02
   -.591E+02 -.123E+01 0.196E+02   0.621E+02 0.119E+01 -.206E+02   -.331E+01 0.217E+00 0.108E+01
   -.252E+02 -.169E+01 0.421E+01   0.255E+02 0.175E+01 -.410E+01   -.122E+00 -.114E+00 -.139E+00
   -.147E+01 0.175E+00 0.344E+02   0.157E+01 -.183E+00 -.344E+02   -.132E+00 0.590E-02 -.644E-01
   -.850E+01 -.783E+01 0.482E+02   0.886E+01 0.775E+01 -.483E+02   -.373E+00 0.721E-01 0.116E+00
   -.138E+02 -.129E+02 0.491E+02   0.138E+02 0.131E+02 -.488E+02   -.129E+00 -.249E+00 -.196E+00
   -.202E+02 -.816E+01 0.463E+02   0.207E+02 0.839E+01 -.465E+02   -.376E+00 -.169E+00 0.222E+00
   -.215E+01 -.153E+01 0.526E+02   0.237E+01 0.154E+01 -.526E+02   -.190E+00 0.450E-02 0.343E-01
   0.603E+02 0.108E+02 -.543E+01   -.386E+02 -.105E+02 0.104E+02   -.206E+02 -.290E+00 -.492E+01
   0.472E+01 0.734E+02 -.167E+02   -.145E+02 -.568E+02 0.232E+02   0.930E+01 -.156E+02 -.622E+01
   -.480E+02 -.377E+01 -.384E+02   0.375E+02 0.199E+02 0.447E+02   0.104E+02 -.155E+02 -.637E+01
   0.521E+02 -.151E+03 -.504E+03   -.474E+02 0.146E+03 0.523E+03   -.526E+01 0.542E+01 -.186E+02
   -.308E+02 -.284E+02 -.512E+02   0.216E+02 0.138E+02 0.577E+02   0.897E+01 0.141E+02 -.660E+01
   0.124E+03 0.154E+03 -.722E+03   -.123E+03 -.153E+03 0.721E+03   -.160E+01 -.200E+01 0.205E+01
   -.215E+03 -.198E+02 -.643E+03   0.212E+03 0.219E+02 0.638E+03   0.260E+01 -.276E+01 0.584E+01
 -----------------------------------------------------------------------------------------------
   -.539E+00 0.120E+02 0.295E+02   0.142E-12 0.256E-12 0.102E-11   0.484E+00 -.116E+02 -.261E+02
 
 
 POSITION                                       TOTAL-FORCE (eV/Angst)
 -----------------------------------------------------------------------------------
      2.84357      0.00430      9.83288         0.047668     -0.134223      0.039083
      0.72855      1.24704      9.72542        -0.002118     -0.049942      0.025643
      1.42076     12.39958      9.76281        -0.057680      0.027841      0.013986
      3.55376      1.25646      9.84301         0.066032      0.024319      0.004801
      2.87030      2.52170      9.90040         0.041864      0.028317      0.020832
      0.71103      3.72689      9.81177        -0.002540     -0.057995      0.030695
      1.43820      2.49681      9.80658        -0.054223      0.032537      0.008033
      3.59240      3.76890     10.08201        -0.021899     -0.124462     -0.023401
      2.81475      5.01696     10.14650         0.028131      0.477946      0.083094
      0.67175      6.20943      9.94180         0.070171      0.038331      0.020858
      1.39772      4.97401      9.94228         0.012590     -0.011361      0.032099
      2.77432      7.43596     10.28223         0.183026     -0.248427      0.005942
      0.66727      8.68228      9.90633         0.055070     -0.004899      0.037440
      1.37517      7.45147     10.01883        -0.076987     -0.029823      0.048163
      3.50563      8.70256     10.36549        -0.391099      0.071302     -0.224095
      2.82104      9.91456     10.03411         0.084126     -0.196068      0.140123
      0.70278     11.15620      9.75849         0.006390      0.006203      0.053683
      1.39727      9.91418      9.87269        -0.048776      0.030768      0.048841
      3.54286     11.16260      9.95271        -0.041520      0.167297     -0.005252
      7.10434     12.38456      9.77381        -0.028893     -0.024819      0.054073
      4.97276      1.23309      9.80697        -0.017686      0.000435      0.053017
      5.68272     12.39470      9.81951         0.009049      0.001246      0.054044
      7.82978      1.20854      9.68227         0.015760      0.030723      0.046071
      7.12332      2.43568      9.76347         0.030486      0.052795      0.071708
      5.04508      3.69799     10.11627         0.288102      0.174598      0.057441
      5.70222      2.45553      9.85530        -0.014314      0.009727      0.054197
      7.86112      3.64709      9.84684         0.051400     -0.132826      0.030165
      7.17796      4.81916     10.22126        -0.149327      0.249026      0.230862
      4.89452      8.84581     10.78571         0.593868     -0.879929      0.960933
      7.12677      9.95772     10.24123         0.188031     -0.366446      0.128905
      4.97418     11.16503      9.99475         0.089313     -0.055157      0.117567
      5.68497      9.97304     10.31431         0.104012      0.301864     -0.106344
      7.81864     11.15930      9.90065         0.043192      0.123449      0.006360
     11.38981     12.39151      9.66263        -0.035062     -0.040308      0.039531
      9.25482      1.21926      9.64481        -0.045036     -0.027794      0.040936
      9.96241     12.38435      9.67410         0.025476      0.055770      0.017654
     12.11084      1.23351      9.66065         0.003086      0.039738      0.027373
     11.39935      2.46916      9.66410        -0.015411     -0.004186      0.037807
      9.27094      3.67962      9.76697        -0.080095     -0.000562      0.066654
      9.97667      2.45345      9.65272         0.006907      0.015892      0.049930
     12.09656      3.71796      9.73976         0.002983     -0.015799      0.019341
     11.37380      4.95331      9.81655        -0.022851      0.009672      0.024281
      9.20316      6.12239     10.14341        -0.361359     -0.235248      0.057349
      9.95185      4.93064      9.87714         0.063213      0.025234      0.011671
     12.05489      6.20132      9.89302        -0.028326      0.003002     -0.000364
     11.31146      7.43097      9.95292         0.035635      0.005133      0.023030
      9.20440      8.71421     10.14954        -0.513779      0.190502      0.172774
      9.87925      7.42138     10.11257         0.099973     -0.052673     -0.038907
     12.04926      8.66882      9.87502        -0.034316      0.006658      0.006129
     11.36109      9.91021      9.80001        -0.033184     -0.009191      0.048344
      9.24017     11.15805      9.80781        -0.075182     -0.084313      0.054932
      9.93698      9.91510      9.88517         0.066123      0.053628      0.020672
     12.08608     11.14747      9.71742         0.020414      0.019407      0.027824
      3.40138      6.22190     10.41552        -0.686009     -0.078583     -0.362347
      5.83150      4.78399     10.42729         0.360891     -0.383102     -0.199543
      7.86043      5.99917     10.45647         0.783221     -0.727187     -0.653004
      5.46993      8.01052     11.66518        -1.023054      1.170554     -1.012392
      7.86808      8.80671     10.48957         0.587734      0.749671     -0.682560
      5.09915      6.25942     11.30306        -0.016685      0.018284     -0.027684
      7.12319      7.44000     11.47028        -0.186526     -0.236547      0.110999
 -----------------------------------------------------------------------------------
    total drift:                                0.002142      0.003634      0.002236


--------------------------------------------------------------------------------------------------------



  FREE ENERGIE OF THE ION-ELECTRON SYSTEM (eV)
  ---------------------------------------------------
  free  energy   TOTEN  =      -622.52559975 eV

  energy  without entropy=     -622.52559975  energy(sigma->0) =     -622.52559975
 


--------------------------------------------------------------------------------------------------------


    POTLOK:  cpu time    2.2547: real time    2.2613


--------------------------------------------------------------------------------------------------------


 stress matrix after NEB project (eV)
    -34.04450     -9.91361     -1.10849
     -9.91330    -43.69838      0.82426
     -1.10955      0.82373     -2.27127
  FORCES: max atom, RMS     1.855202    0.436593
  FORCE total and by dimension    3.381835    1.170554
  Stress total and by dimension   57.219806   43.698384
 writing wavefunctions
     LOOP+:  cpu time14265.1185: real time14314.3020
 vacuum level on the upper side and lower side of the slab         1.553         1.531
    4ORBIT:  cpu time    0.0000: real time    0.0000
 


 total charge     
 
# of ion       s       p       d       tot
------------------------------------------
    1        0.866   1.755   0.000   2.620
    2        0.865   1.756   0.000   2.621
    3        0.864   1.775   0.000   2.638
    4        0.861   1.769   0.000   2.630
    5        0.860   1.731   0.000   2.591
    6        0.867   1.762   0.000   2.629
    7        0.860   1.765   0.000   2.625
    8        0.845   1.732   0.000   2.578
    9        0.856   1.704   0.000   2.559
   10        0.868   1.755   0.000   2.622
   11        0.864   1.774   0.000   2.638
   12        0.857   1.709   0.000   2.566
   13        0.867   1.763   0.000   2.630
   14        0.867   1.786   0.000   2.653
   15        0.854   1.747   0.000   2.601
   16        0.864   1.743   0.000   2.607
   17        0.866   1.760   0.000   2.626
   18        0.864   1.768   0.000   2.632
   19        0.859   1.767   0.000   2.626
   20        0.869   1.774   0.000   2.643
   21        0.869   1.772   0.000   2.641
   22        0.866   1.776   0.000   2.642
   23        0.868   1.784   0.000   2.652
   24        0.871   1.777   0.000   2.648
   25        0.857   1.709   0.000   2.566
   26        0.867   1.784   0.000   2.651
   27        0.874   1.814   0.000   2.687
   28        0.861   1.725   0.000   2.585
   29        0.867   1.708   0.000   2.575
   30        0.856   1.715   0.000   2.571
   31        0.868   1.757   0.000   2.626
   32        0.860   1.764   0.000   2.624
   33        0.868   1.782   0.000   2.650
   34        0.866   1.761   0.000   2.627
   35        0.868   1.769   0.000   2.637
   36        0.866   1.777   0.000   2.643
   37        0.864   1.769   0.000   2.633
   38        0.868   1.766   0.000   2.635
   39        0.872   1.778   0.000   2.650
   40        0.867   1.783   0.000   2.650
   41        0.864   1.769   0.000   2.633
   42        0.868   1.764   0.000   2.632
   43        0.855   1.696   0.000   2.551
   44        0.865   1.782   0.000   2.648
   45        0.863   1.776   0.000   2.638
   46        0.861   1.735   0.000   2.595
   47        0.857   1.706   0.000   2.563
   48        0.847   1.742   0.000   2.589
   49        0.863   1.771   0.000   2.634
   50        0.867   1.764   0.000   2.631
   51        0.868   1.765   0.000   2.633
   52        0.865   1.779   0.000   2.645
   53        0.864   1.769   0.000   2.633
   54        1.232   2.686   0.000   3.918
   55        1.228   2.701   0.000   3.929
   56        1.231   2.680   0.000   3.911
   57        1.260   2.579   0.000   3.839
   58        1.230   2.670   0.000   3.900
   59        0.471   0.540   9.297  10.308
   60        0.469   0.611   6.483   7.563
--------------------------------------------------
tot         52.891 107.650  15.780 176.321
 


 magnetization (x)
 
# of ion       s       p       d       tot
------------------------------------------
    1       -0.000  -0.001   0.000  -0.001
    2        0.000   0.000   0.000   0.000
    3        0.000   0.000   0.000   0.001
    4       -0.000  -0.000   0.000  -0.000
    5        0.000   0.001   0.000   0.001
    6        0.000  -0.000   0.000  -0.000
    7       -0.000  -0.001   0.000  -0.001
    8        0.000  -0.000   0.000  -0.000
    9        0.000   0.001   0.000   0.001
   10        0.000   0.002   0.000   0.002
   11       -0.000  -0.001   0.000  -0.002
   12       -0.000  -0.002   0.000  -0.002
   13       -0.000  -0.002   0.000  -0.002
   14        0.000  -0.000   0.000  -0.000
   15        0.001   0.005   0.000   0.006
   16       -0.000  -0.003   0.000  -0.004
   17        0.000   0.000   0.000   0.000
   18        0.000   0.001   0.000   0.001
   19        0.000   0.001   0.000   0.001
   20       -0.000  -0.002   0.000  -0.002
   21        0.000   0.000   0.000   0.000
   22        0.000  -0.000   0.000  -0.000
   23       -0.000  -0.000   0.000  -0.000
   24        0.000   0.001   0.000   0.001
   25       -0.000  -0.000   0.000  -0.000
   26       -0.000  -0.000   0.000  -0.000
   27       -0.000  -0.002   0.000  -0.002
   28        0.000   0.004   0.000   0.004
   29       -0.003  -0.033   0.000  -0.036
   30       -0.000  -0.009   0.000  -0.009
   31       -0.000  -0.001   0.000  -0.001
   32        0.001   0.004   0.000   0.004
   33        0.000   0.002   0.000   0.002
   34        0.000   0.001   0.000   0.001
   35       -0.000  -0.001   0.000  -0.001
   36       -0.000  -0.001   0.000  -0.001
   37       -0.000  -0.001   0.000  -0.001
   38        0.000   0.002   0.000   0.002
   39        0.000   0.003   0.000   0.004
   40       -0.000  -0.001   0.000  -0.001
   41       -0.000  -0.001   0.000  -0.001
   42        0.000   0.001   0.000   0.001
   43        0.001   0.009   0.000   0.010
   44       -0.000  -0.002   0.000  -0.002
   45       -0.000  -0.002   0.000  -0.002
   46        0.000   0.001   0.000   0.001
   47       -0.000   0.002   0.000   0.002
   48       -0.001  -0.005   0.000  -0.006
   49       -0.000  -0.002   0.000  -0.002
   50        0.000   0.001   0.000   0.001
   51       -0.000  -0.002   0.000  -0.002
   52       -0.000  -0.003   0.000  -0.003
   53       -0.000  -0.001   0.000  -0.001
   54       -0.000  -0.000   0.000  -0.001
   55       -0.000   0.000   0.000  -0.000
   56       -0.001  -0.004   0.000  -0.005
   57        0.002   0.044   0.000   0.046
   58       -0.000  -0.009   0.000  -0.009
   59        0.001   0.005   0.002   0.009
   60       -0.000   0.012  -0.002   0.010
--------------------------------------------------
tot          0.001   0.009  -0.000   0.009
 

 total amount of memory used by VASP MPI-rank0   155078. kBytes
=======================================================================

   base      :      30000. kBytes
   nonl-proj :       4340. kBytes
   fftplans  :      11188. kBytes
   grid      :      29312. kBytes
   one-center:         62. kBytes
   HF        :         23. kBytes
   nonlr-proj:      15827. kBytes
   wavefun   :      64326. kBytes
 
  
  
 General timing and accounting informations for this job:
 ========================================================
  
                  Total CPU time used (sec):    14329.859
                            User time (sec):    14276.993
                          System time (sec):       52.867
                         Elapsed time (sec):    14386.392
  
                   Maximum memory used (kb):      398268.
                   Average memory used (kb):           0.
  
                          Minor page faults:      1288091
                          Major page faults:            0
                 Voluntary context switches:       174333
