 vasp.5.4.4.18Apr17-6-g9f103f2a35 (build Feb 25 2019 10:51:38) complex          
  
 executed on             LinuxIFC date 2021.06.15  21:42:27
 running on   48 total cores
 distrk:  each k-point on   24 cores,    2 groups
 distr:  one band on NCORES_PER_BAND=  24 cores,    1 groups


--------------------------------------------------------------------------------------------------------


 INCAR:
 POTCAR:    PAW_PBE C 08Apr2002                   
 POTCAR:    PAW_PBE N 08Apr2002                   
 POTCAR:    PAW_PBE Fe 06Sep2000                  
 POTCAR:    PAW_PBE V 08Apr2002                   

 ----------------------------------------------------------------------------- 
|                                                                             |
|           W    W    AA    RRRRR   N    N  II  N    N   GGGG   !!!           |
|           W    W   A  A   R    R  NN   N  II  NN   N  G    G  !!!           |
|           W    W  A    A  R    R  N N  N  II  N N  N  G       !!!           |
|           W WW W  AAAAAA  RRRRR   N  N N  II  N  N N  G  GGG   !            |
|           WW  WW  A    A  R   R   N   NN  II  N   NN  G    G                |
|           W    W  A    A  R    R  N    N  II  N    N   GGGG   !!!           |
|                                                                             |
|      For optimal performance we recommend to set                            |
|        NCORE= 4 - approx SQRT( number of cores)                             |
|      NCORE specifies how many cores store one orbital (NPAR=cpu/NCORE).     |
|      This setting can  greatly improve the performance of VASP for DFT.     |
|      The default,   NCORE=1            might be grossly inefficient         |
|      on modern multi-core architectures or massively parallel machines.     |
|      Do your own testing !!!!                                               |
|      Unfortunately you need to use the default for GW and RPA calculations. |
|      (for HF NCORE is supported but not extensively tested yet)             |
|                                                                             |
 ----------------------------------------------------------------------------- 


 ----------------------------------------------------------------------------- 
|                                                                             |
|           W    W    AA    RRRRR   N    N  II  N    N   GGGG   !!!           |
|           W    W   A  A   R    R  NN   N  II  NN   N  G    G  !!!           |
|           W    W  A    A  R    R  N N  N  II  N N  N  G       !!!           |
|           W WW W  AAAAAA  RRRRR   N  N N  II  N  N N  G  GGG   !            |
|           WW  WW  A    A  R   R   N   NN  II  N   NN  G    G                |
|           W    W  A    A  R    R  N    N  II  N    N   GGGG   !!!           |
|                                                                             |
|      You have enabled k-point parallelism (KPAR>1).                         |
|      This developmental code was originally  written by Paul Kent at ORNL,  |
|      and carefully double checked in Vienna.                                |
|      GW as well as linear response parallelism added by Martijn Marsman     |
|      and Georg Kresse.                                                      |
|      Carefully verify results versus KPAR=1.                                |
|      Report problems to Paul Kent and Vienna.                               |
|                                                                             |
 ----------------------------------------------------------------------------- 

 POTCAR:    PAW_PBE C 08Apr2002                   
   VRHFIN =C: s2p2                                                              
   LEXCH  = PE                                                                  
   EATOM  =   147.1560 eV,   10.8157 Ry                                         
                                                                                
   TITEL  = PAW_PBE C 08Apr2002                                                 
   LULTRA =        F    use ultrasoft PP ?                                      
   IUNSCR =        1    unscreen: 0-lin 1-nonlin 2-no                           
   RPACOR =    1.200    partial core radius                                     
   POMASS =   12.011; ZVAL   =    4.000    mass and valenz                      
   RCORE  =    1.500    outmost cutoff radius                                   
   RWIGS  =    1.630; RWIGS  =    0.863    wigner-seitz radius (au A)           
   ENMAX  =  400.000; ENMIN  =  300.000 eV                                      
   ICORE  =        2    local potential                                         
   LCOR   =        T    correct aug charges                                     
   LPAW   =        T    paw PP                                                  
   EAUG   =  644.873                                                            
   DEXC   =    0.000                                                            
   RMAX   =    1.529    core radius for proj-oper                               
   RAUG   =    1.300    factor for augmentation sphere                          
   RDEP   =    1.501    radius for radial grids                                 
   RDEPT  =    1.300    core radius for aug-charge                              
                                                                                
   Atomic configuration                                                         
    4 entries                                                                   
     n  l   j            E        occ.                                          
     1  0  0.50      -273.3789   2.0000                                         
     2  0  0.50       -13.7508   2.0000                                         
     2  1  0.50        -5.2854   2.0000                                         
     3  2  1.50        -5.4423   0.0000                                         
   Description                                                                  
     l       E           TYP  RCUT    TYP  RCUT                                 
     0    -13.7508458     23  1.200                                             
     0     -8.2022199     23  1.200                                             
     1     -5.2854383     23  1.500                                             
     1     34.0145650     23  1.500                                             
     2     -5.4423304      7  1.500                                             
  local pseudopotential read in
  partial core-charges read in
  partial kinetic energy density read in
  atomic valenz-charges read in
  non local Contribution for L=           0  read in
    real space projection operators read in
  non local Contribution for L=           0  read in
    real space projection operators read in
  non local Contribution for L=           1  read in
    real space projection operators read in
  non local Contribution for L=           1  read in
    real space projection operators read in
    PAW grid and wavefunctions read in
 
   number of l-projection  operators is LMAX  =           4
   number of lm-projection operators is LMMAX =           8
 
 POTCAR:    PAW_PBE N 08Apr2002                   
   VRHFIN =N: s2p3                                                              
   LEXCH  = PE                                                                  
   EATOM  =   264.5486 eV,   19.4438 Ry                                         
                                                                                
   TITEL  = PAW_PBE N 08Apr2002                                                 
   LULTRA =        F    use ultrasoft PP ?                                      
   IUNSCR =        1    unscreen: 0-lin 1-nonlin 2-no                           
   RPACOR =    1.200    partial core radius                                     
   POMASS =   14.001; ZVAL   =    5.000    mass and valenz                      
   RCORE  =    1.500    outmost cutoff radius                                   
   RWIGS  =    1.400; RWIGS  =    0.741    wigner-seitz radius (au A)           
   ENMAX  =  400.000; ENMIN  =  300.000 eV                                      
   ICORE  =        2    local potential                                         
   LCOR   =        T    correct aug charges                                     
   LPAW   =        T    paw PP                                                  
   EAUG   =  627.112                                                            
   DEXC   =    0.000                                                            
   RMAX   =    1.529    core radius for proj-oper                               
   RAUG   =    1.300    factor for augmentation sphere                          
   RDEP   =    1.514    radius for radial grids                                 
   RDEPT  =    1.338    core radius for aug-charge                              
                                                                                
   Atomic configuration                                                         
    4 entries                                                                   
     n  l   j            E        occ.                                          
     1  0  0.50      -384.7179   2.0000                                         
     2  0  0.50       -18.5828   2.0000                                         
     2  1  0.50        -7.0898   3.0000                                         
     3  2  1.50        -6.8029   0.0000                                         
   Description                                                                  
     l       E           TYP  RCUT    TYP  RCUT                                 
     0    -18.5828119     23  1.200                                             
     0    -13.5018863     23  1.200                                             
     1     -7.0897853     23  1.500                                             
     1      9.5240782     23  1.500                                             
     2     -6.8029130      7  1.500                                             
  local pseudopotential read in
  partial core-charges read in
  partial kinetic energy density read in
  atomic valenz-charges read in
  non local Contribution for L=           0  read in
    real space projection operators read in
  non local Contribution for L=           0  read in
    real space projection operators read in
  non local Contribution for L=           1  read in
    real space projection operators read in
  non local Contribution for L=           1  read in
    real space projection operators read in
    PAW grid and wavefunctions read in
 
   number of l-projection  operators is LMAX  =           4
   number of lm-projection operators is LMMAX =           8
 
 POTCAR:    PAW_PBE Fe 06Sep2000                  
   VRHFIN =Fe:  d7 s1                                                           
   LEXCH  = PE                                                                  
   EATOM  =   594.3153 eV,   43.6809 Ry                                         
                                                                                
   TITEL  = PAW_PBE Fe 06Sep2000                                                
   LULTRA =        F    use ultrasoft PP ?                                      
   IUNSCR =        1    unscreen: 0-lin 1-nonlin 2-no                           
   RPACOR =    2.000    partial core radius                                     
   POMASS =   55.847; ZVAL   =    8.000    mass and valenz                      
   RCORE  =    2.300    outmost cutoff radius                                   
   RWIGS  =    2.460; RWIGS  =    1.302    wigner-seitz radius (au A)           
   ENMAX  =  267.882; ENMIN  =  200.911 eV                                      
   RCLOC  =    1.701    cutoff for local pot                                    
   LCOR   =        T    correct aug charges                                     
   LPAW   =        T    paw PP                                                  
   EAUG   =  511.368                                                            
   DEXC   =    0.000                                                            
   RMAX   =    2.356    core radius for proj-oper                               
   RAUG   =    1.300    factor for augmentation sphere                          
   RDEP   =    2.442    radius for radial grids                                 
   RDEPT  =    1.890    core radius for aug-charge                              
                                                                                
   Atomic configuration                                                         
    9 entries                                                                   
     n  l   j            E        occ.                                          
     1  0  0.50     -6993.8440   2.0000                                         
     2  0  0.50      -814.6047   2.0000                                         
     2  1  1.50      -693.3689   6.0000                                         
     3  0  0.50       -89.4732   2.0000                                         
     3  1  1.50       -55.6373   6.0000                                         
     3  2  2.50        -3.8151   7.0000                                         
     4  0  0.50        -4.2551   1.0000                                         
     4  1  1.50        -3.4015   0.0000                                         
     4  3  2.50        -1.3606   0.0000                                         
   Description                                                                  
     l       E           TYP  RCUT    TYP  RCUT                                 
     2     -3.8151135     23  2.300                                             
     2     -5.1756961     23  2.300                                             
     0     -4.2550963     23  2.300                                             
     0      7.2035603     23  2.300                                             
     1     -2.7211652     23  2.300                                             
     1     18.4316424     23  2.300                                             
  local pseudopotential read in
  partial core-charges read in
  partial kinetic energy density read in
  atomic valenz-charges read in
  non local Contribution for L=           2  read in
    real space projection operators read in
  non local Contribution for L=           2  read in
    real space projection operators read in
  non local Contribution for L=           0  read in
    real space projection operators read in
  non local Contribution for L=           0  read in
    real space projection operators read in
  non local Contribution for L=           1  read in
    real space projection operators read in
  non local Contribution for L=           1  read in
    real space projection operators read in
    PAW grid and wavefunctions read in
 
   number of l-projection  operators is LMAX  =           6
   number of lm-projection operators is LMMAX =          18
 
 POTCAR:    PAW_PBE V 08Apr2002                   
   VRHFIN =V: p6 d4 s1                                                          
   LEXCH  = PE                                                                  
   EATOM  =   170.8679 eV,   12.5584 Ry                                         
                                                                                
   TITEL  = PAW_PBE V 08Apr2002                                                 
   LULTRA =        F    use ultrasoft PP ?                                      
   IUNSCR =        1    unscreen: 0-lin 1-nonlin 2-no                           
   RPACOR =    2.000    partial core radius                                     
   POMASS =   50.941; ZVAL   =    5.000    mass and valenz                      
   RCORE  =    2.700    outmost cutoff radius                                   
   RWIGS  =    2.500; RWIGS  =    1.323    wigner-seitz radius (au A)           
   ENMAX  =  192.543; ENMIN  =  144.408 eV                                      
   RCLOC  =    1.779    cutoff for local pot                                    
   LCOR   =        T    correct aug charges                                     
   LPAW   =        T    paw PP                                                  
   EAUG   =  358.662                                                            
   DEXC   =    0.000                                                            
   RMAX   =    2.768    core radius for proj-oper                               
   RAUG   =    1.300    factor for augmentation sphere                          
   RDEP   =    2.762    radius for radial grids                                 
   RDEPT  =    2.240    core radius for aug-charge                              
                                                                                
   Atomic configuration                                                         
    9 entries                                                                   
     n  l   j            E        occ.                                          
     1  0  0.50     -5360.7193   2.0000                                         
     2  0  0.50      -598.4546   2.0000                                         
     2  1  1.50      -499.0155   6.0000                                         
     3  0  0.50       -66.5711   2.0000                                         
     3  1  1.50       -40.5282   6.0000                                         
     3  2  2.50        -2.4291   4.0000                                         
     4  0  0.50        -3.8743   1.0000                                         
     4  1  0.50        -2.7212   0.0000                                         
     4  3  2.50        -1.3606   0.0000                                         
   Description                                                                  
     l       E           TYP  RCUT    TYP  RCUT                                 
     2     -2.4290901     23  2.700                                             
     2     -3.7896727     23  2.700                                             
     0     -3.8742752     23  2.700                                             
     0     27.2116520     23  2.700                                             
     1     -2.7211652     23  2.700                                             
     1     27.2116520     23  2.700                                             
  local pseudopotential read in
  partial core-charges read in
  partial kinetic energy density read in
  atomic valenz-charges read in
  non local Contribution for L=           2  read in
    real space projection operators read in
  non local Contribution for L=           2  read in
    real space projection operators read in
  non local Contribution for L=           0  read in
    real space projection operators read in
  non local Contribution for L=           0  read in
    real space projection operators read in
  non local Contribution for L=           1  read in
    real space projection operators read in
  non local Contribution for L=           1  read in
    real space projection operators read in
    PAW grid and wavefunctions read in
 
   number of l-projection  operators is LMAX  =           6
   number of lm-projection operators is LMMAX =          18
 

 ----------------------------------------------------------------------------- 
|                                                                             |
|  ADVICE TO THIS USER RUNNING 'VASP/VAMP'   (HEAR YOUR MASTER'S VOICE ...):  |
|                                                                             |
|      You have a (more or less) 'large supercell' and for larger cells       |
|      it might be more efficient to use real space projection opertators     |
|      So try LREAL= Auto  in the INCAR   file.                               |
|      Mind:          For very  accurate calculation you might also keep the  |
|      reciprocal projection scheme          (i.e. LREAL=.FALSE.)             |
|                                                                             |
 ----------------------------------------------------------------------------- 

  PAW_PBE C 08Apr2002                   :
 energy of atom  1       EATOM= -147.1560
 kinetic energy error for atom=    0.0076 (will be added to EATOM!!)
  PAW_PBE N 08Apr2002                   :
 energy of atom  2       EATOM= -264.5486
 kinetic energy error for atom=    0.0138 (will be added to EATOM!!)
  PAW_PBE Fe 06Sep2000                  :
 energy of atom  3       EATOM= -594.3153
 kinetic energy error for atom=    0.0026 (will be added to EATOM!!)
  PAW_PBE V 08Apr2002                   :
 energy of atom  4       EATOM= -170.8679
 kinetic energy error for atom=    0.0003 (will be added to EATOM!!)
 
 
 POSCAR:  C  N Fe  V                             
  positions in cartesian coordinates
  No initial velocities read in
 exchange correlation table for  LEXCH =        8
   RHO(1)=    0.500       N(1)  =     2000
   RHO(2)=  100.500       N(2)  =     4000

 VTST: version 3.2, (02/03/18)

 CHAIN: initializing optimizer
 
 OPT: Using VASP Conjugate-Gradient optimizer
 CHAIN: Read ICHAIN            0
 
 POSCAR:  C  N Fe  V                             
  positions in cartesian coordinates
  No initial velocities read in
 


--------------------------------------------------------------------------------------------------------


 ion  position               nearest neighbor table
   1  0.223  0.003  0.499-  19 1.43   4 1.43   3 1.43
   2  0.058  0.102  0.498-   3 1.42   7 1.44  38 1.44
   3  0.112  0.002  0.498-   2 1.42  17 1.43   1 1.43
   4  0.280  0.104  0.500-  21 1.43   1 1.43   5 1.44
   5  0.227  0.206  0.500-   7 1.44   4 1.44   8 1.45
   6  0.059  0.302  0.497-   7 1.43  11 1.43  42 1.44
   7  0.115  0.203  0.498-   6 1.43   2 1.44   5 1.44
   8  0.284  0.308  0.501-  25 1.45   5 1.45   9 1.46
   9  0.226  0.409  0.500-  55 1.38  11 1.45   8 1.46
  10  0.055  0.501  0.497-  46 1.42  14 1.42  11 1.43
  11  0.114  0.404  0.498-   6 1.43  10 1.43   9 1.45
  12  0.217  0.604  0.500-  55 1.39  14 1.40  15 1.42
  13  0.053  0.702  0.497-  18 1.42  50 1.42  14 1.43
  14  0.108  0.603  0.497-  12 1.40  10 1.42  13 1.43
  15  0.273  0.705  0.500-  58 1.38  16 1.41  12 1.42
  16  0.219  0.803  0.499-  15 1.41  19 1.42  18 1.42
  17  0.054  0.902  0.497-  18 1.42   3 1.43  54 1.43
  18  0.108  0.803  0.497-  13 1.42  17 1.42  16 1.42
  19  0.277  0.903  0.500-  16 1.42  32 1.43   1 1.43
  20  0.555  0.995  0.500-  22 1.43  23 1.43  34 1.44
  21  0.391  0.101  0.500-  26 1.43   4 1.43  22 1.45
  22  0.445  0.999  0.500-  32 1.43  20 1.43  21 1.45
  23  0.612  0.096  0.498-  24 1.43  20 1.43  36 1.43
  24  0.558  0.197  0.498-  27 1.42  26 1.43  23 1.43
  25  0.396  0.305  0.501-  56 1.38   8 1.45  26 1.45
  26  0.448  0.201  0.499-  24 1.43  21 1.43  25 1.45
  27  0.616  0.296  0.497-  28 1.41  24 1.42  40 1.42
  28  0.562  0.395  0.499-  56 1.38  27 1.41  29 1.42
  29  0.618  0.495  0.499-  57 1.39  44 1.40  28 1.42
  30  0.609  0.690  0.501-  57 1.38  48 1.45  31 1.46
  31  0.551  0.791  0.502-  33 1.45  34 1.45  30 1.46
  32  0.387  0.898  0.501-  19 1.43  22 1.43  33 1.45
  33  0.439  0.794  0.502-  58 1.38  31 1.45  32 1.45
  34  0.608  0.893  0.500-  52 1.44  20 1.44  31 1.45
  35  0.888  0.999  0.497-  54 1.42  38 1.43  37 1.44
  36  0.723  0.097  0.497-  37 1.42  41 1.43  23 1.43
  37  0.777  0.997  0.498-  36 1.42  52 1.44  35 1.44
  38  0.946  0.100  0.497-  39 1.42  35 1.43   2 1.44
  39  0.891  0.199  0.496-  38 1.42  42 1.43  41 1.43
  40  0.726  0.296  0.495-  45 1.42  41 1.42  27 1.42
  41  0.780  0.197  0.496-  40 1.42  36 1.43  39 1.43
  42  0.948  0.300  0.496-  43 1.43  39 1.43   6 1.44
  43  0.891  0.398  0.495-  46 1.42  45 1.42  42 1.43
  44  0.726  0.496  0.497-  29 1.40  49 1.42  45 1.43
  45  0.781  0.397  0.495-  40 1.42  43 1.42  44 1.43
  46  0.945  0.500  0.496-  10 1.42  43 1.42  47 1.44
  47  0.889  0.599  0.496-  49 1.42  50 1.42  46 1.44
  48  0.721  0.696  0.499-  53 1.43  49 1.43  30 1.45
  49  0.779  0.598  0.497-  47 1.42  44 1.42  48 1.43
  50  0.943  0.701  0.497-  47 1.42  13 1.42  51 1.43
  51  0.887  0.799  0.497-  50 1.43  54 1.43  53 1.44
  52  0.720  0.896  0.499-  53 1.43  37 1.44  34 1.44
  53  0.776  0.797  0.498-  52 1.43  48 1.43  51 1.44
  54  0.943  0.900  0.497-  35 1.42  51 1.43  17 1.43
  55  0.275  0.510  0.503-   9 1.38  12 1.39  59 1.91
  56  0.456  0.400  0.503-  28 1.38  25 1.38  59 1.93
  57  0.561  0.589  0.503-  30 1.38  29 1.39  59 1.91
  58  0.380  0.700  0.504-  15 1.38  33 1.38  59 1.93
  59  0.419  0.550  0.514-  57 1.91  55 1.91  56 1.93  58 1.93  60 1.99
  60  0.431  0.551  0.613-  59 1.99
 
  LATTYP: Found a triclinic cell.
 ALAT       =    17.9935780224
 B/A-ratio  =     0.6847053979
 C/A-ratio  =     1.8830818765
 COS(alpha) =     0.0028351724
 COS(beta)  =     0.5818428677
 COS(gamma) =     0.6963286223
  
  Lattice vectors:
  
 A1 = (  13.1155959294, -12.3186847295,   0.0000000000)
 A2 = (   0.1994959294, -12.3186847295,   0.0000000000)
 A3 = (  27.3733015636,   0.3472213088, -19.9666042264)


Analysis of symmetry for initial positions (statically):
=====================================================================
 Subroutine PRICEL returns:
 Original cell was already a primitive cell.
 

 Routine SETGRP: Setting up the symmetry group for a 
 triclinic supercell.


 Subroutine GETGRP returns: Found  1 space group operations
 (whereof  1 operations were pure point group operations)
 out of a pool of  2 trial point group operations.


The static configuration has the point symmetry C_1 .


Analysis of symmetry for dynamics (positions and initial velocities):
=====================================================================
 Subroutine PRICEL returns:
 Original cell was already a primitive cell.
 

 Routine SETGRP: Setting up the symmetry group for a 
 triclinic supercell.


 Subroutine GETGRP returns: Found  1 space group operations
 (whereof  1 operations were pure point group operations)
 out of a pool of  2 trial point group operations.


The dynamic configuration has the point symmetry C_1 .


Analysis of structural, dynamic, and magnetic symmetry:
=====================================================================
 Subroutine PRICEL returns:
 Original cell was already a primitive cell.
 

 Routine SETGRP: Setting up the symmetry group for a 
 triclinic supercell.


 Subroutine GETGRP returns: Found  1 space group operations
 (whereof  1 operations were pure point group operations)
 out of a pool of  2 trial point group operations.


The magnetic configuration has the point symmetry C_1 .


 Subroutine INISYM returns: Found  1 space group operations
 (whereof  1 operations are pure point group operations),
 and found     1 'primitive' translations

 
 
 KPOINTS: KPOINTS created by Atomic Simulation Env

Automatic generation of k-mesh.
Space group operators:
 irot       det(A)        alpha          n_x          n_y          n_z        tau_x        tau_y        tau_z
    1     1.000000     0.000001     1.000000     0.000000     0.000000     0.000000     0.000000     0.000000
 
 Subroutine IBZKPT returns following result:
 ===========================================
 
 Found      2 irreducible k-points:
 
 Following reciprocal coordinates:
            Coordinates               Weight
  0.250000  0.250000 -0.000000      2.000000
 -0.250000  0.250000  0.000000      2.000000
 
 Following cartesian coordinates:
            Coordinates               Weight
  0.019356  0.020608  0.001852      2.000000
 -0.019356  0.019981 -0.001146      2.000000
 
 
 Subroutine IBZKPT_HF returns following result:
 ==============================================
 
 Found      4 k-points in 1st BZ
 the following      4 k-points will be used (e.g. in the exchange kernel)
 Following reciprocal coordinates:   # in IRBZ
  0.250000  0.250000 -0.000000    0.25000000   1 t-inv F
 -0.250000  0.250000  0.000000    0.25000000   2 t-inv F
 -0.250000 -0.250000  0.000000    0.25000000   1 t-inv T
  0.250000 -0.250000 -0.000000    0.25000000   2 t-inv T


--------------------------------------------------------------------------------------------------------




 Dimension of arrays:
   k-points           NKPTS =      2   k-points in BZ     NKDIM =      4   number of bands    NBANDS=    159
   number of dos      NEDOS =    301   number of ions     NIONS =     60
   non local maximal  LDIM  =      6   non local SUM 2l+1 LMDIM =     18
   total plane-waves  NPLWV = ******
   max r-space proj   IRMAX =      1   max aug-charges    IRDMAX=  24936
   dimension x,y,z NGX =    96 NGY =   90 NGZ =  150
   dimension x,y,z NGXF=   192 NGYF=  180 NGZF=  300
   support grid    NGXF=   192 NGYF=  180 NGZF=  300
   ions per type =              54   4   1   1
   NGX,Y,Z   is equivalent  to a cutoff of  12.36, 12.14, 12.45 a.u.
   NGXF,Y,Z  is equivalent  to a cutoff of  24.71, 24.29, 24.90 a.u.

 SYSTEM =  unknown system                          
 POSCAR =   C  N Fe  V                             

 Startparameter for this run:
   NWRITE =      2    write-flag & timer
   PREC   = accura    normal or accurate (medium, high low for compatibility)
   ISTART =      1    job   : 0-new  1-cont  2-samecut
   ICHARG =      0    charge: 1-file 2-atom 10-const
   ISPIN  =      2    spin polarized calculation?
   LNONCOLLINEAR =      F non collinear calculations
   LSORBIT =      F    spin-orbit coupling
   INIWAV =      1    electr: 0-lowe 1-rand  2-diag
   LASPH  =      T    aspherical Exc in radial PAW
   METAGGA=      F    non-selfconsistent MetaGGA calc.

 Electronic Relaxation 1
   ENCUT  =  500.0 eV  36.75 Ry    6.06 a.u.  23.55 22.46 36.52*2*pi/ulx,y,z
   ENINI  =  500.0     initial cutoff
   ENAUG  =  644.9 eV  augmentation charge cutoff
   NELM   =    250;   NELMIN=  2; NELMDL=  0     # of ELM steps 
   EDIFF  = 0.1E-03   stopping-criterion for ELM
   LREAL  =      F    real-space projection
   NLSPLINE    = F    spline interpolate recip. space projectors
   LCOMPAT=      F    compatible to vasp.4.4
   GGA_COMPAT  = T    GGA compatible to vasp.4.4-vasp.4.6
   LMAXPAW     = -100 max onsite density
   LMAXMIX     =    2 max onsite mixed and CHGCAR
   VOSKOWN=      0    Vosko Wilk Nusair interpolation
   ROPT   =    0.00000   0.00000   0.00000   0.00000
 Ionic relaxation
   EDIFFG = -.3E-01   stopping-criterion for IOM
   NSW    =      0    number of steps for IOM
   NBLOCK =      1;   KBLOCK =      1    inner block; outer block 
   IBRION =     -1    ionic relax: 0-MD 1-quasi-New 2-CG
   NFREE  =      1    steps in history (QN), initial steepest desc. (CG)
   ISIF   =      2    stress and relaxation
   IWAVPR =     10    prediction:  0-non 1-charg 2-wave 3-comb
   ISYM   =      3    0-nonsym 1-usesym 2-fastsym
   LCORR  =      T    Harris-Foulkes like correction to forces

   POTIM  = 0.5000    time-step for ionic-motion
   TEIN   =    0.0    initial temperature
   TEBEG  =    0.0;   TEEND  =   0.0 temperature during run
   SMASS  =  -3.00    Nose mass-parameter (am)
   estimated Nose-frequenzy (Omega)   =  0.10E-29 period in steps =****** mass=  -0.381E-26a.u.
   SCALEE = 1.0000    scale energy and forces
   NPACO  =    256;   APACO  = 16.0  distance and # of slots for P.C.
   PSTRESS=    0.0 pullay stress

  Mass of Ions in am
   POMASS =  12.01 14.00 55.85 50.94
  Ionic Valenz
   ZVAL   =   4.00  5.00  8.00  5.00
  Atomic Wigner-Seitz radii
   RWIGS  =  -1.00 -1.00 -1.00 -1.00
  virtual crystal weights 
   VCA    =   1.00  1.00  1.00  1.00
   NELECT =     249.0000    total number of electrons
   NUPDOWN=      -1.0000    fix difference up-down

 DOS related values:
   EMIN   =  10.00;   EMAX   =-10.00  energy-range for DOS
   EFERMI =   0.00
   ISMEAR =     0;   SIGMA  =   0.10  broadening in eV -4-tet -1-fermi 0-gaus

 Electronic relaxation 2 (details)
   IALGO  =     53    algorithm
   LDIAG  =      T    sub-space diagonalisation (order eigenvalues)
   LSUBROT=      F    optimize rotation matrix (better conditioning)
   TURBO    =      0    0=normal 1=particle mesh
   IRESTART =      0    0=no restart 2=restart with 2 vectors
   NREBOOT  =      0    no. of reboots
   NMIN     =      0    reboot dimension
   EREF     =   0.00    reference energy to select bands
   IMIX   =      4    mixing-type and parameters
     AMIX     =   0.40;   BMIX     =  1.00
     AMIX_MAG =   1.60;   BMIX_MAG =  1.00
     AMIN     =   0.10
     WC   =   100.;   INIMIX=   1;  MIXPRE=   1;  MAXMIX= -45

 Intra band minimization:
   WEIMIN = 0.0000     energy-eigenvalue tresh-hold
   EBREAK =  0.16E-06  absolut break condition
   DEPER  =   0.30     relativ break condition  

   TIME   =   0.20     timestep for ELM

  volume/ion in A,a.u.               =      52.95       357.31
  Fermi-wavevector in a.u.,A,eV,Ry     =   0.700607  1.323956  6.678427  0.490851
  Thomas-Fermi vector in A             =   1.784807
 
 Write flags
   LWAVE        =      T    write WAVECAR
   LDOWNSAMPLE  =      F    k-point downsampling of WAVECAR
   LCHARG       =      T    write CHGCAR
   LVTOT        =      F    write LOCPOT, total local potential
   LVHAR        =      F    write LOCPOT, Hartree potential only
   LELF         =      F    write electronic localiz. function (ELF)
   LORBIT       =     11    0 simple, 1 ext, 2 COOP (PROOUT), +10 PAW based schemes


 Dipole corrections
   LMONO  =      F    monopole corrections only (constant potential shift)
   LDIPOL =      T    correct potential (dipole corrections)
   IDIPOL =      3    1-x, 2-y, 3-z, 4-all directions 
   EPSILON=  1.0000000 bulk dielectric constant

 Exchange correlation treatment:
   GGA     =    PE    GGA type
   LEXCH   =     8    internal setting for exchange type
   VOSKOWN=      0    Vosko Wilk Nusair interpolation
   EXXOEP  =     0    0=HF, 1=EXX-LHF (local Hartree Fock) 2=EXX OEP
   LHFCALC =     T    Hartree Fock is set to
   LSYMGRAD=     F    symmetrize gradient (conserves proper symmetry)
   PRECFOCK=normal    Normal, Fast or Accurate (Low or Medium for compatibility)
   LRHFCALC=     F    long range Hartree Fock
   LRSCOR  =     F    long range correlation only (use DFT for short range part)
   LTHOMAS =     F    Thomas Fermi screening in HF
   LMODELHF=     F    short range full HF, long range fraction AEXX
   ENCUT4O =  -1.0   cutoff for four orbital integrals eV
   LMAXFOCK=     4    L truncation for augmentation on plane wave grid
   LMAXFOCKAE=  -1    L truncation for all-electron charge restoration on plane wave grid
   NMAXFOCKAE=   1    number of basis functions for all-electron charge restoration
   LFOCKAEDFT=     F  apply the AE augmentation even for DFT
   NKREDX  =     1    reduce k-point grid by
   NKREDY  =     1    reduce k-point grid by
   NKREDZ  =     1    reduce k-point grid by
   SHIFTRED=     F    shift reduced grid of Gamma
   HFKIDENT=     F    idential grid for each k-point
   ODDONLY =     F    use only odd q-grid points
   EVENONLY=     F    use only even q-grid points
   HFALPHA =   -1.0000 decay constant for conv. correction
   MCALPHA =    0.0000 extent of test-charge in conv. correction in multipole expansion
   AEXX    =    0.2500 exact exchange contribution
   HFSCREEN=    0.2000 screening length (either q_TF or 0.3 A-1)
   HFSCREENC=   0.2000 screening length for correlation (either q_TF or 0.3 A-1)
   HFRCUT  =    0.0000 spherical cutoff for potential kernel
   ALDAX   =    0.7500 LDA exchange part
   AGGAX   =    0.7500 GGA exchange part
   ALDAC   =    1.0000 LDA correlation
   AGGAC   =    1.0000 GGA correlation
   ENCUTFOCK=  -1.0 apply spherical cutoff to Coloumb kernel
   NBANDSGWLOW=     1    first orbital included in HF term
   NBLOCK_FOCK=    64    blocking factor in FOCK_ACC
 Linear response parameters
   LEPSILON=     F    determine dielectric tensor
   LRPA    =     F    only Hartree local field effects (RPA)
   LNABLA  =     F    use nabla operator in PAW spheres
   LVEL    =     F    velocity operator in full k-point grid
   LINTERFAST=   F  fast interpolation
   KINTER  =     0    interpolate to denser k-point grid
   CSHIFT  =0.1000    complex shift for real part using Kramers Kronig
   OMEGAMAX=  -1.0    maximum frequency
   DEG_THRESHOLD= 0.2000000E-02 threshold for treating states as degnerate
   RTIME   =   -0.100 relaxation time in fs
  (WPLASMAI=    0.000 imaginary part of plasma frequency in eV, 0.658/RTIME)
   DFIELD  = 0.0000000 0.0000000 0.0000000 field for delta impulse in time
 
 Orbital magnetization related:
   ORBITALMAG=     F  switch on orbital magnetization
   LCHIMAG   =     F  perturbation theory with respect to B field
   DQ        =  0.001000  dq finite difference perturbation B field
   LLRAUG    =     F  two centre corrections for induced B field



--------------------------------------------------------------------------------------------------------


 Static calculation
 charge density and potential will be updated during run
 spin polarized calculation
 Conjugate gradient for all bands (Freysoldt, et al. PRB 79, 241103 (2009))
 perform sub-space diagonalisation
    before iterative eigenvector-optimisation
 modified Broyden-mixing scheme, WC =      100.0
 initial mixing is a Kerker type mixing with AMIX =  0.4000 and BMIX =      1.0000
 Hartree-type preconditioning will be used
 using additional bands           34
 reciprocal scheme for non local part
 use partial core corrections
 no Harris-corrections to forces 
 use gradient corrections 
 use of overlap-Matrix (Vanderbilt PP)
 Gauss-broadening in eV      SIGMA  =   0.10


--------------------------------------------------------------------------------------------------------


  energy-cutoff  :      500.00
  volume of cell :     3176.87
      direct lattice vectors                 reciprocal lattice vectors
    12.916100000  0.000000000  0.000000000     0.077422751  0.001253829  0.005997599
    -0.199495929 12.318684729  0.000000000     0.000000000  0.081177498  0.001411685
    -1.541101564 -0.347221309 19.966604226     0.000000000  0.000000000  0.050083629

  length of vectors
    12.916100000 12.320300000 20.029000000     0.077664829  0.081189771  0.050083629


 
 old parameters found on file WAVECAR:
  energy-cutoff  :      500.00
  volume of cell :     3176.87
      direct lattice vectors                 reciprocal lattice vectors
    12.916100000  0.000000000  0.000000000     0.077422751  0.001253829  0.005997599
    -0.199495929 12.318684729  0.000000000     0.000000000  0.081177498  0.001411685
    -1.541101564 -0.347221309 19.966604226     0.000000000  0.000000000  0.050083629

  length of vectors

 
 k-points in units of 2pi/SCALE and weight: KPOINTS created by Atomic Simulation Env
   0.01935569  0.02060783  0.00185232       0.500
  -0.01935569  0.01998092 -0.00114648       0.500
 
 k-points in reciprocal lattice and weights: KPOINTS created by Atomic Simulation Env
   0.25000000  0.25000000 -0.00000000       0.500
  -0.25000000  0.25000000  0.00000000       0.500
 
 position of ions in fractional coordinates (direct lattice) 
   0.22264983  0.00312870  0.49897813
   0.05756550  0.10188022  0.49751623
   0.11151562  0.00208869  0.49796909
   0.27978338  0.10373277  0.49953038
   0.22669588  0.20581263  0.49950401
   0.05908225  0.30191328  0.49700338
   0.11506472  0.20281146  0.49804206
   0.28412679  0.30844512  0.50087505
   0.22620081  0.40900870  0.50045362
   0.05532719  0.50136502  0.49686588
   0.11405524  0.40355667  0.49775288
   0.21737164  0.60390404  0.49974387
   0.05295897  0.70245915  0.49666594
   0.10837407  0.60317730  0.49729117
   0.27305433  0.70467222  0.50047373
   0.21884924  0.80335637  0.49867540
   0.05398889  0.90198200  0.49730571
   0.10838066  0.80260470  0.49726703
   0.27673221  0.90260167  0.49954423
   0.55533387  0.99544472  0.49957284
   0.39053244  0.10063701  0.49960139
   0.44463211  0.99854870  0.49989203
   0.61221811  0.09599203  0.49815506
   0.55821637  0.19654645  0.49816231
   0.39644238  0.30503760  0.50112905
   0.44778578  0.20103775  0.49944631
   0.61583397  0.29574072  0.49693091
   0.56211368  0.39453412  0.49904783
   0.61770922  0.49527945  0.49894205
   0.60923260  0.69022521  0.50113246
   0.55143713  0.79082755  0.50182982
   0.38744086  0.89816114  0.50051742
   0.43920131  0.79424493  0.50227311
   0.60848805  0.89337975  0.50015594
   0.88842504  0.99933395  0.49716074
   0.72310490  0.09698218  0.49714153
   0.77705642  0.99719081  0.49765532
   0.94604723  0.09970090  0.49676442
   0.89118696  0.19896524  0.49591708
   0.72596593  0.29640293  0.49549997
   0.78040187  0.19702721  0.49584810
   0.94770603  0.29973716  0.49578107
   0.89145373  0.39843751  0.49534383
   0.72612564  0.49587503  0.49652495
   0.78129496  0.39653490  0.49523953
   0.94537320  0.49974899  0.49592375
   0.88895435  0.59924473  0.49634203
   0.72075168  0.69553875  0.49856778
   0.77920364  0.59767884  0.49709494
   0.94281518  0.70055046  0.49659522
   0.88668650  0.79926886  0.49719323
   0.71978121  0.89630144  0.49879009
   0.77557598  0.79715046  0.49815603
   0.94320371  0.90004677  0.49718549
   0.27509142  0.50989064  0.50304754
   0.45604089  0.39956267  0.50320179
   0.56091009  0.58942913  0.50308957
   0.38012032  0.69983061  0.50434774
   0.41930471  0.54988012  0.51379254
   0.43094331  0.55125192  0.61349940
 
 position of ions in cartesian coordinates  (Angst):
   2.10616739 -0.13471432  9.96289879
  -0.04352593  1.08228209  9.93370961
   0.67250928 -0.14717551  9.94275170
   2.82318885  1.10440366  9.97392533
   2.11718149  2.36190241  9.97339893
  -0.06305089  3.54660429  9.92346988
   0.67819392  2.32543959  9.94420865
   2.83637717  3.62572372 10.00077398
   2.06878680  4.86468103  9.99235943
  -0.15112956  6.00363519  9.92072447
   0.62555318  4.79845697  9.93843466
   1.91696141  7.26578174  9.97818806
  -0.22152702  8.48091984  9.91673230
   0.51306272  7.25768093  9.92921591
   2.61493696  8.50685978  9.99276087
   1.89790292  9.72314311  9.95685428
  -0.24901445 10.93855674  9.92950631
   0.47340008  9.71437256  9.92873396
   2.62438721 10.94541302  9.97420187
   6.20426808 12.08910730  9.97477321
   4.25414293  1.06624340  9.97534324
   4.77332196 12.12723341  9.98114627
   7.12061281  1.00952550  9.94646488
   6.40304947  2.24822123  9.94660969
   4.28734490  3.58365931 10.00584546
   4.97384225  2.30310224  9.97224687
   7.12935313  3.47059165  9.92202282
   6.41252511  4.68686145  9.96429050
   7.11066747  5.92794811  9.96217850
   6.95891606  8.32866287 10.00591340
   6.19127948  9.56770925 10.01983735
   4.05369722 10.89037355  9.99363318
   4.74026555  9.60965296 10.02868849
   6.91027575 10.83159869  9.98641569
  10.50944842 12.13785503  9.92661176
   8.55420207  1.02207478  9.92622812
   9.07066547 12.11128262  9.93648687
  11.43378632  1.05569674  9.91869860
  10.70670857  2.27879707  9.90178010
   8.55390153  3.47924607  9.89345184
   9.27629017  2.25494703  9.90040269
  11.41682054  3.52022178  9.89906447
  10.67124367  4.73623208  9.89033419
   8.51459093  5.93612416  9.91391719
   9.24896236  4.71283074  9.88825167
  11.34656804  5.98405500  9.90191317
  10.59736297  7.20956631  9.91026494
   8.40220006  8.39500917  9.95470548
   9.17896387  7.19001525  9.92529792
  11.27243446  8.45743183  9.91532015
  10.52685530  9.67330497  9.92726051
   8.34927135 10.86806426  9.95914428
   9.09067958  9.64687483  9.94648430
  11.23674443 10.91475895  9.92710589
   2.67613988  6.10651318 10.04415105
   5.03507354  4.74736422 10.04723105
   6.35186997  7.08630819 10.04499037
   3.99280763  8.44587232 10.07011181
   4.51427629  6.59540011 10.25869231
   4.51066942  6.57767850 12.24949979
 


--------------------------------------------------------------------------------------------------------


 k-point  1 :   0.2500 0.2500-0.0000  plane waves:   80653
 k-point  2 :  -0.2500 0.2500 0.0000  plane waves:   80701

 maximum and minimum number of plane-waves per node :      3401     3329

 maximum number of plane-waves:     80701
 maximum index in each direction: 
   IXMAX=   23   IYMAX=   22   IZMAX=   36
   IXMIN=  -23   IYMIN=  -22   IZMIN=  -36


 parallel 3D FFT for wavefunctions:
    minimum data exchange during FFTs selected (reduces bandwidth)
 parallel 3D FFT for charge:
    minimum data exchange during FFTs selected (reduces bandwidth)


 FFT grid for exact exchange (Hartree Fock) 
  NGX = 72; NGY = 70; NGZ =112

 
 Radii for the augmentation spheres in the non-local exchange
 for species   1 augmentation radius   0.874 (default was   0.699)
       energy cutoff for augmentation   2000.0
 for species   2 augmentation radius   0.886 (default was   0.709)
       energy cutoff for augmentation   2000.0
 for species   3 augmentation radius   1.263 (default was   1.010)
       energy cutoff for augmentation   2000.0
 for species   4 augmentation radius   1.508 (default was   1.206)
       energy cutoff for augmentation   2000.0

 real space projection operators:
  total allocation   :       2816.16 KBytes
  max/ min on nodes  :        199.04         56.62

 Maximum index for augmentation-charges in exchange           71
  SETUP_FOCK is finished

 total amount of memory used by VASP MPI-rank0   208790. kBytes
=======================================================================

   base      :      30000. kBytes
   nonl-proj :       7199. kBytes
   fftplans  :      17540. kBytes
   grid      :      46049. kBytes
   one-center:         93. kBytes
   HF        :         23. kBytes
   nonlr-proj:       2781. kBytes
   wavefun   :     105105. kBytes
 
     INWAV:  cpu time    3.5158: real time    6.0992
 Broyden mixing: mesh for mixing (old mesh)
   NGX = 47   NGY = 45   NGZ = 73
  (NGX  =192   NGY  =180   NGZ  =300)
  gives a total of 154395 points

 charge density for first step will be calculated from the start-wavefunctions


--------------------------------------------------------------------------------------------------------


 Maximum index for augmentation-charges         1105 (set IRDMAX)


--------------------------------------------------------------------------------------------------------


 initial charge from wavefunction
 First call to EWALD:  gamma=   0.121
 Maximum number of real-space cells 3x 3x 2
 Maximum number of reciprocal cells 2x 2x 4

    FEWALD:  cpu time    0.0023: real time    0.0023


--------------------------------------- Iteration      1(   1)  ---------------------------------------


    POTLOK:  cpu time    2.1809: real time    2.1831
    SETDIJ:  cpu time    1.9921: real time    1.9935
    TRIAL :  cpu time  352.3053: real time  352.6409
    CORREC:  cpu time    0.0011: real time    0.0011
    CHARGE:  cpu time    1.3818: real time    1.3910
    --------------------------------------------
      LOOP:  cpu time  357.8965: real time  358.2463

 eigenvalue-minimisations  :     0
 total energy-change (2. order) :-0.6308302E+03  (-0.5323355E+00)
 number of electron     248.9999995 magnetization       2.9886608
 augmentation part       12.2034695 magnetization       1.1323965

 DIPCOR: dipole corrections for dipol
 direction  3 min pos     1,
 dipolmoment           0.023314      0.005253     -0.302055 electrons x Angstroem
 Tr[quadrupol]     -6852.497241

 energy correction for charged system         0.000000 eV
 dipol+quadrupol energy correction           -0.002640 eV
 added-field ion interaction          0.124230 eV  (added to PSCEN)


 Free energy of the ion-electron system (eV)
  ---------------------------------------------------
  alpha Z        PSCENC =       105.42868516
  Ewald energy   TEWEN  =     40403.30420610
  -Hartree energ DENC   =    -48748.38932461
  -exchange      EXHF   =       560.27300988
  -V(xc)+E(xc)   XCENC  =       598.71165107
  PAW double counting   =     26826.59577538   -26825.48705948
  entropy T*S    EENTRO =        -0.00455541
  eigenvalues    EBANDS =     -3205.08070351
  atomic energy  EATOM  =      9653.83120740
  ---------------------------------------------------
  free energy    TOTEN  =      -630.83024628 eV

  energy without entropy =     -630.82569087  energy(sigma->0) =     -630.82796858
  exchange ACFDT corr.  =        -0.07571580  see jH, gK, PRB 81, 115126


--------------------------------------------------------------------------------------------------------




--------------------------------------- Iteration      1(   2)  ---------------------------------------


    POTLOK:  cpu time    2.2000: real time    2.2050
    SETDIJ:  cpu time    1.9901: real time    1.9914
    TRIAL :  cpu time  351.8701: real time  352.2133
    CORREC:  cpu time    0.0009: real time    0.0009
    CHARGE:  cpu time    1.3931: real time    1.3940
    --------------------------------------------
      LOOP:  cpu time  357.4561: real time  357.8088

 eigenvalue-minimisations  :     0
 total energy-change (2. order) :-0.3933439E+00  (-0.3762431E+00)
 number of electron     248.9999995 magnetization       2.9989709
 augmentation part       12.1546581 magnetization       1.1237626

 DIPCOR: dipole corrections for dipol
 direction  3 min pos     1,
 dipolmoment           0.019178      0.004321     -0.248474 electrons x Angstroem
 Tr[quadrupol]     -6852.250267

 energy correction for charged system         0.000000 eV
 dipol+quadrupol energy correction           -0.001786 eV
 added-field ion interaction          0.102193 eV  (added to PSCEN)


 Free energy of the ion-electron system (eV)
  ---------------------------------------------------
  alpha Z        PSCENC =       105.40750160
  Ewald energy   TEWEN  =     40403.30420610
  -Hartree energ DENC   =    -48732.89864054
  -exchange      EXHF   =       560.14207315
  -V(xc)+E(xc)   XCENC  =       598.30790673
  PAW double counting   =     26955.00016198   -26953.81671763
  entropy T*S    EENTRO =        -0.00053318
  eigenvalues    EBANDS =     -3220.49673352
  atomic energy  EATOM  =      9653.83120740
  ---------------------------------------------------
  free energy    TOTEN  =      -631.22359014 eV

  energy without entropy =     -631.22305695  energy(sigma->0) =     -631.22332354
  exchange ACFDT corr.  =        -0.02020556  see jH, gK, PRB 81, 115126


--------------------------------------------------------------------------------------------------------




--------------------------------------- Iteration      1(   3)  ---------------------------------------


    POTLOK:  cpu time    2.2288: real time    2.2302
    SETDIJ:  cpu time    1.9864: real time    1.9875
    TRIAL :  cpu time  351.3180: real time  351.5955
    CORREC:  cpu time    0.0009: real time    0.0009
    CHARGE:  cpu time    1.3953: real time    1.3962
    --------------------------------------------
      LOOP:  cpu time  356.9323: real time  357.2169

 eigenvalue-minimisations  :     0
 total energy-change (2. order) :-0.2750337E+00  (-0.1937741E+00)
 number of electron     248.9999995 magnetization       2.9999238
 augmentation part       12.1335871 magnetization       1.1164070

 DIPCOR: dipole corrections for dipol
 direction  3 min pos     1,
 dipolmoment           0.023426      0.005278     -0.303509 electrons x Angstroem
 Tr[quadrupol]     -6852.162510

 energy correction for charged system         0.000000 eV
 dipol+quadrupol energy correction           -0.002665 eV
 added-field ion interaction          0.124828 eV  (added to PSCEN)


 Free energy of the ion-electron system (eV)
  ---------------------------------------------------
  alpha Z        PSCENC =       105.42925770
  Ewald energy   TEWEN  =     40403.30420610
  -Hartree energ DENC   =    -48718.73834475
  -exchange      EXHF   =       560.01692439
  -V(xc)+E(xc)   XCENC  =       597.90821535
  PAW double counting   =     27114.02343549   -27112.29336575
  entropy T*S    EENTRO =        -0.00004642
  eigenvalues    EBANDS =     -3234.97962655
  atomic energy  EATOM  =      9653.83120740
  ---------------------------------------------------
  free energy    TOTEN  =      -631.49862380 eV

  energy without entropy =     -631.49857737  energy(sigma->0) =     -631.49860058
  exchange ACFDT corr.  =        -0.00162001  see jH, gK, PRB 81, 115126


--------------------------------------------------------------------------------------------------------




--------------------------------------- Iteration      1(   4)  ---------------------------------------


    POTLOK:  cpu time    2.2392: real time    2.2409
    SETDIJ:  cpu time    1.9843: real time    1.9865
    TRIAL :  cpu time  351.1289: real time  351.4866
    CORREC:  cpu time    0.0008: real time    0.0008
    CHARGE:  cpu time    1.3881: real time    1.3888
    --------------------------------------------
      LOOP:  cpu time  356.7425: real time  357.1083

 eigenvalue-minimisations  :     0
 total energy-change (2. order) :-0.1462649E+00  (-0.1133758E+00)
 number of electron     248.9999995 magnetization       2.9999860
 augmentation part       12.1479240 magnetization       1.1136526

 DIPCOR: dipole corrections for dipol
 direction  3 min pos     1,
 dipolmoment           0.026542      0.005980     -0.343880 electrons x Angstroem
 Tr[quadrupol]     -6852.161841

 energy correction for charged system         0.000000 eV
 dipol+quadrupol energy correction           -0.003421 eV
 added-field ion interaction          0.141431 eV  (added to PSCEN)


 Free energy of the ion-electron system (eV)
  ---------------------------------------------------
  alpha Z        PSCENC =       105.44510532
  Ewald energy   TEWEN  =     40403.30420610
  -Hartree energ DENC   =    -48711.95822766
  -exchange      EXHF   =       560.09001803
  -V(xc)+E(xc)   XCENC  =       597.73517007
  PAW double counting   =     27248.82170077   -27246.78633254
  entropy T*S    EENTRO =        -0.00000912
  eigenvalues    EBANDS =     -3242.12768981
  atomic energy  EATOM  =      9653.83120740
  ---------------------------------------------------
  free energy    TOTEN  =      -631.64488874 eV

  energy without entropy =     -631.64487961  energy(sigma->0) =     -631.64488418
  exchange ACFDT corr.  =        -0.00008396  see jH, gK, PRB 81, 115126


--------------------------------------------------------------------------------------------------------




--------------------------------------- Iteration      1(   5)  ---------------------------------------


    POTLOK:  cpu time    2.2336: real time    2.2349
    SETDIJ:  cpu time    1.9944: real time    1.9956
    TRIAL :  cpu time  349.8779: real time  350.1531
    CORREC:  cpu time    0.0008: real time    0.0008
    CHARGE:  cpu time    1.3887: real time    1.3896
    --------------------------------------------
      LOOP:  cpu time  355.4966: real time  355.7777

 eigenvalue-minimisations  :     0
 total energy-change (2. order) :-0.9044538E-01  (-0.7056154E-01)
 number of electron     248.9999995 magnetization       2.9999954
 augmentation part       12.1663515 magnetization       1.1088875

 DIPCOR: dipole corrections for dipol
 direction  3 min pos     1,
 dipolmoment           0.027623      0.006224     -0.357880 electrons x Angstroem
 Tr[quadrupol]     -6852.242113

 energy correction for charged system         0.000000 eV
 dipol+quadrupol energy correction           -0.003705 eV
 added-field ion interaction          0.147189 eV  (added to PSCEN)


 Free energy of the ion-electron system (eV)
  ---------------------------------------------------
  alpha Z        PSCENC =       105.45057913
  Ewald energy   TEWEN  =     40403.30420610
  -Hartree energ DENC   =    -48713.66743016
  -exchange      EXHF   =       560.33175821
  -V(xc)+E(xc)   XCENC  =       597.78950858
  PAW double counting   =     27346.40978502   -27344.49148809
  entropy T*S    EENTRO =        -0.00000309
  eigenvalues    EBANDS =     -3240.69345119
  atomic energy  EATOM  =      9653.83120740
  ---------------------------------------------------
  free energy    TOTEN  =      -631.73533412 eV

  energy without entropy =     -631.73533102  energy(sigma->0) =     -631.73533257
  exchange ACFDT corr.  =        -0.00000640  see jH, gK, PRB 81, 115126


--------------------------------------------------------------------------------------------------------




--------------------------------------- Iteration      1(   6)  ---------------------------------------


    POTLOK:  cpu time    2.2282: real time    2.2292
    SETDIJ:  cpu time    1.9823: real time    1.9834
    TRIAL :  cpu time  350.2683: real time  350.5511
    CORREC:  cpu time    0.0008: real time    0.0008
    CHARGE:  cpu time    1.3893: real time    1.3903
    --------------------------------------------
      LOOP:  cpu time  355.8705: real time  356.1593

 eigenvalue-minimisations  :     0
 total energy-change (2. order) :-0.5792085E-01  (-0.4642711E-01)
 number of electron     248.9999995 magnetization       2.9999981
 augmentation part       12.1730353 magnetization       1.1000614

 DIPCOR: dipole corrections for dipol
 direction  3 min pos     1,
 dipolmoment           0.027752      0.006253     -0.359559 electrons x Angstroem
 Tr[quadrupol]     -6852.338956

 energy correction for charged system         0.000000 eV
 dipol+quadrupol energy correction           -0.003740 eV
 added-field ion interaction          0.147880 eV  (added to PSCEN)


 Free energy of the ion-electron system (eV)
  ---------------------------------------------------
  alpha Z        PSCENC =       105.45123481
  Ewald energy   TEWEN  =     40403.30420610
  -Hartree energ DENC   =    -48718.52630368
  -exchange      EXHF   =       560.60618356
  -V(xc)+E(xc)   XCENC  =       597.93364793
  PAW double counting   =     27411.12428819   -27409.40319944
  entropy T*S    EENTRO =        -0.00000131
  eigenvalues    EBANDS =     -3236.11451674
  atomic energy  EATOM  =      9653.83120740
  ---------------------------------------------------
  free energy    TOTEN  =      -631.79325496 eV

  energy without entropy =     -631.79325366  energy(sigma->0) =     -631.79325431
  exchange ACFDT corr.  =        -0.00000152  see jH, gK, PRB 81, 115126


--------------------------------------------------------------------------------------------------------




--------------------------------------- Iteration      1(   7)  ---------------------------------------


    POTLOK:  cpu time    2.2203: real time    2.2216
    SETDIJ:  cpu time    1.9828: real time    1.9839
    TRIAL :  cpu time  349.0891: real time  349.3960
    CORREC:  cpu time    0.0008: real time    0.0008
    CHARGE:  cpu time    1.3885: real time    1.3896
    --------------------------------------------
      LOOP:  cpu time  354.6825: real time  354.9959

 eigenvalue-minimisations  :     0
 total energy-change (2. order) :-0.3994308E-01  (-0.3309886E-01)
 number of electron     248.9999995 magnetization       2.9999991
 augmentation part       12.1720726 magnetization       1.0890002

 DIPCOR: dipole corrections for dipol
 direction  3 min pos     1,
 dipolmoment           0.027548      0.006207     -0.356907 electrons x Angstroem
 Tr[quadrupol]     -6852.400394

 energy correction for charged system         0.000000 eV
 dipol+quadrupol energy correction           -0.003685 eV
 added-field ion interaction          0.146789 eV  (added to PSCEN)


 Free energy of the ion-electron system (eV)
  ---------------------------------------------------
  alpha Z        PSCENC =       105.45019897
  Ewald energy   TEWEN  =     40403.30420610
  -Hartree energ DENC   =    -48722.25893286
  -exchange      EXHF   =       560.82558315
  -V(xc)+E(xc)   XCENC  =       598.06399653
  PAW double counting   =     27450.96973191   -27449.31545467
  entropy T*S    EENTRO =        -0.00000063
  eigenvalues    EBANDS =     -3232.70373327
  atomic energy  EATOM  =      9653.83120740
  ---------------------------------------------------
  free energy    TOTEN  =      -631.83319804 eV

  energy without entropy =     -631.83319741  energy(sigma->0) =     -631.83319773
  exchange ACFDT corr.  =        -0.00000055  see jH, gK, PRB 81, 115126


--------------------------------------------------------------------------------------------------------




--------------------------------------- Iteration      1(   8)  ---------------------------------------


    POTLOK:  cpu time    2.2162: real time    2.2173
    SETDIJ:  cpu time    1.9813: real time    1.9824
    TRIAL :  cpu time  349.2750: real time  349.5820
    CORREC:  cpu time    0.0008: real time    0.0008
    CHARGE:  cpu time    1.3880: real time    1.3887
    --------------------------------------------
      LOOP:  cpu time  354.8628: real time  355.1756

 eigenvalue-minimisations  :     0
 total energy-change (2. order) :-0.2900576E-01  (-0.2375742E-01)
 number of electron     248.9999995 magnetization       2.9999995
 augmentation part       12.1720197 magnetization       1.0787714

 DIPCOR: dipole corrections for dipol
 direction  3 min pos     1,
 dipolmoment           0.027432      0.006181     -0.355408 electrons x Angstroem
 Tr[quadrupol]     -6852.423794

 energy correction for charged system         0.000000 eV
 dipol+quadrupol energy correction           -0.003654 eV
 added-field ion interaction          0.146173 eV  (added to PSCEN)


 Free energy of the ion-electron system (eV)
  ---------------------------------------------------
  alpha Z        PSCENC =       105.44961323
  Ewald energy   TEWEN  =     40403.30420610
  -Hartree energ DENC   =    -48724.05689890
  -exchange      EXHF   =       560.97412764
  -V(xc)+E(xc)   XCENC  =       598.15161697
  PAW double counting   =     27473.84597325   -27472.17145944
  entropy T*S    EENTRO =        -0.00000033
  eigenvalues    EBANDS =     -3231.19058944
  atomic energy  EATOM  =      9653.83120740
  ---------------------------------------------------
  free energy    TOTEN  =      -631.86220380 eV

  energy without entropy =     -631.86220347  energy(sigma->0) =     -631.86220364
  exchange ACFDT corr.  =        -0.00000024  see jH, gK, PRB 81, 115126


--------------------------------------------------------------------------------------------------------




--------------------------------------- Iteration      1(   9)  ---------------------------------------


    POTLOK:  cpu time    2.2114: real time    2.2130
    SETDIJ:  cpu time    1.9790: real time    1.9800
    TRIAL :  cpu time  349.8616: real time  350.1433
    CORREC:  cpu time    0.0008: real time    0.0007
    CHARGE:  cpu time    1.3886: real time    1.3902
    --------------------------------------------
      LOOP:  cpu time  355.4428: real time  355.7320

 eigenvalue-minimisations  :     0
 total energy-change (2. order) :-0.2127984E-01  (-0.1796071E-01)
 number of electron     248.9999995 magnetization       2.9999997
 augmentation part       12.1753278 magnetization       1.0704444

 DIPCOR: dipole corrections for dipol
 direction  3 min pos     1,
 dipolmoment           0.027545      0.006206     -0.356873 electrons x Angstroem
 Tr[quadrupol]     -6852.427072

 energy correction for charged system         0.000000 eV
 dipol+quadrupol energy correction           -0.003685 eV
 added-field ion interaction          0.146775 eV  (added to PSCEN)


 Free energy of the ion-electron system (eV)
  ---------------------------------------------------
  alpha Z        PSCENC =       105.45018550
  Ewald energy   TEWEN  =     40403.30420610
  -Hartree energ DENC   =    -48724.71860888
  -exchange      EXHF   =       561.07102123
  -V(xc)+E(xc)   XCENC  =       598.20641016
  PAW double counting   =     27486.31538236   -27484.63766030
  entropy T*S    EENTRO =        -0.00000020
  eigenvalues    EBANDS =     -3230.70562688
  atomic energy  EATOM  =      9653.83120740
  ---------------------------------------------------
  free energy    TOTEN  =      -631.88348364 eV

  energy without entropy =     -631.88348344  energy(sigma->0) =     -631.88348354
  exchange ACFDT corr.  =        -0.00000012  see jH, gK, PRB 81, 115126


--------------------------------------------------------------------------------------------------------




--------------------------------------- Iteration      1(  10)  ---------------------------------------


    POTLOK:  cpu time    2.2081: real time    2.2094
    SETDIJ:  cpu time    1.9786: real time    1.9797
    TRIAL :  cpu time  350.1220: real time  350.4059
    CORREC:  cpu time    0.0008: real time    0.0008
    CHARGE:  cpu time    1.3890: real time    1.3899
    --------------------------------------------
      LOOP:  cpu time  355.7003: real time  355.9900

 eigenvalue-minimisations  :     0
 total energy-change (2. order) :-0.1639380E-01  (-0.1400971E-01)
 number of electron     248.9999995 magnetization       2.9999998
 augmentation part       12.1798149 magnetization       1.0631462

 DIPCOR: dipole corrections for dipol
 direction  3 min pos     1,
 dipolmoment           0.027702      0.006241     -0.358906 electrons x Angstroem
 Tr[quadrupol]     -6852.421334

 energy correction for charged system         0.000000 eV
 dipol+quadrupol energy correction           -0.003727 eV
 added-field ion interaction          0.147611 eV  (added to PSCEN)


 Free energy of the ion-electron system (eV)
  ---------------------------------------------------
  alpha Z        PSCENC =       105.45097967
  Ewald energy   TEWEN  =     40403.30420610
  -Hartree energ DENC   =    -48724.85874098
  -exchange      EXHF   =       561.13695268
  -V(xc)+E(xc)   XCENC  =       598.24224041
  PAW double counting   =     27492.67635794   -27491.03757344
  entropy T*S    EENTRO =        -0.00000013
  eigenvalues    EBANDS =     -3230.64550703
  atomic energy  EATOM  =      9653.83120740
  ---------------------------------------------------
  free energy    TOTEN  =      -631.89987744 eV

  energy without entropy =     -631.89987731  energy(sigma->0) =     -631.89987738
  exchange ACFDT corr.  =        -0.00000007  see jH, gK, PRB 81, 115126


--------------------------------------------------------------------------------------------------------




--------------------------------------- Iteration      1(  11)  ---------------------------------------


    POTLOK:  cpu time    2.2052: real time    2.2063
    SETDIJ:  cpu time    1.9791: real time    1.9804
    TRIAL :  cpu time  349.2317: real time  349.5350
    CORREC:  cpu time    0.0008: real time    0.0008
    CHARGE:  cpu time    1.3863: real time    1.3914
    --------------------------------------------
      LOOP:  cpu time  354.8044: real time  355.1185

 eigenvalue-minimisations  :     0
 total energy-change (2. order) :-0.1290963E-01  (-0.1105875E-01)
 number of electron     248.9999995 magnetization       2.9999999
 augmentation part       12.1832275 magnetization       1.0559043

 DIPCOR: dipole corrections for dipol
 direction  3 min pos     1,
 dipolmoment           0.027661      0.006232     -0.358378 electrons x Angstroem
 Tr[quadrupol]     -6852.410150

 energy correction for charged system         0.000000 eV
 dipol+quadrupol energy correction           -0.003716 eV
 added-field ion interaction          0.147394 eV  (added to PSCEN)


 Free energy of the ion-electron system (eV)
  ---------------------------------------------------
  alpha Z        PSCENC =       105.45077345
  Ewald energy   TEWEN  =     40403.30420610
  -Hartree energ DENC   =    -48724.70846902
  -exchange      EXHF   =       561.18544626
  -V(xc)+E(xc)   XCENC  =       598.26795384
  PAW double counting   =     27495.61605556   -27494.02842656
  entropy T*S    EENTRO =        -0.00000009
  eigenvalues    EBANDS =     -3230.83153398
  atomic energy  EATOM  =      9653.83120740
  ---------------------------------------------------
  free energy    TOTEN  =      -631.91278707 eV

  energy without entropy =     -631.91278698  energy(sigma->0) =     -631.91278702
  exchange ACFDT corr.  =        -0.00000004  see jH, gK, PRB 81, 115126


--------------------------------------------------------------------------------------------------------




--------------------------------------- Iteration      1(  12)  ---------------------------------------


    POTLOK:  cpu time    2.2021: real time    2.2036
    SETDIJ:  cpu time    1.9788: real time    1.9800
    TRIAL :  cpu time  348.6624: real time  348.9733
    CORREC:  cpu time    0.0008: real time    0.0008
    CHARGE:  cpu time    1.3887: real time    1.3893
    --------------------------------------------
      LOOP:  cpu time  354.2344: real time  354.5511

 eigenvalue-minimisations  :     0
 total energy-change (2. order) :-0.1029979E-01  (-0.8941433E-02)
 number of electron     248.9999995 magnetization       2.9999999
 augmentation part       12.1850178 magnetization       1.0482289

 DIPCOR: dipole corrections for dipol
 direction  3 min pos     1,
 dipolmoment           0.027389      0.006171     -0.354851 electrons x Angstroem
 Tr[quadrupol]     -6852.395686

 energy correction for charged system         0.000000 eV
 dipol+quadrupol energy correction           -0.003643 eV
 added-field ion interaction          0.145943 eV  (added to PSCEN)


 Free energy of the ion-electron system (eV)
  ---------------------------------------------------
  alpha Z        PSCENC =       105.44939551
  Ewald energy   TEWEN  =     40403.30420610
  -Hartree energ DENC   =    -48724.38508005
  -exchange      EXHF   =       561.22389713
  -V(xc)+E(xc)   XCENC  =       598.28823413
  PAW double counting   =     27496.92239732   -27495.37079082
  entropy T*S    EENTRO =        -0.00000007
  eigenvalues    EBANDS =     -3231.18655350
  atomic energy  EATOM  =      9653.83120740
  ---------------------------------------------------
  free energy    TOTEN  =      -631.92308687 eV

  energy without entropy =     -631.92308679  energy(sigma->0) =     -631.92308683
  exchange ACFDT corr.  =        -0.00000003  see jH, gK, PRB 81, 115126


--------------------------------------------------------------------------------------------------------




--------------------------------------- Iteration      1(  13)  ---------------------------------------


    POTLOK:  cpu time    2.1972: real time    2.1985
    SETDIJ:  cpu time    1.9799: real time    1.9811
    TRIAL :  cpu time  348.6728: real time  348.9579
    CORREC:  cpu time    0.0006: real time    0.0006
    CHARGE:  cpu time    1.3885: real time    1.3892
    --------------------------------------------
      LOOP:  cpu time  354.2404: real time  354.5314

 eigenvalue-minimisations  :     0
 total energy-change (2. order) :-0.8399718E-02  (-0.7352584E-02)
 number of electron     248.9999995 magnetization       2.9999999
 augmentation part       12.1859825 magnetization       1.0404556

 DIPCOR: dipole corrections for dipol
 direction  3 min pos     1,
 dipolmoment           0.027049      0.006094     -0.350454 electrons x Angstroem
 Tr[quadrupol]     -6852.381006

 energy correction for charged system         0.000000 eV
 dipol+quadrupol energy correction           -0.003553 eV
 added-field ion interaction          0.144135 eV  (added to PSCEN)


 Free energy of the ion-electron system (eV)
  ---------------------------------------------------
  alpha Z        PSCENC =       105.44767683
  Ewald energy   TEWEN  =     40403.30420610
  -Hartree energ DENC   =    -48724.02923447
  -exchange      EXHF   =       561.25616674
  -V(xc)+E(xc)   XCENC  =       598.30575881
  PAW double counting   =     27497.75760291   -27496.22374057
  entropy T*S    EENTRO =        -0.00000006
  eigenvalues    EBANDS =     -3231.58113027
  atomic energy  EATOM  =      9653.83120740
  ---------------------------------------------------
  free energy    TOTEN  =      -631.93148658 eV

  energy without entropy =     -631.93148652  energy(sigma->0) =     -631.93148655
  exchange ACFDT corr.  =        -0.00000002  see jH, gK, PRB 81, 115126


--------------------------------------------------------------------------------------------------------




--------------------------------------- Iteration      1(  14)  ---------------------------------------


    POTLOK:  cpu time    2.1949: real time    2.1965
    SETDIJ:  cpu time    1.9808: real time    1.9819
    TRIAL :  cpu time  349.3837: real time  349.7577
    CORREC:  cpu time    0.0007: real time    0.0007
    CHARGE:  cpu time    1.3891: real time    1.3897
    --------------------------------------------
      LOOP:  cpu time  354.9509: real time  355.3307

 eigenvalue-minimisations  :     0
 total energy-change (2. order) :-0.6941344E-02  (-0.6093652E-02)
 number of electron     248.9999995 magnetization       2.9999999
 augmentation part       12.1870553 magnetization       1.0332845

 DIPCOR: dipole corrections for dipol
 direction  3 min pos     1,
 dipolmoment           0.026776      0.006033     -0.346916 electrons x Angstroem
 Tr[quadrupol]     -6852.367890

 energy correction for charged system         0.000000 eV
 dipol+quadrupol energy correction           -0.003482 eV
 added-field ion interaction          0.142680 eV  (added to PSCEN)


 Free energy of the ion-electron system (eV)
  ---------------------------------------------------
  alpha Z        PSCENC =       105.44629317
  Ewald energy   TEWEN  =     40403.30420610
  -Hartree energ DENC   =    -48723.73099539
  -exchange      EXHF   =       561.28434157
  -V(xc)+E(xc)   XCENC  =       598.32180267
  PAW double counting   =     27498.68514860   -27497.16173659
  entropy T*S    EENTRO =        -0.00000006
  eigenvalues    EBANDS =     -3231.91869540
  atomic energy  EATOM  =      9653.83120740
  ---------------------------------------------------
  free energy    TOTEN  =      -631.93842793 eV

  energy without entropy =     -631.93842787  energy(sigma->0) =     -631.93842790
  exchange ACFDT corr.  =        -0.00000002  see jH, gK, PRB 81, 115126


--------------------------------------------------------------------------------------------------------




--------------------------------------- Iteration      1(  15)  ---------------------------------------


    POTLOK:  cpu time    2.1921: real time    2.1934
    SETDIJ:  cpu time    1.9808: real time    1.9818
    TRIAL :  cpu time  347.9328: real time  348.2319
    CORREC:  cpu time    0.0007: real time    0.0007
    CHARGE:  cpu time    1.3914: real time    1.3923
    --------------------------------------------
      LOOP:  cpu time  353.4996: real time  353.8045

 eigenvalue-minimisations  :     0
 total energy-change (2. order) :-0.5778514E-02  (-0.5096671E-02)
 number of electron     248.9999995 magnetization       2.9999999
 augmentation part       12.1884776 magnetization       1.0269870

 DIPCOR: dipole corrections for dipol
 direction  3 min pos     1,
 dipolmoment           0.026570      0.005986     -0.344245 electrons x Angstroem
 Tr[quadrupol]     -6852.356050

 energy correction for charged system         0.000000 eV
 dipol+quadrupol energy correction           -0.003428 eV
 added-field ion interaction          0.141582 eV  (added to PSCEN)


 Free energy of the ion-electron system (eV)
  ---------------------------------------------------
  alpha Z        PSCENC =       105.44524829
  Ewald energy   TEWEN  =     40403.30420610
  -Hartree energ DENC   =    -48723.49183267
  -exchange      EXHF   =       561.30969769
  -V(xc)+E(xc)   XCENC  =       598.33670714
  PAW double counting   =     27499.89336805   -27498.38218177
  entropy T*S    EENTRO =        -0.00000005
  eigenvalues    EBANDS =     -3232.19062662
  atomic energy  EATOM  =      9653.83120740
  ---------------------------------------------------
  free energy    TOTEN  =      -631.94420644 eV

  energy without entropy =     -631.94420639  energy(sigma->0) =     -631.94420642
  exchange ACFDT corr.  =        -0.00000002  see jH, gK, PRB 81, 115126


--------------------------------------------------------------------------------------------------------




--------------------------------------- Iteration      1(  16)  ---------------------------------------


    POTLOK:  cpu time    2.1930: real time    2.1950
    SETDIJ:  cpu time    1.9761: real time    1.9772
    TRIAL :  cpu time  348.6430: real time  348.9317
    CORREC:  cpu time    0.0008: real time    0.0008
    CHARGE:  cpu time    1.3854: real time    1.3861
    --------------------------------------------
      LOOP:  cpu time  354.2008: real time  354.4958

 eigenvalue-minimisations  :     0
 total energy-change (2. order) :-0.4850583E-02  (-0.4289496E-02)
 number of electron     248.9999995 magnetization       2.9999999
 augmentation part       12.1899004 magnetization       1.0212963

 DIPCOR: dipole corrections for dipol
 direction  3 min pos     1,
 dipolmoment           0.026379      0.005943     -0.341770 electrons x Angstroem
 Tr[quadrupol]     -6852.344608

 energy correction for charged system         0.000000 eV
 dipol+quadrupol energy correction           -0.003379 eV
 added-field ion interaction          0.140563 eV  (added to PSCEN)


 Free energy of the ion-electron system (eV)
  ---------------------------------------------------
  alpha Z        PSCENC =       105.44427915
  Ewald energy   TEWEN  =     40403.30420610
  -Hartree energ DENC   =    -48723.27589161
  -exchange      EXHF   =       561.33290261
  -V(xc)+E(xc)   XCENC  =       598.35042106
  PAW double counting   =     27501.34256335   -27499.84649244
  entropy T*S    EENTRO =        -0.00000005
  eigenvalues    EBANDS =     -3232.43225260
  atomic energy  EATOM  =      9653.83120740
  ---------------------------------------------------
  free energy    TOTEN  =      -631.94905702 eV

  energy without entropy =     -631.94905698  energy(sigma->0) =     -631.94905700
  exchange ACFDT corr.  =        -0.00000002  see jH, gK, PRB 81, 115126


--------------------------------------------------------------------------------------------------------




--------------------------------------- Iteration      1(  17)  ---------------------------------------


    POTLOK:  cpu time    2.1842: real time    2.1860
    SETDIJ:  cpu time    1.9830: real time    1.9842
    TRIAL :  cpu time  348.1640: real time  348.4529
    CORREC:  cpu time    0.0006: real time    0.0006
    CHARGE:  cpu time    1.3876: real time    1.3883
    --------------------------------------------
      LOOP:  cpu time  353.7228: real time  354.0181

 eigenvalue-minimisations  :     0
 total energy-change (2. order) :-0.4091849E-02  (-0.3624967E-02)
 number of electron     248.9999995 magnetization       2.9999999
 augmentation part       12.1909884 magnetization       1.0158850

 DIPCOR: dipole corrections for dipol
 direction  3 min pos     1,
 dipolmoment           0.026180      0.005899     -0.339188 electrons x Angstroem
 Tr[quadrupol]     -6852.333259

 energy correction for charged system         0.000000 eV
 dipol+quadrupol energy correction           -0.003328 eV
 added-field ion interaction          0.139502 eV  (added to PSCEN)


 Free energy of the ion-electron system (eV)
  ---------------------------------------------------
  alpha Z        PSCENC =       105.44326821
  Ewald energy   TEWEN  =     40403.30420610
  -Hartree energ DENC   =    -48723.05965888
  -exchange      EXHF   =       561.35400694
  -V(xc)+E(xc)   XCENC  =       598.36282768
  PAW double counting   =     27502.86520998   -27501.38367860
  entropy T*S    EENTRO =        -0.00000005
  eigenvalues    EBANDS =     -3232.67053766
  atomic energy  EATOM  =      9653.83120740
  ---------------------------------------------------
  free energy    TOTEN  =      -631.95314887 eV

  energy without entropy =     -631.95314883  energy(sigma->0) =     -631.95314885
[...]


 VOLUME and BASIS-vectors are now :
 -----------------------------------------------------------------------------
  energy-cutoff  :      500.00
  volume of cell :     3176.87
      direct lattice vectors                 reciprocal lattice vectors
    12.916100000  0.000000000  0.000000000     0.077422751  0.001253829  0.005997599
    -0.199495929 12.318684729  0.000000000     0.000000000  0.081177498  0.001411685
    -1.541101564 -0.347221309 19.966604226     0.000000000  0.000000000  0.050083629

  length of vectors
    12.916100000 12.320300000 20.029000000     0.077664829  0.081189771  0.050083629


 FORCES acting on ions:
    Electron-Ion                     Ewald-Force                    Non-Local-Force
 -----------------------------------------------------------------------------------------------
   0.373E+01 -.720E+01 0.405E+01   -.397E+01 0.754E+01 -.409E+01   0.226E+00 -.272E+00 0.401E-01
   0.371E+01 -.293E+01 0.631E+01   -.365E+01 0.293E+01 -.633E+01   -.500E-01 -.894E-02 0.221E-01
   0.166E+01 -.378E+01 0.541E+01   -.172E+01 0.380E+01 -.540E+01   0.673E-01 -.207E-01 -.754E-02
   0.484E+01 -.122E+01 0.227E+01   -.499E+01 0.125E+01 -.225E+01   0.146E+00 -.975E-01 -.284E-01
   0.371E+01 0.611E+01 0.325E+01   -.376E+01 -.590E+01 -.328E+01   0.943E-02 -.166E+00 0.367E-01
   0.539E+01 0.923E+01 0.110E+02   -.536E+01 -.952E+01 -.111E+02   -.405E-01 0.331E+00 0.326E-01
   0.974E+00 0.769E+01 0.589E+01   -.853E+00 -.784E+01 -.588E+01   -.729E-01 0.108E+00 -.141E-01
   0.133E+02 0.216E+02 0.388E+01   -.134E+02 -.217E+02 -.393E+01   0.431E-01 0.483E-02 0.543E-01
   0.246E+02 0.539E+02 0.125E+02   -.259E+02 -.570E+02 -.127E+02   0.129E+01 0.329E+01 0.162E+00
   0.145E+02 0.975E+01 0.141E+02   -.149E+02 -.993E+01 -.141E+02   0.349E+00 0.180E+00 -.180E-01
   0.121E+02 0.167E+02 0.136E+02   -.124E+02 -.170E+02 -.137E+02   0.213E+00 0.253E+00 0.228E-01
   0.467E+02 -.235E+02 0.231E+02   -.486E+02 0.260E+02 -.234E+02   0.178E+01 -.263E+01 0.272E+00
   0.130E+02 -.531E+01 0.154E+02   -.131E+02 0.571E+01 -.155E+02   0.139E+00 -.312E+00 0.305E-01
   0.279E+02 -.637E+01 0.184E+02   -.283E+02 0.666E+01 -.184E+02   0.498E+00 -.260E+00 0.411E-01
   0.457E+02 -.318E+02 0.206E+02   -.489E+02 0.321E+02 -.209E+02   0.328E+01 -.143E+00 0.318E+00
   0.180E+02 -.234E+02 0.139E+02   -.185E+02 0.237E+02 -.140E+02   0.516E+00 -.317E+00 0.642E-01
   0.697E+01 -.936E+01 0.871E+01   -.706E+01 0.950E+01 -.874E+01   0.561E-01 -.120E+00 0.331E-01
   0.973E+01 -.128E+02 0.132E+02   -.101E+02 0.128E+02 -.132E+02   0.373E+00 -.776E-01 0.121E-01
   0.375E+01 -.218E+02 0.511E+01   -.379E+01 0.222E+02 -.508E+01   0.881E-01 -.430E+00 -.318E-01
   -.483E+01 0.134E+01 0.215E+01   0.499E+01 -.138E+01 -.212E+01   -.146E+00 0.992E-01 -.266E-01
   0.680E+00 0.830E+01 0.418E+01   -.913E+00 -.844E+01 -.422E+01   0.234E+00 0.154E+00 0.366E-01
   -.683E+00 -.811E+01 0.322E+01   0.927E+00 0.825E+01 -.327E+01   -.234E+00 -.153E+00 0.397E-01
   -.367E+01 0.735E+01 0.714E+01   0.392E+01 -.769E+01 -.718E+01   -.224E+00 0.274E+00 0.404E-01
   -.377E+01 0.219E+02 0.104E+02   0.383E+01 -.223E+02 -.103E+02   -.929E-01 0.428E+00 -.246E-01
   0.305E+02 0.512E+02 0.978E+01   -.326E+02 -.538E+02 -.991E+01   0.227E+01 0.283E+01 0.154E+00
   0.698E+01 0.181E+02 0.830E+01   -.705E+01 -.185E+02 -.832E+01   0.109E+00 0.303E+00 0.134E-01
   -.179E+02 0.233E+02 0.207E+02   0.185E+02 -.236E+02 -.208E+02   -.516E+00 0.314E+00 0.742E-01
   -.456E+02 0.315E+02 0.266E+02   0.488E+02 -.317E+02 -.269E+02   -.328E+01 0.136E+00 0.344E+00
   -.466E+02 0.231E+02 0.264E+02   0.485E+02 -.256E+02 -.267E+02   -.178E+01 0.262E+01 0.314E+00
   -.245E+02 -.541E+02 0.927E+01   0.257E+02 0.572E+02 -.939E+01   -.129E+01 -.328E+01 0.138E+00
   -.133E+02 -.216E+02 0.105E+00   0.133E+02 0.217E+02 -.150E+00   -.413E-01 -.521E-02 0.412E-01
   -.702E+01 -.180E+02 0.433E+01   0.710E+01 0.184E+02 -.435E+01   -.112E+00 -.302E+00 0.614E-02
   -.304E+02 -.512E+02 0.561E+01   0.326E+02 0.539E+02 -.575E+01   -.227E+01 -.282E+01 0.162E+00
   -.361E+01 -.603E+01 0.812E+00   0.366E+01 0.583E+01 -.853E+00   -.852E-02 0.167E+00 0.354E-01
   0.299E+01 -.351E+01 0.640E+01   -.300E+01 0.359E+01 -.642E+01   0.160E-01 -.348E-01 0.133E-01
   -.166E+01 0.382E+01 0.854E+01   0.174E+01 -.383E+01 -.853E+01   -.653E-01 0.186E-01 -.108E-03
   -.366E+01 0.298E+01 0.556E+01   0.361E+01 -.297E+01 -.558E+01   0.546E-01 0.791E-02 0.185E-01
   -.299E+01 0.354E+01 0.801E+01   0.301E+01 -.361E+01 -.802E+01   -.116E-01 0.351E-01 0.188E-01
   -.183E+01 0.367E+01 0.121E+02   0.183E+01 -.373E+01 -.121E+02   -.282E-01 0.707E-01 0.163E-01
   -.972E+01 0.128E+02 0.200E+02   0.101E+02 -.128E+02 -.200E+02   -.373E+00 0.785E-01 0.225E-01
   -.695E+01 0.941E+01 0.142E+02   0.705E+01 -.955E+01 -.142E+02   -.566E-01 0.121E+00 0.347E-01
   -.363E+01 0.740E+01 0.138E+02   0.370E+01 -.751E+01 -.138E+02   -.450E-01 0.963E-01 0.373E-01
   -.398E+01 0.717E+01 0.163E+02   0.404E+01 -.717E+01 -.163E+02   -.496E-01 0.324E-01 0.103E-01
   -.279E+02 0.623E+01 0.212E+02   0.283E+02 -.652E+01 -.212E+02   -.498E+00 0.259E+00 0.477E-01
   -.129E+02 0.522E+01 0.208E+02   0.131E+02 -.563E+01 -.208E+02   -.136E+00 0.312E+00 0.354E-01
   0.362E+01 -.488E+00 0.144E+02   -.372E+01 0.481E+00 -.144E+02   0.163E+00 -.489E-01 0.267E-01
   -.362E+01 0.471E+00 0.126E+02   0.374E+01 -.463E+00 -.126E+02   -.165E+00 0.516E-01 0.223E-01
   -.121E+02 -.168E+02 0.100E+02   0.124E+02 0.171E+02 -.101E+02   -.209E+00 -.251E+00 0.120E-01
   -.145E+02 -.984E+01 0.127E+02   0.149E+02 0.100E+02 -.127E+02   -.351E+00 -.179E+00 -.264E-01
   0.398E+01 -.722E+01 0.114E+02   -.404E+01 0.723E+01 -.114E+02   0.524E-01 -.320E-01 0.288E-02
   0.360E+01 -.741E+01 0.817E+01   -.366E+01 0.752E+01 -.820E+01   0.455E-01 -.963E-01 0.295E-01
   -.940E+00 -.766E+01 0.291E+01   0.828E+00 0.782E+01 -.289E+01   0.731E-01 -.107E+00 -.196E-01
   -.536E+01 -.927E+01 0.634E+01   0.534E+01 0.956E+01 -.637E+01   0.414E-01 -.328E+00 0.263E-01
   0.184E+01 -.367E+01 0.708E+01   -.182E+01 0.373E+01 -.708E+01   0.281E-01 -.715E-01 0.614E-02
   0.118E+02 0.376E+02 0.183E+02   0.755E+01 -.367E+02 -.177E+02   -.184E+02 -.885E+00 -.638E+00
   0.281E+02 0.283E+02 0.156E+02   -.377E+02 -.109E+02 -.149E+02   0.902E+01 -.165E+02 -.702E+00
   -.117E+02 -.380E+02 0.172E+02   -.773E+01 0.371E+02 -.165E+02   0.184E+02 0.897E+00 -.695E+00
   -.282E+02 -.287E+02 0.970E+01   0.378E+02 0.113E+02 -.903E+01   -.903E+01 0.165E+02 -.650E+00
   -.337E+00 -.654E+00 -.378E+02   0.384E+00 0.754E+00 0.283E+02   -.349E-01 -.753E-01 0.672E+01
   -.216E+00 0.215E+01 -.604E+03   0.241E+00 -.213E+01 0.604E+03   -.182E-01 -.326E-01 0.229E+01
 -----------------------------------------------------------------------------------------------
   0.372E+00 0.175E+00 -.959E+01   -.377E-12 -.185E-12 0.227E-12   -.337E-01 -.926E-01 0.905E+01
 
 
 POSITION                                       TOTAL-FORCE (eV/Angst)
 -----------------------------------------------------------------------------------
      2.10617     -0.13471      9.96290        -0.010259      0.052880     -0.003034
     -0.04353      1.08228      9.93371         0.004090     -0.019395      0.000978
      0.67251     -0.14718      9.94275        -0.007847      0.000285      0.000459
      2.82319      1.10440      9.97393         0.000763     -0.071860     -0.006529
      2.11718      2.36190      9.97340        -0.047469      0.020442     -0.000396
     -0.06305      3.54660      9.92347        -0.018951      0.058416      0.004825
      0.67819      2.32544      9.94421         0.034375     -0.033532     -0.000840
      2.83638      3.62572     10.00077        -0.022340     -0.079125      0.004535
      2.06879      4.86468      9.99236         0.076806      0.394745      0.037765
     -0.15113      6.00364      9.92072        -0.059704      0.018174      0.002201
      0.62555      4.79846      9.93843        -0.029649     -0.062544      0.003942
      1.91696      7.26578      9.97819        -0.016481     -0.222161      0.032716
     -0.22153      8.48092      9.91673        -0.001702      0.080951      0.008831
      0.51306      7.25768      9.92922         0.140495      0.007793      0.024122
      2.61494      8.50686      9.99276         0.242519      0.074127      0.042135
      1.89790      9.72314      9.95685         0.002399     -0.069626      0.017112
     -0.24901     10.93856      9.92951        -0.034250      0.009460      0.004867
      0.47340      9.71437      9.92873        -0.030590     -0.061841      0.008704
      2.62439     10.94541      9.97420         0.043771     -0.053741     -0.007457
      6.20427     12.08911      9.97477        -0.001166      0.073615     -0.005855
      4.25414      1.06624      9.97534         0.004206      0.029304      0.000206
      4.77332     12.12723      9.98115        -0.003283     -0.031038     -0.003121
      7.12061      1.00953      9.94646         0.010674     -0.052138      0.004462
      6.40305      2.24822      9.94661        -0.047129      0.052446      0.005598
      4.28734      3.58366     10.00585         0.268052      0.322815      0.028844
      4.97384      2.30310      9.97225         0.041118     -0.084492     -0.003930
      7.12935      3.47059      9.92202        -0.001033      0.066485      0.030000
      6.41253      4.68686      9.96429        -0.241503     -0.077347      0.057247
      7.11067      5.92795      9.96218         0.015153      0.221410      0.043242
      6.95892      8.32866     10.00591        -0.076034     -0.396004      0.021397
      6.19128      9.56771     10.01984         0.022903      0.077317     -0.005010
      4.05370     10.89037      9.99363        -0.042247      0.083234     -0.014316
      4.74027      9.60965     10.02869        -0.268184     -0.321521      0.019814
      6.91028     10.83160      9.98642         0.046823     -0.021217     -0.006201
     10.50945     12.13786      9.92661         0.004301      0.029530     -0.004492
      8.55420      1.02207      9.92623         0.009393     -0.001320      0.006244
      9.07067     12.11128      9.93649        -0.000068      0.017844     -0.002974
     11.43379      1.05570      9.91870        -0.001074     -0.029432      0.002964
     10.70671      2.27880      9.90178        -0.038564      0.010428      0.009543
      8.55390      3.47925      9.89345         0.031623      0.063554      0.017374
      9.27629      2.25495      9.90040         0.032924     -0.007822      0.014129
     11.41682      3.52022      9.89906         0.012257     -0.005007      0.010542
     10.67124      4.73623      9.89033         0.004284      0.030135      0.008234
      8.51459      5.93612      9.91392        -0.141571     -0.010366      0.027884
      9.24896      4.71283      9.88825         0.004466     -0.081598      0.014235
     11.34657      5.98406      9.90191         0.063321     -0.067837      0.003269
     10.59736      7.20957      9.91026        -0.066628      0.068270     -0.001919
      8.40220      8.39501      9.95471         0.030909      0.064031     -0.005007
      9.17896      7.19002      9.92530         0.056028     -0.019467     -0.005000
     11.27243      8.45743      9.91532        -0.003109     -0.030280     -0.001367
     10.52686      9.67330      9.92726        -0.013299      0.006473     -0.001113
      8.34927     10.86806      9.95914        -0.036472      0.034620     -0.006200
      9.09068      9.64687      9.94648         0.018351     -0.055717     -0.003995
     11.23674     10.91476      9.92711         0.037493     -0.010321     -0.002545
      2.67614      6.10651     10.04415        -0.612124     -0.129575     -0.014877
      5.03507      4.74736     10.04723         0.242939     -0.613205     -0.023384
      6.35187      7.08631     10.04499         0.608498      0.132843     -0.022059
      3.99281      8.44587     10.07011        -0.243740      0.614283     -0.024023
      4.51428      6.59540     10.25869         0.001401      0.003858     -0.798567
      4.51067      6.57768     12.24950         0.004132     -0.000239      0.455791
 -----------------------------------------------------------------------------------
    total drift:                                0.335875      0.074763      0.090827


--------------------------------------------------------------------------------------------------------



  FREE ENERGIE OF THE ION-ELECTRON SYSTEM (eV)
  ---------------------------------------------------
  free  energy   TOTEN  =      -631.97810997 eV

  energy  without entropy=     -631.97810988  energy(sigma->0) =     -631.97810992
 


--------------------------------------------------------------------------------------------------------


    POTLOK:  cpu time    4.1522: real time    4.1541


--------------------------------------------------------------------------------------------------------


 stress matrix after NEB project (eV)
    -47.19515     -1.88358      0.00047
     -1.88354    -45.95949     -0.00012
      0.00047     -0.00010      0.39648
  FORCES: max atom, RMS     0.798578    0.245322
  FORCE total and by dimension    1.900258    0.798567
  Stress total and by dimension   65.931098   47.195151
 writing wavefunctions
     LOOP+:  cpu time17088.4768: real time17107.0676
    4ORBIT:  cpu time    0.0000: real time    0.0000
 


 total charge     
 
# of ion       s       p       d       tot
------------------------------------------
    1        0.863   1.763   0.000   2.626
    2        0.864   1.757   0.000   2.621
    3        0.865   1.772   0.000   2.637
    4        0.862   1.756   0.000   2.618
    5        0.857   1.730   0.000   2.587
    6        0.864   1.761   0.000   2.626
    7        0.861   1.759   0.000   2.620
    8        0.847   1.741   0.000   2.588
    9        0.852   1.699   0.000   2.550
   10        0.869   1.776   0.000   2.644
   11        0.862   1.760   0.000   2.622
   12        0.866   1.768   0.000   2.633
   13        0.868   1.787   0.000   2.655
   14        0.872   1.795   0.000   2.667
   15        0.866   1.764   0.000   2.631
   16        0.871   1.790   0.000   2.661
   17        0.866   1.771   0.000   2.638
   18        0.869   1.787   0.000   2.656
   19        0.867   1.765   0.000   2.632
   20        0.862   1.755   0.000   2.618
   21        0.861   1.751   0.000   2.612
   22        0.861   1.751   0.000   2.612
   23        0.863   1.762   0.000   2.626
   24        0.867   1.765   0.000   2.632
   25        0.852   1.698   0.000   2.550
   26        0.861   1.756   0.000   2.617
   27        0.870   1.790   0.000   2.661
   28        0.866   1.764   0.000   2.631
   29        0.866   1.767   0.000   2.633
   30        0.852   1.698   0.000   2.550
   31        0.847   1.741   0.000   2.588
   32        0.861   1.755   0.000   2.617
   33        0.852   1.698   0.000   2.550
   34        0.857   1.730   0.000   2.587
   35        0.864   1.763   0.000   2.627
   36        0.865   1.772   0.000   2.637
   37        0.864   1.757   0.000   2.621
   38        0.864   1.763   0.000   2.627
   39        0.866   1.770   0.000   2.636
   40        0.869   1.787   0.000   2.656
   41        0.866   1.771   0.000   2.637
   42        0.864   1.764   0.000   2.629
   43        0.870   1.777   0.000   2.647
   44        0.872   1.794   0.000   2.667
   45        0.868   1.787   0.000   2.654
   46        0.866   1.782   0.000   2.648
   47        0.866   1.782   0.000   2.648
   48        0.862   1.760   0.000   2.622
   49        0.869   1.776   0.000   2.644
   50        0.870   1.777   0.000   2.647
   51        0.865   1.765   0.000   2.629
   52        0.861   1.759   0.000   2.620
   53        0.864   1.762   0.000   2.626
   54        0.866   1.770   0.000   2.636
   55        1.228   2.665   0.000   3.893
   56        1.231   2.660   0.000   3.890
   57        1.228   2.665   0.000   3.893
   58        1.231   2.659   0.000   3.890
   59        0.500   0.673   6.598   7.771
   60        0.455   0.129   3.648   4.231
--------------------------------------------------
tot         52.502 106.570  10.245 169.317
 


 magnetization (x)
 
# of ion       s       p       d       tot
------------------------------------------
    1       -0.000  -0.000   0.000  -0.000
    2        0.000   0.000   0.000   0.000
    3        0.000   0.001   0.000   0.001
    4        0.000   0.000   0.000   0.000
    5        0.000   0.000   0.000   0.000
    6        0.000   0.001   0.000   0.001
    7       -0.000   0.000   0.000   0.000
    8       -0.000  -0.001   0.000  -0.001
    9        0.001   0.007   0.000   0.007
   10        0.000   0.002   0.000   0.002
   11       -0.000  -0.001   0.000  -0.001
   12        0.000   0.002   0.000   0.002
   13       -0.000  -0.000   0.000  -0.000
   14        0.000   0.001   0.000   0.001
   15        0.000   0.004   0.000   0.004
   16        0.000  -0.000   0.000  -0.000
   17       -0.000  -0.000   0.000  -0.000
   18        0.000   0.001   0.000   0.001
   19        0.000   0.002   0.000   0.003
   20        0.000   0.000   0.000   0.000
   21        0.000   0.001   0.000   0.001
   22        0.000   0.001   0.000   0.001
   23       -0.000  -0.000   0.000  -0.000
   24        0.000   0.003   0.000   0.003
   25        0.001   0.007   0.000   0.008
   26       -0.000  -0.001   0.000  -0.001
   27        0.000  -0.000   0.000  -0.000
   28        0.000   0.004   0.000   0.004
   29        0.000   0.002   0.000   0.002
   30        0.001   0.006   0.000   0.007
   31       -0.000  -0.001   0.000  -0.001
   32       -0.000  -0.001   0.000  -0.001
   33        0.001   0.007   0.000   0.007
   34        0.000   0.000   0.000   0.000
   35        0.000   0.000   0.000   0.000
   36        0.000   0.001   0.000   0.001
   37        0.000   0.000   0.000   0.000
   38       -0.000   0.000   0.000   0.000
   39        0.000   0.000   0.000   0.000
   40        0.000   0.001   0.000   0.001
   41       -0.000  -0.000   0.000  -0.000
   42       -0.000   0.000   0.000   0.000
   43        0.000   0.001   0.000   0.001
   44        0.000   0.001   0.000   0.001
   45       -0.000  -0.000   0.000  -0.000
   46       -0.000  -0.000   0.000  -0.000
   47       -0.000  -0.000   0.000  -0.000
   48       -0.000  -0.001   0.000  -0.001
   49        0.000   0.002   0.000   0.002
   50        0.000   0.001   0.000   0.001
   51        0.000   0.000   0.000   0.000
   52        0.000   0.000   0.000   0.000
   53        0.000   0.001   0.000   0.001
   54        0.000   0.000   0.000   0.000
   55        0.004   0.010   0.000   0.014
   56        0.004   0.008   0.000   0.012
   57        0.004   0.010   0.000   0.014
   58        0.004   0.008   0.000   0.012
   59        0.002   0.026  -1.212  -1.185
   60        0.288  -0.015   3.119   3.392
--------------------------------------------------
tot          0.308   0.101   1.907   2.316
 

 total amount of memory used by VASP MPI-rank0   233018. kBytes
=======================================================================

   base      :      30000. kBytes
   nonl-proj :       7199. kBytes
   fftplans  :      17540. kBytes
   grid      :      46049. kBytes
   one-center:         93. kBytes
   HF        :         23. kBytes
   nonlr-proj:      27009. kBytes
   wavefun   :     105105. kBytes
 
  
  
 General timing and accounting informations for this job:
 ========================================================
  
                  Total CPU time used (sec):    17139.314
                            User time (sec):    17115.214
                          System time (sec):       24.101
                         Elapsed time (sec):    17164.266
  
                   Maximum memory used (kb):      469924.
                   Average memory used (kb):           0.
  
                          Minor page faults:       999481
                          Major page faults:          220
                 Voluntary context switches:       236945
