 vasp.5.4.4.18Apr17-6-g9f103f2a35 (build Feb 25 2019 10:51:38) complex          
  
 executed on             LinuxIFC date 2021.06.16  13:32:42
 running on   48 total cores
 distrk:  each k-point on   24 cores,    2 groups
 distr:  one band on NCORES_PER_BAND=  24 cores,    1 groups


--------------------------------------------------------------------------------------------------------


 INCAR:
 POTCAR:    PAW_PBE C 08Apr2002                   
 POTCAR:    PAW_PBE N 08Apr2002                   
 POTCAR:    PAW_PBE Cu 22Jun2005                  
 POTCAR:    PAW_PBE Fe 06Sep2000                  

 ----------------------------------------------------------------------------- 
|                                                                             |
|           W    W    AA    RRRRR   N    N  II  N    N   GGGG   !!!           |
|           W    W   A  A   R    R  NN   N  II  NN   N  G    G  !!!           |
|           W    W  A    A  R    R  N N  N  II  N N  N  G       !!!           |
|           W WW W  AAAAAA  RRRRR   N  N N  II  N  N N  G  GGG   !            |
|           WW  WW  A    A  R   R   N   NN  II  N   NN  G    G                |
|           W    W  A    A  R    R  N    N  II  N    N   GGGG   !!!           |
|                                                                             |
|      For optimal performance we recommend to set                            |
|        NCORE= 4 - approx SQRT( number of cores)                             |
|      NCORE specifies how many cores store one orbital (NPAR=cpu/NCORE).     |
|      This setting can  greatly improve the performance of VASP for DFT.     |
|      The default,   NCORE=1            might be grossly inefficient         |
|      on modern multi-core architectures or massively parallel machines.     |
|      Do your own testing !!!!                                               |
|      Unfortunately you need to use the default for GW and RPA calculations. |
|      (for HF NCORE is supported but not extensively tested yet)             |
|                                                                             |
 ----------------------------------------------------------------------------- 


 ----------------------------------------------------------------------------- 
|                                                                             |
|           W    W    AA    RRRRR   N    N  II  N    N   GGGG   !!!           |
|           W    W   A  A   R    R  NN   N  II  NN   N  G    G  !!!           |
|           W    W  A    A  R    R  N N  N  II  N N  N  G       !!!           |
|           W WW W  AAAAAA  RRRRR   N  N N  II  N  N N  G  GGG   !            |
|           WW  WW  A    A  R   R   N   NN  II  N   NN  G    G                |
|           W    W  A    A  R    R  N    N  II  N    N   GGGG   !!!           |
|                                                                             |
|      You have enabled k-point parallelism (KPAR>1).                         |
|      This developmental code was originally  written by Paul Kent at ORNL,  |
|      and carefully double checked in Vienna.                                |
|      GW as well as linear response parallelism added by Martijn Marsman     |
|      and Georg Kresse.                                                      |
|      Carefully verify results versus KPAR=1.                                |
|      Report problems to Paul Kent and Vienna.                               |
|                                                                             |
 ----------------------------------------------------------------------------- 

 POTCAR:    PAW_PBE C 08Apr2002                   
   VRHFIN =C: s2p2                                                              
   LEXCH  = PE                                                                  
   EATOM  =   147.1560 eV,   10.8157 Ry                                         
                                                                                
   TITEL  = PAW_PBE C 08Apr2002                                                 
   LULTRA =        F    use ultrasoft PP ?                                      
   IUNSCR =        1    unscreen: 0-lin 1-nonlin 2-no                           
   RPACOR =    1.200    partial core radius                                     
   POMASS =   12.011; ZVAL   =    4.000    mass and valenz                      
   RCORE  =    1.500    outmost cutoff radius                                   
   RWIGS  =    1.630; RWIGS  =    0.863    wigner-seitz radius (au A)           
   ENMAX  =  400.000; ENMIN  =  300.000 eV                                      
   ICORE  =        2    local potential                                         
   LCOR   =        T    correct aug charges                                     
   LPAW   =        T    paw PP                                                  
   EAUG   =  644.873                                                            
   DEXC   =    0.000                                                            
   RMAX   =    1.529    core radius for proj-oper                               
   RAUG   =    1.300    factor for augmentation sphere                          
   RDEP   =    1.501    radius for radial grids                                 
   RDEPT  =    1.300    core radius for aug-charge                              
                                                                                
   Atomic configuration                                                         
    4 entries                                                                   
     n  l   j            E        occ.                                          
     1  0  0.50      -273.3789   2.0000                                         
     2  0  0.50       -13.7508   2.0000                                         
     2  1  0.50        -5.2854   2.0000                                         
     3  2  1.50        -5.4423   0.0000                                         
   Description                                                                  
     l       E           TYP  RCUT    TYP  RCUT                                 
     0    -13.7508458     23  1.200                                             
     0     -8.2022199     23  1.200                                             
     1     -5.2854383     23  1.500                                             
     1     34.0145650     23  1.500                                             
     2     -5.4423304      7  1.500                                             
  local pseudopotential read in
  partial core-charges read in
  partial kinetic energy density read in
  atomic valenz-charges read in
  non local Contribution for L=           0  read in
    real space projection operators read in
  non local Contribution for L=           0  read in
    real space projection operators read in
  non local Contribution for L=           1  read in
    real space projection operators read in
  non local Contribution for L=           1  read in
    real space projection operators read in
    PAW grid and wavefunctions read in
 
   number of l-projection  operators is LMAX  =           4
   number of lm-projection operators is LMMAX =           8
 
 POTCAR:    PAW_PBE N 08Apr2002                   
   VRHFIN =N: s2p3                                                              
   LEXCH  = PE                                                                  
   EATOM  =   264.5486 eV,   19.4438 Ry                                         
                                                                                
   TITEL  = PAW_PBE N 08Apr2002                                                 
   LULTRA =        F    use ultrasoft PP ?                                      
   IUNSCR =        1    unscreen: 0-lin 1-nonlin 2-no                           
   RPACOR =    1.200    partial core radius                                     
   POMASS =   14.001; ZVAL   =    5.000    mass and valenz                      
   RCORE  =    1.500    outmost cutoff radius                                   
   RWIGS  =    1.400; RWIGS  =    0.741    wigner-seitz radius (au A)           
   ENMAX  =  400.000; ENMIN  =  300.000 eV                                      
   ICORE  =        2    local potential                                         
   LCOR   =        T    correct aug charges                                     
   LPAW   =        T    paw PP                                                  
   EAUG   =  627.112                                                            
   DEXC   =    0.000                                                            
   RMAX   =    1.529    core radius for proj-oper                               
   RAUG   =    1.300    factor for augmentation sphere                          
   RDEP   =    1.514    radius for radial grids                                 
   RDEPT  =    1.338    core radius for aug-charge                              
                                                                                
   Atomic configuration                                                         
    4 entries                                                                   
     n  l   j            E        occ.                                          
     1  0  0.50      -384.7179   2.0000                                         
     2  0  0.50       -18.5828   2.0000                                         
     2  1  0.50        -7.0898   3.0000                                         
     3  2  1.50        -6.8029   0.0000                                         
   Description                                                                  
     l       E           TYP  RCUT    TYP  RCUT                                 
     0    -18.5828119     23  1.200                                             
     0    -13.5018863     23  1.200                                             
     1     -7.0897853     23  1.500                                             
     1      9.5240782     23  1.500                                             
     2     -6.8029130      7  1.500                                             
  local pseudopotential read in
  partial core-charges read in
  partial kinetic energy density read in
  atomic valenz-charges read in
  non local Contribution for L=           0  read in
    real space projection operators read in
  non local Contribution for L=           0  read in
    real space projection operators read in
  non local Contribution for L=           1  read in
    real space projection operators read in
  non local Contribution for L=           1  read in
    real space projection operators read in
    PAW grid and wavefunctions read in
 
   number of l-projection  operators is LMAX  =           4
   number of lm-projection operators is LMMAX =           8
 
 POTCAR:    PAW_PBE Cu 22Jun2005                  
   VRHFIN =Cu: d10 p1                                                           
   LEXCH  = PE                                                                  
   EATOM  =  1390.9808 eV,  102.2342 Ry                                         
                                                                                
   TITEL  = PAW_PBE Cu 22Jun2005                                                
   LULTRA =        F    use ultrasoft PP ?                                      
   IUNSCR =        1    unscreen: 0-lin 1-nonlin 2-no                           
   RPACOR =    2.000    partial core radius                                     
   POMASS =   63.546; ZVAL   =   11.000    mass and valenz                      
   RCORE  =    2.300    outmost cutoff radius                                   
   RWIGS  =    2.200; RWIGS  =    1.164    wigner-seitz radius (au A)           
   ENMAX  =  295.446; ENMIN  =  221.585 eV                                      
   ICORE  =        3    local potential                                         
   LCOR   =        T    correct aug charges                                     
   LPAW   =        T    paw PP                                                  
   EAUG   =  586.980                                                            
   DEXC   =    0.000                                                            
   RMAX   =    2.344    core radius for proj-oper                               
   RAUG   =    1.300    factor for augmentation sphere                          
   RDEP   =    2.302    radius for radial grids                                 
   RDEPT  =    1.771    core radius for aug-charge                              
                                                                                
   Atomic configuration                                                         
    9 entries                                                                   
     n  l   j            E        occ.                                          
     1  0  0.50     -8850.2468   2.0000                                         
     2  0  0.50     -1062.3498   2.0000                                         
     2  1  1.50      -916.8226   6.0000                                         
     3  0  0.50      -114.6929   2.0000                                         
     3  1  1.50       -72.1325   6.0000                                         
     3  2  2.50        -5.0394  10.0000                                         
     4  0  0.50        -4.6097   1.0000                                         
     4  1  0.50        -4.0817   0.0000                                         
     4  3  2.50        -1.3606   0.0000                                         
   Description                                                                  
     l       E           TYP  RCUT    TYP  RCUT                                 
     2     -5.0393973     23  2.200                                             
     2     10.8846608     23  2.200                                             
     0     -4.6097109     23  2.200                                             
     0      8.2520465     23  2.200                                             
     1     -2.7211652     23  2.200                                             
     1     21.7055443     23  2.200                                             
     3      2.7211652     23  2.300                                             
  local pseudopotential read in
  partial core-charges read in
  partial kinetic energy density read in
  atomic valenz-charges read in
  non local Contribution for L=           2  read in
    real space projection operators read in
  non local Contribution for L=           2  read in
    real space projection operators read in
  non local Contribution for L=           0  read in
    real space projection operators read in
  non local Contribution for L=           0  read in
    real space projection operators read in
  non local Contribution for L=           1  read in
    real space projection operators read in
  non local Contribution for L=           1  read in
    real space projection operators read in
    PAW grid and wavefunctions read in
 
   number of l-projection  operators is LMAX  =           6
   number of lm-projection operators is LMMAX =          18
 
 POTCAR:    PAW_PBE Fe 06Sep2000                  
   VRHFIN =Fe:  d7 s1                                                           
   LEXCH  = PE                                                                  
   EATOM  =   594.3153 eV,   43.6809 Ry                                         
                                                                                
   TITEL  = PAW_PBE Fe 06Sep2000                                                
   LULTRA =        F    use ultrasoft PP ?                                      
   IUNSCR =        1    unscreen: 0-lin 1-nonlin 2-no                           
   RPACOR =    2.000    partial core radius                                     
   POMASS =   55.847; ZVAL   =    8.000    mass and valenz                      
   RCORE  =    2.300    outmost cutoff radius                                   
   RWIGS  =    2.460; RWIGS  =    1.302    wigner-seitz radius (au A)           
   ENMAX  =  267.882; ENMIN  =  200.911 eV                                      
   RCLOC  =    1.701    cutoff for local pot                                    
   LCOR   =        T    correct aug charges                                     
   LPAW   =        T    paw PP                                                  
   EAUG   =  511.368                                                            
   DEXC   =    0.000                                                            
   RMAX   =    2.356    core radius for proj-oper                               
   RAUG   =    1.300    factor for augmentation sphere                          
   RDEP   =    2.442    radius for radial grids                                 
   RDEPT  =    1.890    core radius for aug-charge                              
                                                                                
   Atomic configuration                                                         
    9 entries                                                                   
     n  l   j            E        occ.                                          
     1  0  0.50     -6993.8440   2.0000                                         
     2  0  0.50      -814.6047   2.0000                                         
     2  1  1.50      -693.3689   6.0000                                         
     3  0  0.50       -89.4732   2.0000                                         
     3  1  1.50       -55.6373   6.0000                                         
     3  2  2.50        -3.8151   7.0000                                         
     4  0  0.50        -4.2551   1.0000                                         
     4  1  1.50        -3.4015   0.0000                                         
     4  3  2.50        -1.3606   0.0000                                         
   Description                                                                  
     l       E           TYP  RCUT    TYP  RCUT                                 
     2     -3.8151135     23  2.300                                             
     2     -5.1756961     23  2.300                                             
     0     -4.2550963     23  2.300                                             
     0      7.2035603     23  2.300                                             
     1     -2.7211652     23  2.300                                             
     1     18.4316424     23  2.300                                             
  local pseudopotential read in
  partial core-charges read in
  partial kinetic energy density read in
  atomic valenz-charges read in
  non local Contribution for L=           2  read in
    real space projection operators read in
  non local Contribution for L=           2  read in
    real space projection operators read in
  non local Contribution for L=           0  read in
    real space projection operators read in
  non local Contribution for L=           0  read in
    real space projection operators read in
  non local Contribution for L=           1  read in
    real space projection operators read in
  non local Contribution for L=           1  read in
    real space projection operators read in
    PAW grid and wavefunctions read in
 
   number of l-projection  operators is LMAX  =           6
   number of lm-projection operators is LMMAX =          18
 

 ----------------------------------------------------------------------------- 
|                                                                             |
|  ADVICE TO THIS USER RUNNING 'VASP/VAMP'   (HEAR YOUR MASTER'S VOICE ...):  |
|                                                                             |
|      You have a (more or less) 'large supercell' and for larger cells       |
|      it might be more efficient to use real space projection opertators     |
|      So try LREAL= Auto  in the INCAR   file.                               |
|      Mind:          For very  accurate calculation you might also keep the  |
|      reciprocal projection scheme          (i.e. LREAL=.FALSE.)             |
|                                                                             |
 ----------------------------------------------------------------------------- 

  PAW_PBE C 08Apr2002                   :
 energy of atom  1       EATOM= -147.1560
 kinetic energy error for atom=    0.0076 (will be added to EATOM!!)
  PAW_PBE N 08Apr2002                   :
 energy of atom  2       EATOM= -264.5486
 kinetic energy error for atom=    0.0138 (will be added to EATOM!!)
  PAW_PBE Cu 22Jun2005                  :
 energy of atom  3       EATOM=-1390.9808
 kinetic energy error for atom=    0.0043 (will be added to EATOM!!)
  PAW_PBE Fe 06Sep2000                  :
 energy of atom  4       EATOM= -594.3153
 kinetic energy error for atom=    0.0026 (will be added to EATOM!!)
 
 
 POSCAR:  C  N Cu Fe                             
  positions in cartesian coordinates
  No initial velocities read in
 exchange correlation table for  LEXCH =        8
   RHO(1)=    0.500       N(1)  =     2000
   RHO(2)=  100.500       N(2)  =     4000

 VTST: version 3.2, (02/03/18)

 CHAIN: initializing optimizer
 
 OPT: Using VASP Conjugate-Gradient optimizer
 CHAIN: Read ICHAIN            0
 
 POSCAR:  C  N Cu Fe                             
  positions in cartesian coordinates
  No initial velocities read in
 


--------------------------------------------------------------------------------------------------------


 ion  position               nearest neighbor table
   1  0.222  0.000  0.500-   3 1.42  19 1.43   4 1.43
   2  0.055  0.101  0.500-   3 1.43  33 1.43   7 1.43
   3  0.110  0.000  0.500-   1 1.42   2 1.43  17 1.43
   4  0.277  0.101  0.499-  21 1.42   5 1.43   1 1.43
   5  0.223  0.202  0.499-   4 1.43   7 1.43   8 1.44
   6  0.056  0.302  0.500-   7 1.42  11 1.43  37 1.44
   7  0.111  0.202  0.500-   6 1.42   2 1.43   5 1.43
   8  0.283  0.301  0.497-  50 1.37   5 1.44   9 1.47
   9  0.227  0.405  0.499-  49 1.36  11 1.45   8 1.47
  10  0.056  0.500  0.500-  14 1.42  11 1.42  40 1.45
  11  0.113  0.401  0.500-  10 1.42   6 1.43   9 1.45
  12  0.226  0.596  0.502-  49 1.36  14 1.45  15 1.46
  13  0.055  0.699  0.500-  18 1.42  14 1.43  44 1.44
  14  0.112  0.600  0.501-  10 1.42  13 1.43  12 1.45
  15  0.282  0.699  0.503-  52 1.38  16 1.44  12 1.46
  16  0.223  0.798  0.501-  19 1.43  18 1.43  15 1.44
  17  0.055  0.900  0.500-   3 1.43  48 1.43  18 1.43
  18  0.111  0.799  0.500-  13 1.42  17 1.43  16 1.43
  19  0.277  0.900  0.501-  27 1.42   1 1.43  16 1.43
  20  0.555  0.000  0.500-  22 1.41  29 1.42  23 1.42
  21  0.389  0.100  0.499-   4 1.42  25 1.42  22 1.42
  22  0.444  0.000  0.500-  20 1.41  27 1.42  21 1.42
  23  0.610  0.100  0.499-  31 1.42  24 1.42  20 1.42
  24  0.557  0.202  0.496-  51 1.36  23 1.42  25 1.46
  25  0.442  0.202  0.496-  50 1.36  21 1.42  24 1.46
  26  0.556  0.799  0.503-  53 1.38  29 1.42  28 1.45
  27  0.389  0.900  0.502-  22 1.42  19 1.42  28 1.42
  28  0.442  0.799  0.503-  52 1.38  27 1.42  26 1.45
  29  0.610  0.900  0.502-  20 1.42  46 1.42  26 1.42
  30  0.888  0.000  0.500-  32 1.42  33 1.43  48 1.43
  31  0.721  0.101  0.499-  23 1.42  36 1.43  32 1.43
  32  0.777  0.000  0.500-  30 1.42  46 1.43  31 1.43
  33  0.943  0.101  0.500-  30 1.43   2 1.43  34 1.43
  34  0.887  0.202  0.500-  37 1.42  33 1.43  36 1.43
  35  0.716  0.301  0.497-  51 1.37  36 1.44  39 1.47
  36  0.775  0.202  0.499-  31 1.43  34 1.43  35 1.44
  37  0.943  0.302  0.500-  34 1.42  38 1.43   6 1.44
  38  0.885  0.401  0.500-  40 1.42  37 1.43  39 1.45
  39  0.772  0.405  0.499-  54 1.36  38 1.45  35 1.47
  40  0.943  0.500  0.500-  41 1.42  38 1.42  10 1.45
  41  0.886  0.600  0.501-  40 1.42  44 1.43  43 1.45
  42  0.716  0.699  0.503-  53 1.38  47 1.44  43 1.46
  43  0.772  0.596  0.502-  54 1.36  41 1.45  42 1.46
  44  0.943  0.699  0.500-  45 1.42  41 1.43  13 1.44
  45  0.887  0.799  0.500-  44 1.42  48 1.43  47 1.43
  46  0.721  0.900  0.501-  29 1.42  32 1.43  47 1.43
  47  0.775  0.798  0.501-  46 1.43  45 1.43  42 1.44
  48  0.943  0.900  0.500-  30 1.43  17 1.43  45 1.43
  49  0.280  0.501  0.501-  12 1.36   9 1.36
  50  0.390  0.298  0.493-  25 1.36   8 1.37  55 2.01
  51  0.609  0.298  0.493-  24 1.36  35 1.37  55 2.01
  52  0.390  0.701  0.505-  28 1.38  15 1.38  56 2.00
  53  0.608  0.701  0.505-  26 1.38  42 1.38  56 2.00
  54  0.719  0.501  0.501-  43 1.36  39 1.36
  55  0.499  0.411  0.476-  50 2.01  51 2.01  56 2.33
  56  0.499  0.587  0.518-  52 2.00  53 2.00  55 2.33
 
  LATTYP: Found a triclinic cell.
 ALAT       =    26.8812627091
 B/A-ratio  =     0.4745015194
 C/A-ratio  =     0.4589256142
 COS(alpha) =     0.0000104720
 COS(beta)  =     0.4588781494
 COS(gamma) =     0.4747068845
  
  Lattice vectors:
  
 A1 = (  12.7607204715, -12.3350904569, -20.1893992310)
 A2 = (  12.7552000000,   0.0000000000,   0.0000000000)
 A3 = (   0.0001291875, -12.3364999993,   0.0000000000)


Analysis of symmetry for initial positions (statically):
=====================================================================
 Subroutine PRICEL returns:
 Original cell was already a primitive cell.
 

 Routine SETGRP: Setting up the symmetry group for a 
 triclinic supercell.


 Subroutine GETGRP returns: Found  1 space group operations
 (whereof  1 operations were pure point group operations)
 out of a pool of  2 trial point group operations.


The static configuration has the point symmetry C_1 .


Analysis of symmetry for dynamics (positions and initial velocities):
=====================================================================
 Subroutine PRICEL returns:
 Original cell was already a primitive cell.
 

 Routine SETGRP: Setting up the symmetry group for a 
 triclinic supercell.


 Subroutine GETGRP returns: Found  1 space group operations
 (whereof  1 operations were pure point group operations)
 out of a pool of  2 trial point group operations.


The dynamic configuration has the point symmetry C_1 .


Analysis of structural, dynamic, and magnetic symmetry:
=====================================================================
 Subroutine PRICEL returns:
 Original cell was already a primitive cell.
 

 Routine SETGRP: Setting up the symmetry group for a 
 triclinic supercell.


 Subroutine GETGRP returns: Found  1 space group operations
 (whereof  1 operations were pure point group operations)
 out of a pool of  2 trial point group operations.


The magnetic configuration has the point symmetry C_1 .


 Subroutine INISYM returns: Found  1 space group operations
 (whereof  1 operations are pure point group operations),
 and found     1 'primitive' translations

 
 
 KPOINTS: KPOINTS created by Atomic Simulation Env

Automatic generation of k-mesh.
Space group operators:
 irot       det(A)        alpha          n_x          n_y          n_z        tau_x        tau_y        tau_z
    1     1.000000     0.000000     1.000000     0.000000     0.000000     0.000000     0.000000     0.000000
 
 Subroutine IBZKPT returns following result:
 ===========================================
 
 Found      2 irreducible k-points:
 
 Following reciprocal coordinates:
            Coordinates               Weight
  0.250000  0.250000  0.000000      2.000000
 -0.250000  0.250000  0.000000      2.000000
 
 Following cartesian coordinates:
            Coordinates               Weight
  0.019600  0.020265  0.000007      2.000000
 -0.019600  0.020265 -0.000004      2.000000
 
 
 Subroutine IBZKPT_HF returns following result:
 ==============================================
 
 Found      4 k-points in 1st BZ
 the following      4 k-points will be used (e.g. in the exchange kernel)
 Following reciprocal coordinates:   # in IRBZ
  0.250000  0.250000  0.000000    0.25000000   1 t-inv F
 -0.250000  0.250000  0.000000    0.25000000   2 t-inv F
 -0.250000 -0.250000  0.000000    0.25000000   1 t-inv T
  0.250000 -0.250000  0.000000    0.25000000   2 t-inv T


--------------------------------------------------------------------------------------------------------




 Dimension of arrays:
   k-points           NKPTS =      2   k-points in BZ     NKDIM =      4   number of bands    NBANDS=    153
   number of dos      NEDOS =    301   number of ions     NIONS =     56
   non local maximal  LDIM  =      6   non local SUM 2l+1 LMDIM =     18
   total plane-waves  NPLWV = ******
   max r-space proj   IRMAX =      1   max aug-charges    IRDMAX=  14730
   dimension x,y,z NGX =    96 NGY =   90 NGZ =  150
   dimension x,y,z NGXF=   192 NGYF=  180 NGZF=  300
   support grid    NGXF=   192 NGYF=  180 NGZF=  300
   ions per type =              48   6   1   1
   NGX,Y,Z   is equivalent  to a cutoff of  12.51, 12.13, 12.35 a.u.
   NGXF,Y,Z  is equivalent  to a cutoff of  25.02, 24.26, 24.70 a.u.

 SYSTEM =  unknown system                          
 POSCAR =   C  N Cu Fe                             

 Startparameter for this run:
   NWRITE =      2    write-flag & timer
   PREC   = accura    normal or accurate (medium, high low for compatibility)
   ISTART =      1    job   : 0-new  1-cont  2-samecut
   ICHARG =      0    charge: 1-file 2-atom 10-const
   ISPIN  =      2    spin polarized calculation?
   LNONCOLLINEAR =      F non collinear calculations
   LSORBIT =      F    spin-orbit coupling
   INIWAV =      1    electr: 0-lowe 1-rand  2-diag
   LASPH  =      T    aspherical Exc in radial PAW
   METAGGA=      F    non-selfconsistent MetaGGA calc.

 Electronic Relaxation 1
   ENCUT  =  500.0 eV  36.75 Ry    6.06 a.u.  23.26 22.49 36.81*2*pi/ulx,y,z
   ENINI  =  500.0     initial cutoff
   ENAUG  =  644.9 eV  augmentation charge cutoff
   NELM   =    250;   NELMIN=  2; NELMDL=  0     # of ELM steps 
   EDIFF  = 0.1E-03   stopping-criterion for ELM
   LREAL  =      F    real-space projection
   NLSPLINE    = F    spline interpolate recip. space projectors
   LCOMPAT=      F    compatible to vasp.4.4
   GGA_COMPAT  = T    GGA compatible to vasp.4.4-vasp.4.6
   LMAXPAW     = -100 max onsite density
   LMAXMIX     =    2 max onsite mixed and CHGCAR
   VOSKOWN=      0    Vosko Wilk Nusair interpolation
   ROPT   =    0.00000   0.00000   0.00000   0.00000
 Ionic relaxation
   EDIFFG = -.3E-01   stopping-criterion for IOM
   NSW    =      0    number of steps for IOM
   NBLOCK =      1;   KBLOCK =      1    inner block; outer block 
   IBRION =     -1    ionic relax: 0-MD 1-quasi-New 2-CG
   NFREE  =      1    steps in history (QN), initial steepest desc. (CG)
   ISIF   =      2    stress and relaxation
   IWAVPR =     10    prediction:  0-non 1-charg 2-wave 3-comb
   ISYM   =      3    0-nonsym 1-usesym 2-fastsym
   LCORR  =      T    Harris-Foulkes like correction to forces

   POTIM  = 0.5000    time-step for ionic-motion
   TEIN   =    0.0    initial temperature
   TEBEG  =    0.0;   TEEND  =   0.0 temperature during run
   SMASS  =  -3.00    Nose mass-parameter (am)
   estimated Nose-frequenzy (Omega)   =  0.10E-29 period in steps =****** mass=  -0.372E-26a.u.
   SCALEE = 1.0000    scale energy and forces
   NPACO  =    256;   APACO  = 16.0  distance and # of slots for P.C.
   PSTRESS=    0.0 pullay stress

  Mass of Ions in am
   POMASS =  12.01 14.00 63.55 55.85
  Ionic Valenz
   ZVAL   =   4.00  5.00 11.00  8.00
  Atomic Wigner-Seitz radii
   RWIGS  =  -1.00 -1.00 -1.00 -1.00
  virtual crystal weights 
   VCA    =   1.00  1.00  1.00  1.00
   NELECT =     241.0000    total number of electrons
   NUPDOWN=      -1.0000    fix difference up-down

 DOS related values:
   EMIN   =  10.00;   EMAX   =-10.00  energy-range for DOS
   EFERMI =   0.00
   ISMEAR =     0;   SIGMA  =   0.10  broadening in eV -4-tet -1-fermi 0-gaus

 Electronic relaxation 2 (details)
   IALGO  =     53    algorithm
   LDIAG  =      T    sub-space diagonalisation (order eigenvalues)
   LSUBROT=      F    optimize rotation matrix (better conditioning)
   TURBO    =      0    0=normal 1=particle mesh
   IRESTART =      0    0=no restart 2=restart with 2 vectors
   NREBOOT  =      0    no. of reboots
   NMIN     =      0    reboot dimension
   EREF     =   0.00    reference energy to select bands
   IMIX   =      4    mixing-type and parameters
     AMIX     =   0.40;   BMIX     =  1.00
     AMIX_MAG =   1.60;   BMIX_MAG =  1.00
     AMIN     =   0.10
     WC   =   100.;   INIMIX=   1;  MIXPRE=   1;  MAXMIX= -45

 Intra band minimization:
   WEIMIN = 0.0000     energy-eigenvalue tresh-hold
   EBREAK =  0.16E-06  absolut break condition
   DEPER  =   0.30     relativ break condition  

   TIME   =   0.20     timestep for ELM

  volume/ion in A,a.u.               =      56.73       382.83
  Fermi-wavevector in a.u.,A,eV,Ry     =   0.693021  1.309620  6.534578  0.480278
  Thomas-Fermi vector in A             =   1.775117
 
 Write flags
   LWAVE        =      T    write WAVECAR
   LDOWNSAMPLE  =      F    k-point downsampling of WAVECAR
   LCHARG       =      T    write CHGCAR
   LVTOT        =      F    write LOCPOT, total local potential
   LVHAR        =      F    write LOCPOT, Hartree potential only
   LELF         =      F    write electronic localiz. function (ELF)
   LORBIT       =     11    0 simple, 1 ext, 2 COOP (PROOUT), +10 PAW based schemes


 Dipole corrections
   LMONO  =      F    monopole corrections only (constant potential shift)
   LDIPOL =      T    correct potential (dipole corrections)
   IDIPOL =      3    1-x, 2-y, 3-z, 4-all directions 
   EPSILON=  1.0000000 bulk dielectric constant

 Exchange correlation treatment:
   GGA     =    PE    GGA type
   LEXCH   =     8    internal setting for exchange type
   VOSKOWN=      0    Vosko Wilk Nusair interpolation
   EXXOEP  =     0    0=HF, 1=EXX-LHF (local Hartree Fock) 2=EXX OEP
   LHFCALC =     T    Hartree Fock is set to
   LSYMGRAD=     F    symmetrize gradient (conserves proper symmetry)
   PRECFOCK=normal    Normal, Fast or Accurate (Low or Medium for compatibility)
   LRHFCALC=     F    long range Hartree Fock
   LRSCOR  =     F    long range correlation only (use DFT for short range part)
   LTHOMAS =     F    Thomas Fermi screening in HF
   LMODELHF=     F    short range full HF, long range fraction AEXX
   ENCUT4O =  -1.0   cutoff for four orbital integrals eV
   LMAXFOCK=     4    L truncation for augmentation on plane wave grid
   LMAXFOCKAE=  -1    L truncation for all-electron charge restoration on plane wave grid
   NMAXFOCKAE=   1    number of basis functions for all-electron charge restoration
   LFOCKAEDFT=     F  apply the AE augmentation even for DFT
   NKREDX  =     1    reduce k-point grid by
   NKREDY  =     1    reduce k-point grid by
   NKREDZ  =     1    reduce k-point grid by
   SHIFTRED=     F    shift reduced grid of Gamma
   HFKIDENT=     F    idential grid for each k-point
   ODDONLY =     F    use only odd q-grid points
   EVENONLY=     F    use only even q-grid points
   HFALPHA =   -1.0000 decay constant for conv. correction
   MCALPHA =    0.0000 extent of test-charge in conv. correction in multipole expansion
   AEXX    =    0.2500 exact exchange contribution
   HFSCREEN=    0.2000 screening length (either q_TF or 0.3 A-1)
   HFSCREENC=   0.2000 screening length for correlation (either q_TF or 0.3 A-1)
   HFRCUT  =    0.0000 spherical cutoff for potential kernel
   ALDAX   =    0.7500 LDA exchange part
   AGGAX   =    0.7500 GGA exchange part
   ALDAC   =    1.0000 LDA correlation
   AGGAC   =    1.0000 GGA correlation
   ENCUTFOCK=  -1.0 apply spherical cutoff to Coloumb kernel
   NBANDSGWLOW=     1    first orbital included in HF term
   NBLOCK_FOCK=    64    blocking factor in FOCK_ACC
 Linear response parameters
   LEPSILON=     F    determine dielectric tensor
   LRPA    =     F    only Hartree local field effects (RPA)
   LNABLA  =     F    use nabla operator in PAW spheres
   LVEL    =     F    velocity operator in full k-point grid
   LINTERFAST=   F  fast interpolation
   KINTER  =     0    interpolate to denser k-point grid
   CSHIFT  =0.1000    complex shift for real part using Kramers Kronig
   OMEGAMAX=  -1.0    maximum frequency
   DEG_THRESHOLD= 0.2000000E-02 threshold for treating states as degnerate
   RTIME   =   -0.100 relaxation time in fs
  (WPLASMAI=    0.000 imaginary part of plasma frequency in eV, 0.658/RTIME)
   DFIELD  = 0.0000000 0.0000000 0.0000000 field for delta impulse in time
 
 Orbital magnetization related:
   ORBITALMAG=     F  switch on orbital magnetization
   LCHIMAG   =     F  perturbation theory with respect to B field
   DQ        =  0.001000  dq finite difference perturbation B field
   LLRAUG    =     F  two centre corrections for induced B field



--------------------------------------------------------------------------------------------------------


 Static calculation
 charge density and potential will be updated during run
 spin polarized calculation
 Conjugate gradient for all bands (Freysoldt, et al. PRB 79, 241103 (2009))
 perform sub-space diagonalisation
    before iterative eigenvector-optimisation
 modified Broyden-mixing scheme, WC =      100.0
 initial mixing is a Kerker type mixing with AMIX =  0.4000 and BMIX =      1.0000
 Hartree-type preconditioning will be used
 using additional bands           32
 reciprocal scheme for non local part
 use partial core corrections
 no Harris-corrections to forces 
 use gradient corrections 
 use of overlap-Matrix (Vanderbilt PP)
 Gauss-broadening in eV      SIGMA  =   0.10


--------------------------------------------------------------------------------------------------------


  energy-cutoff  :      500.00
  volume of cell :     3176.89
      direct lattice vectors                 reciprocal lattice vectors
    12.755200000  0.000000000  0.000000000     0.078399398  0.000000821  0.000020935
    -0.000129188 12.336499999  0.000000000     0.000000000  0.081060268  0.000005659
    -0.005391284 -0.001409542 20.189399231     0.000000000  0.000000000  0.049530944

  length of vectors
    12.755200000 12.336500000 20.189400000     0.078399401  0.081060269  0.049530944


 
 old parameters found on file WAVECAR:
  energy-cutoff  :      500.00
  volume of cell :     3176.89
      direct lattice vectors                 reciprocal lattice vectors
    12.755200000  0.000000000  0.000000000     0.078399398  0.000000821  0.000020935
    -0.000129188 12.336499999  0.000000000     0.000000000  0.081060268  0.000005659
    -0.005391284 -0.001409542 20.189399231     0.000000000  0.000000000  0.049530944

  length of vectors

 
 k-points in units of 2pi/SCALE and weight: KPOINTS created by Atomic Simulation Env
   0.01959985  0.02026527  0.00000665       0.500
  -0.01959985  0.02026486 -0.00000382       0.500
 
 k-points in reciprocal lattice and weights: KPOINTS created by Atomic Simulation Env
   0.25000000  0.25000000  0.00000000       0.500
  -0.25000000  0.25000000  0.00000000       0.500
 
 position of ions in fractional coordinates (direct lattice) 
   0.22163543  0.00018252  0.50009088
   0.05520239  0.10106737  0.50005822
   0.10996929  0.00032989  0.50006061
   0.27706491  0.10074730  0.49917005
   0.22322615  0.20222073  0.49885789
   0.05555246  0.30171335  0.49968723
   0.11092563  0.20166802  0.49977780
   0.28268443  0.30130482  0.49700759
   0.22655484  0.40519939  0.49929948
   0.05584604  0.50042801  0.50028980
   0.11292852  0.40120401  0.49977014
   0.22599504  0.59606335  0.50162193
   0.05548279  0.69923342  0.50040249
   0.11246266  0.59973269  0.50061855
   0.28222734  0.69908418  0.50269747
   0.22344423  0.79831418  0.50122137
   0.05522582  0.89957011  0.50007419
   0.11106899  0.79907585  0.50037312
   0.27709752  0.89986601  0.50101080
   0.55460953  0.00009981  0.50041916
   0.38851002  0.10035489  0.49880842
   0.44376983  0.00010258  0.50041818
   0.60986120  0.10035444  0.49880789
   0.55650710  0.20161343  0.49580950
   0.44186002  0.20161582  0.49581867
   0.55592037  0.79887514  0.50349259
   0.38865354  0.89996401  0.50162913
   0.44244964  0.79887903  0.50349292
   0.60972527  0.89995877  0.50163880
   0.88839493  0.00033036  0.50007089
   0.72130106  0.10074886  0.49917025
   0.77673244  0.00018784  0.50010995
   0.94316246  0.10106885  0.50005766
   0.88744303  0.20166924  0.49975834
   0.71568429  0.30129841  0.49697783
   0.77514120  0.20222029  0.49883792
   0.94283544  0.30170894  0.49966862
   0.88546758  0.40120058  0.49975014
   0.77183610  0.40518850  0.49926925
   0.94255232  0.50042507  0.50028910
   0.88592724  0.59972461  0.50062827
   0.71614312  0.69907738  0.50270564
   0.77238999  0.59605408  0.50161314
   0.94290640  0.69922480  0.50042038
   0.88730905  0.79905961  0.50039336
   0.72128118  0.89986320  0.50103070
   0.77493353  0.79830664  0.50124190
   0.94313599  0.89956657  0.50008396
   0.27987378  0.50083497  0.50125585
   0.38957025  0.29794257  0.49333739
   0.60879284  0.29793899  0.49331704
   0.39016266  0.70122375  0.50490028
   0.60820113  0.70121382  0.50488196
   0.71851686  0.50082035  0.50122610
   0.49914273  0.41131265  0.47581796
   0.49917138  0.58652597  0.51828123
 
 position of ions in cartesian coordinates  (Angst):
   2.82430804  0.00154681 10.09653438
   0.70140852  1.24611272 10.09587504
   1.39998425  0.00336482 10.09592336
   3.53131416  1.24216543 10.07794345
   2.84457859  2.49399283 10.07164118
   0.70584982  3.72138239 10.08838503
   1.41215814  2.48717308 10.09021362
   3.60297798  3.71634639 10.03428474
   2.88700807  4.99803849 10.08055662
   0.70956554  6.17282501 10.10055041
   1.43767961  4.94874883 10.09005885
   2.87983059  7.35262843 10.12744535
   0.70490599  8.62538780 10.10282561
   1.43170732  7.39789665 10.10718767
   3.59706573  8.62354337 10.14915992
   2.84727050  9.84769641 10.11935834
   0.70160414 11.09684175 10.09619747
   1.41390636  9.85709396 10.10223269
   3.53161698 11.10049082 10.11510703
   7.07145758  0.00052595 10.10316224
   4.95282083  1.23732502 10.07064243
   5.65767506  0.00056015 10.10314234
   7.77619945  1.23731941 10.07063153
   7.09566027  2.48650516 10.01009588
   5.63331379  2.48653466 10.01028104
   7.08805783  9.85461352 10.16521295
   4.95453297 11.10169890 10.12759080
   5.64071597  9.85466149 10.16521953
   7.77434707 11.10163423 10.12778594
  11.32895890  0.00337057 10.09613094
   9.19763506  1.24218466 10.07794741
   9.90468133  0.00161232 10.09691942
  12.02751681  1.24613107 10.09586377
  11.31679294  2.48718810 10.08982066
   9.12597798  3.71626737 10.03368385
   9.88436554  2.49398749 10.07123798
  12.02332178  3.72132802 10.08800934
  11.29157000  4.94870650 10.08965516
   9.84217979  4.99790422 10.07994622
  12.01968147  6.17278873 10.10053637
  11.29740256  7.39779694 10.10738396
   9.13174817  8.62345948 10.14932491
   9.84920745  7.35251413 10.12726791
  12.02417150  8.62528139 10.10318680
  11.31500335  9.85689349 10.10264133
   9.19726820 11.10045618 10.11550893
   9.88162665  9.84760338 10.11977280
  12.02707590 11.09679812 10.09639473
   3.56707895  6.17784407 10.12005446
   4.96634820  3.67487310  9.96018558
   7.76257633  3.67482897  9.95977477
   4.97379017  8.64993515 10.19363326
   7.75491454  8.64981265 10.19326347
   9.16205932  6.17766375 10.11945381
   6.36404690  5.07348781  9.60647880
   6.36416078  7.23494710 10.46378670
 


--------------------------------------------------------------------------------------------------------


 k-point  1 :   0.2500 0.2500 0.0000  plane waves:   80677
 k-point  2 :  -0.2500 0.2500 0.0000  plane waves:   80677

 maximum and minimum number of plane-waves per node :      3392     3334

 maximum number of plane-waves:     80677
 maximum index in each direction: 
   IXMAX=   23   IYMAX=   22   IZMAX=   36
   IXMIN=  -23   IYMIN=  -22   IZMIN=  -36


 parallel 3D FFT for wavefunctions:
    minimum data exchange during FFTs selected (reduces bandwidth)
 parallel 3D FFT for charge:
    minimum data exchange during FFTs selected (reduces bandwidth)


 FFT grid for exact exchange (Hartree Fock) 
  NGX = 70; NGY = 70; NGZ =112

 
 Radii for the augmentation spheres in the non-local exchange
 for species   1 augmentation radius   0.874 (default was   0.699)
       energy cutoff for augmentation   2000.0
 for species   2 augmentation radius   0.886 (default was   0.709)
       energy cutoff for augmentation   2000.0
 for species   3 augmentation radius   1.179 (default was   0.943)
       energy cutoff for augmentation   2000.0
 for species   4 augmentation radius   1.263 (default was   1.010)
       energy cutoff for augmentation   2000.0

 real space projection operators:
  total allocation   :       2331.38 KBytes
  max/ min on nodes  :        137.27         36.63

 Maximum index for augmentation-charges in exchange           63
  SETUP_FOCK is finished

 total amount of memory used by VASP MPI-rank0   203033. kBytes
=======================================================================

   base      :      30000. kBytes
   nonl-proj :       6963. kBytes
   fftplans  :      17533. kBytes
   grid      :      46049. kBytes
   one-center:         93. kBytes
   HF        :         46. kBytes
   nonlr-proj:       1474. kBytes
   wavefun   :     100875. kBytes
 
     INWAV:  cpu time    3.3175: real time    5.8152
 Broyden mixing: mesh for mixing (old mesh)
   NGX = 47   NGY = 45   NGZ = 73
  (NGX  =192   NGY  =180   NGZ  =300)
  gives a total of 154395 points

 charge density for first step will be calculated from the start-wavefunctions


--------------------------------------------------------------------------------------------------------


 Maximum index for augmentation-charges          696 (set IRDMAX)


--------------------------------------------------------------------------------------------------------


 initial charge from wavefunction
 First call to EWALD:  gamma=   0.121
 Maximum number of real-space cells 3x 3x 2
 Maximum number of reciprocal cells 2x 2x 4

    FEWALD:  cpu time    0.0022: real time    0.0022


--------------------------------------- Iteration      1(   1)  ---------------------------------------


    POTLOK:  cpu time    2.0612: real time    2.0657
    SETDIJ:  cpu time    2.1274: real time    2.1291
    TRIAL :  cpu time  323.8457: real time  324.2179
    CORREC:  cpu time    0.0009: real time    0.0009
    CHARGE:  cpu time    1.3510: real time    1.3522
    --------------------------------------------
      LOOP:  cpu time  329.4209: real time  329.8022

 eigenvalue-minimisations  :     0
 total energy-change (2. order) :-0.5792759E+03  (-0.4576757E+00)
 number of electron     241.0000016 magnetization       3.0035493
 augmentation part       17.2507765 magnetization       2.4614346

 DIPCOR: dipole corrections for dipol
 direction  3 min pos     1,
 dipolmoment           0.000020      0.000005     -0.076447 electrons x Angstroem
 Tr[quadrupol]     -6425.152513

 energy correction for charged system         0.000000 eV
 dipol+quadrupol energy correction           -0.000167 eV
 added-field ion interaction         -0.009452 eV  (added to PSCEN)


 Free energy of the ion-electron system (eV)
  ---------------------------------------------------
  alpha Z        PSCENC =        96.17607801
  Ewald energy   TEWEN  =     38879.62748206
  -Hartree energ DENC   =    -48012.65406417
  -exchange      EXHF   =       556.25773178
  -V(xc)+E(xc)   XCENC  =       637.14275542
  PAW double counting   =     26196.05519354   -26331.61556664
  entropy T*S    EENTRO =        -0.00163508
  eigenvalues    EBANDS =     -3127.94917806
  atomic energy  EATOM  =     10527.68646155
  ---------------------------------------------------
  free energy    TOTEN  =      -579.27594447 eV

  energy without entropy =     -579.27430939  energy(sigma->0) =     -579.27512693
  exchange ACFDT corr.  =        -0.00288422  see jH, gK, PRB 81, 115126


--------------------------------------------------------------------------------------------------------




--------------------------------------- Iteration      1(   2)  ---------------------------------------


    POTLOK:  cpu time    2.0838: real time    2.0866
    SETDIJ:  cpu time    2.1338: real time    2.1354
    TRIAL :  cpu time  324.0309: real time  324.4119
    CORREC:  cpu time    0.0010: real time    0.0010
    CHARGE:  cpu time    1.3549: real time    1.3562
    --------------------------------------------
      LOOP:  cpu time  329.6059: real time  329.9944

 eigenvalue-minimisations  :     0
 total energy-change (2. order) :-0.3352880E+00  (-0.3721963E+00)
 number of electron     241.0000015 magnetization       3.0016826
 augmentation part       17.2170832 magnetization       2.4952012

 DIPCOR: dipole corrections for dipol
 direction  3 min pos     1,
 dipolmoment           0.000022      0.000006     -0.080695 electrons x Angstroem
 Tr[quadrupol]     -6425.030947

 energy correction for charged system         0.000000 eV
 dipol+quadrupol energy correction           -0.000186 eV
 added-field ion interaction         -0.009977 eV  (added to PSCEN)


 Free energy of the ion-electron system (eV)
  ---------------------------------------------------
  alpha Z        PSCENC =        96.17553373
  Ewald energy   TEWEN  =     38879.62748206
  -Hartree energ DENC   =    -48008.99792131
  -exchange      EXHF   =       556.32061749
  -V(xc)+E(xc)   XCENC  =       637.05738027
  PAW double counting   =     26322.60208519   -26460.40142770
  entropy T*S    EENTRO =        -0.00084600
  eigenvalues    EBANDS =     -3129.67980866
  atomic energy  EATOM  =     10527.68646155
  ---------------------------------------------------
  free energy    TOTEN  =      -579.61123245 eV

  energy without entropy =     -579.61038645  energy(sigma->0) =     -579.61080945
  exchange ACFDT corr.  =        -0.00179517  see jH, gK, PRB 81, 115126


--------------------------------------------------------------------------------------------------------




--------------------------------------- Iteration      1(   3)  ---------------------------------------


    POTLOK:  cpu time    2.1050: real time    2.1072
    SETDIJ:  cpu time    2.1312: real time    2.1336
    TRIAL :  cpu time  323.9778: real time  324.3305
    CORREC:  cpu time    0.0009: real time    0.0009
    CHARGE:  cpu time    1.3492: real time    1.3501
    --------------------------------------------
      LOOP:  cpu time  329.5650: real time  329.9264

 eigenvalue-minimisations  :     0
 total energy-change (2. order) :-0.2817207E+00  (-0.1959600E+00)
 number of electron     241.0000015 magnetization       3.0008128
 augmentation part       17.1862632 magnetization       2.5212322

 DIPCOR: dipole corrections for dipol
 direction  3 min pos     1,
 dipolmoment           0.000022      0.000006     -0.082589 electrons x Angstroem
 Tr[quadrupol]     -6424.862686

 energy correction for charged system         0.000000 eV
 dipol+quadrupol energy correction           -0.000195 eV
 added-field ion interaction         -0.010211 eV  (added to PSCEN)


 Free energy of the ion-electron system (eV)
  ---------------------------------------------------
  alpha Z        PSCENC =        96.17529063
  Ewald energy   TEWEN  =     38879.62748206
  -Hartree energ DENC   =    -47992.62142085
  -exchange      EXHF   =       556.17473146
  -V(xc)+E(xc)   XCENC  =       636.63312021
  PAW double counting   =     26471.20269042   -26607.57924072
  entropy T*S    EENTRO =        -0.00044519
  eigenvalues    EBANDS =     -3147.19122196
  atomic energy  EATOM  =     10527.68646155
  ---------------------------------------------------
  free energy    TOTEN  =      -579.89295320 eV

  energy without entropy =     -579.89250801  energy(sigma->0) =     -579.89273060
  exchange ACFDT corr.  =        -0.00059298  see jH, gK, PRB 81, 115126


--------------------------------------------------------------------------------------------------------




--------------------------------------- Iteration      1(   4)  ---------------------------------------


    POTLOK:  cpu time    2.1130: real time    2.1152
    SETDIJ:  cpu time    2.1302: real time    2.1324
    TRIAL :  cpu time  323.0399: real time  323.3856
    CORREC:  cpu time    0.0009: real time    0.0009
    CHARGE:  cpu time    1.3480: real time    1.3491
    --------------------------------------------
      LOOP:  cpu time  328.6330: real time  328.9873

 eigenvalue-minimisations  :     0
 total energy-change (2. order) :-0.1409981E+00  (-0.1132071E+00)
 number of electron     241.0000015 magnetization       3.0003753
 augmentation part       17.2152637 magnetization       2.5334965

 DIPCOR: dipole corrections for dipol
 direction  3 min pos     1,
 dipolmoment           0.000023      0.000006     -0.087191 electrons x Angstroem
 Tr[quadrupol]     -6424.787382

 energy correction for charged system         0.000000 eV
 dipol+quadrupol energy correction           -0.000217 eV
 added-field ion interaction         -0.010780 eV  (added to PSCEN)


 Free energy of the ion-electron system (eV)
  ---------------------------------------------------
  alpha Z        PSCENC =        96.17469933
  Ewald energy   TEWEN  =     38879.62748206
  -Hartree energ DENC   =    -47983.84663182
  -exchange      EXHF   =       556.21426961
  -V(xc)+E(xc)   XCENC  =       636.42438388
  PAW double counting   =     26598.86607669   -26734.03006644
  entropy T*S    EENTRO =        -0.00023439
  eigenvalues    EBANDS =     -3157.15018092
  atomic energy  EATOM  =     10527.68646155
  ---------------------------------------------------
  free energy    TOTEN  =      -580.03395125 eV

  energy without entropy =     -580.03371686  energy(sigma->0) =     -580.03383406
  exchange ACFDT corr.  =        -0.00027062  see jH, gK, PRB 81, 115126


--------------------------------------------------------------------------------------------------------




--------------------------------------- Iteration      1(   5)  ---------------------------------------


    POTLOK:  cpu time    2.1259: real time    2.1279
    SETDIJ:  cpu time    2.1470: real time    2.1493
    TRIAL :  cpu time  321.5482: real time  321.9298
    CORREC:  cpu time    0.0009: real time    0.0009
    CHARGE:  cpu time    1.3464: real time    1.3472
    --------------------------------------------
      LOOP:  cpu time  327.1694: real time  327.5588

 eigenvalue-minimisations  :     0
 total energy-change (2. order) :-0.8248001E-01  (-0.6040201E-01)
 number of electron     241.0000015 magnetization       3.0001718
 augmentation part       17.2275112 magnetization       2.5382580

 DIPCOR: dipole corrections for dipol
 direction  3 min pos     1,
 dipolmoment           0.000024      0.000006     -0.088344 electrons x Angstroem
 Tr[quadrupol]     -6424.821299

 energy correction for charged system         0.000000 eV
 dipol+quadrupol energy correction           -0.000223 eV
 added-field ion interaction         -0.010923 eV  (added to PSCEN)


 Free energy of the ion-electron system (eV)
  ---------------------------------------------------
  alpha Z        PSCENC =        96.17455100
  Ewald energy   TEWEN  =     38879.62748206
  -Hartree energ DENC   =    -47988.33453487
  -exchange      EXHF   =       556.52270483
  -V(xc)+E(xc)   XCENC  =       636.57673430
  PAW double counting   =     26695.54689990   -26831.50416947
  entropy T*S    EENTRO =        -0.00012680
  eigenvalues    EBANDS =     -3152.41232618
  atomic energy  EATOM  =     10527.68646155
  ---------------------------------------------------
  free energy    TOTEN  =      -580.11643127 eV

  energy without entropy =     -580.11630446  energy(sigma->0) =     -580.11636786
  exchange ACFDT corr.  =        -0.00016985  see jH, gK, PRB 81, 115126


--------------------------------------------------------------------------------------------------------




--------------------------------------- Iteration      1(   6)  ---------------------------------------


    POTLOK:  cpu time    2.1066: real time    2.1080
    SETDIJ:  cpu time    2.1328: real time    2.1340
    TRIAL :  cpu time  323.0148: real time  323.5934
    CORREC:  cpu time    0.0009: real time    0.0009
    CHARGE:  cpu time    1.3443: real time    1.3461
    --------------------------------------------
      LOOP:  cpu time  328.6008: real time  329.1864

 eigenvalue-minimisations  :     0
 total energy-change (2. order) :-0.4899210E-01  (-0.3950355E-01)
 number of electron     241.0000015 magnetization       3.0000835
 augmentation part       17.2247180 magnetization       2.5393205

 DIPCOR: dipole corrections for dipol
 direction  3 min pos     1,
 dipolmoment           0.000023      0.000006     -0.084697 electrons x Angstroem
 Tr[quadrupol]     -6424.875298

 energy correction for charged system         0.000000 eV
 dipol+quadrupol energy correction           -0.000205 eV
 added-field ion interaction         -0.010472 eV  (added to PSCEN)


 Free energy of the ion-electron system (eV)
  ---------------------------------------------------
  alpha Z        PSCENC =        96.17501992
  Ewald energy   TEWEN  =     38879.62748206
  -Hartree energ DENC   =    -47992.46502286
  -exchange      EXHF   =       556.77877604
  -V(xc)+E(xc)   XCENC  =       636.70538972
  PAW double counting   =     26757.79356718   -26893.74450102
  entropy T*S    EENTRO =        -0.00007354
  eigenvalues    EBANDS =     -3148.72246915
  atomic energy  EATOM  =     10527.68646155
  ---------------------------------------------------
  free energy    TOTEN  =      -580.16542336 eV

  energy without entropy =     -580.16534983  energy(sigma->0) =     -580.16538660
  exchange ACFDT corr.  =        -0.00008202  see jH, gK, PRB 81, 115126


--------------------------------------------------------------------------------------------------------




--------------------------------------- Iteration      1(   7)  ---------------------------------------


    POTLOK:  cpu time    2.0946: real time    2.1022
    SETDIJ:  cpu time    2.1349: real time    2.1375
    TRIAL :  cpu time  321.5310: real time  321.9027
    CORREC:  cpu time    0.0009: real time    0.0009
    CHARGE:  cpu time    1.3452: real time    1.3462
    --------------------------------------------
      LOOP:  cpu time  327.1082: real time  327.4934

 eigenvalue-minimisations  :     0
 total energy-change (2. order) :-0.3128868E-01  (-0.2664445E-01)
 number of electron     241.0000015 magnetization       3.0000435
 augmentation part       17.2368122 magnetization       2.5389429

 DIPCOR: dipole corrections for dipol
 direction  3 min pos     1,
 dipolmoment           0.000022      0.000006     -0.083190 electrons x Angstroem
 Tr[quadrupol]     -6424.914753

 energy correction for charged system         0.000000 eV
 dipol+quadrupol energy correction           -0.000198 eV
 added-field ion interaction         -0.010285 eV  (added to PSCEN)


 Free energy of the ion-electron system (eV)
  ---------------------------------------------------
  alpha Z        PSCENC =        96.17521348
  Ewald energy   TEWEN  =     38879.62748206
  -Hartree energ DENC   =    -47994.61639348
  -exchange      EXHF   =       556.94530648
  -V(xc)+E(xc)   XCENC  =       636.77635925
  PAW double counting   =     26793.42280325   -26928.94663274
  entropy T*S    EENTRO =        -0.00004591
  eigenvalues    EBANDS =     -3147.26723835
  atomic energy  EATOM  =     10527.68646155
  ---------------------------------------------------
  free energy    TOTEN  =      -580.19671204 eV

  energy without entropy =     -580.19666613  energy(sigma->0) =     -580.19668908
  exchange ACFDT corr.  =        -0.00004322  see jH, gK, PRB 81, 115126


--------------------------------------------------------------------------------------------------------




--------------------------------------- Iteration      1(   8)  ---------------------------------------


    POTLOK:  cpu time    2.0867: real time    2.0886
    SETDIJ:  cpu time    2.1302: real time    2.1324
    TRIAL :  cpu time  321.9629: real time  322.3118
    CORREC:  cpu time    0.0009: real time    0.0009
    CHARGE:  cpu time    1.3469: real time    1.3482
    --------------------------------------------
      LOOP:  cpu time  327.5288: real time  327.8859

 eigenvalue-minimisations  :     0
 total energy-change (2. order) :-0.2199010E-01  (-0.1694812E-01)
 number of electron     241.0000015 magnetization       3.0000240
 augmentation part       17.2414241 magnetization       2.5396873

 DIPCOR: dipole corrections for dipol
 direction  3 min pos     1,
 dipolmoment           0.000023      0.000006     -0.084452 electrons x Angstroem
 Tr[quadrupol]     -6424.942492

 energy correction for charged system         0.000000 eV
 dipol+quadrupol energy correction           -0.000204 eV
 added-field ion interaction         -0.010441 eV  (added to PSCEN)


 Free energy of the ion-electron system (eV)
  ---------------------------------------------------
  alpha Z        PSCENC =        96.17505141
  Ewald energy   TEWEN  =     38879.62748206
  -Hartree energ DENC   =    -47997.80638696
  -exchange      EXHF   =       557.09867141
  -V(xc)+E(xc)   XCENC  =       636.88091601
  PAW double counting   =     26813.20839957   -26949.05074669
  entropy T*S    EENTRO =        -0.00003052
  eigenvalues    EBANDS =     -3144.03850459
  atomic energy  EATOM  =     10527.68646155
  ---------------------------------------------------
  free energy    TOTEN  =      -580.21870214 eV

  energy without entropy =     -580.21867162  energy(sigma->0) =     -580.21868688
  exchange ACFDT corr.  =        -0.00002494  see jH, gK, PRB 81, 115126


--------------------------------------------------------------------------------------------------------




--------------------------------------- Iteration      1(   9)  ---------------------------------------


    POTLOK:  cpu time    2.0763: real time    2.0822
    SETDIJ:  cpu time    2.1308: real time    2.1326
    TRIAL :  cpu time  321.8176: real time  322.1773
    CORREC:  cpu time    0.0008: real time    0.0008
    CHARGE:  cpu time    1.3441: real time    1.3450
    --------------------------------------------
      LOOP:  cpu time  327.3708: real time  327.7418

 eigenvalue-minimisations  :     0
 total energy-change (2. order) :-0.1482972E-01  (-0.1270967E-01)
 number of electron     241.0000015 magnetization       3.0000141
 augmentation part       17.2391340 magnetization       2.5417006

 DIPCOR: dipole corrections for dipol
 direction  3 min pos     1,
 dipolmoment           0.000023      0.000006     -0.084669 electrons x Angstroem
 Tr[quadrupol]     -6424.950222

 energy correction for charged system         0.000000 eV
 dipol+quadrupol energy correction           -0.000205 eV
 added-field ion interaction         -0.010468 eV  (added to PSCEN)


 Free energy of the ion-electron system (eV)
  ---------------------------------------------------
  alpha Z        PSCENC =        96.17502354
  Ewald energy   TEWEN  =     38879.62748206
  -Hartree energ DENC   =    -47998.86624070
  -exchange      EXHF   =       557.17952975
  -V(xc)+E(xc)   XCENC  =       636.92490316
  PAW double counting   =     26822.68647392   -26958.59670387
  entropy T*S    EENTRO =        -0.00002156
  eigenvalues    EBANDS =     -3143.05043076
  atomic energy  EATOM  =     10527.68646155
  ---------------------------------------------------
  free energy    TOTEN  =      -580.23353186 eV

  energy without entropy =     -580.23351030  energy(sigma->0) =     -580.23352108
  exchange ACFDT corr.  =        -0.00001546  see jH, gK, PRB 81, 115126


--------------------------------------------------------------------------------------------------------




--------------------------------------- Iteration      1(  10)  ---------------------------------------


    POTLOK:  cpu time    2.0730: real time    2.0757
    SETDIJ:  cpu time    2.1299: real time    2.1319
    TRIAL :  cpu time  322.2035: real time  322.5687
    CORREC:  cpu time    0.0008: real time    0.0008
    CHARGE:  cpu time    1.3423: real time    1.3491
    --------------------------------------------
      LOOP:  cpu time  327.7506: real time  328.1301

 eigenvalue-minimisations  :     0
 total energy-change (2. order) :-0.1089311E-01  (-0.9343288E-02)
 number of electron     241.0000015 magnetization       3.0000090
 augmentation part       17.2450313 magnetization       2.5438128

 DIPCOR: dipole corrections for dipol
 direction  3 min pos     1,
 dipolmoment           0.000022      0.000006     -0.083646 electrons x Angstroem
 Tr[quadrupol]     -6424.946279

 energy correction for charged system         0.000000 eV
 dipol+quadrupol energy correction           -0.000200 eV
 added-field ion interaction         -0.010342 eV  (added to PSCEN)


 Free energy of the ion-electron system (eV)
  ---------------------------------------------------
  alpha Z        PSCENC =        96.17515498
  Ewald energy   TEWEN  =     38879.62748206
  -Hartree energ DENC   =    -47998.35217684
  -exchange      EXHF   =       557.20958962
  -V(xc)+E(xc)   XCENC  =       636.92271579
  PAW double counting   =     26826.41392560   -26962.13494405
  entropy T*S    EENTRO =        -0.00001617
  eigenvalues    EBANDS =     -3143.79261212
  atomic energy  EATOM  =     10527.68646155
  ---------------------------------------------------
  free energy    TOTEN  =      -580.24442497 eV

  energy without entropy =     -580.24440881  energy(sigma->0) =     -580.24441689
  exchange ACFDT corr.  =        -0.00001026  see jH, gK, PRB 81, 115126


--------------------------------------------------------------------------------------------------------




--------------------------------------- Iteration      1(  11)  ---------------------------------------


    POTLOK:  cpu time    2.0698: real time    2.0714
    SETDIJ:  cpu time    2.1189: real time    2.1214
    TRIAL :  cpu time  321.5739: real time  321.9499
    CORREC:  cpu time    0.0008: real time    0.0008
    CHARGE:  cpu time    1.3510: real time    1.3521
    --------------------------------------------
      LOOP:  cpu time  327.1156: real time  327.4996

 eigenvalue-minimisations  :     0
 total energy-change (2. order) :-0.8304184E-02  (-0.6898358E-02)
 number of electron     241.0000015 magnetization       3.0000062
 augmentation part       17.2463548 magnetization       2.5460325

 DIPCOR: dipole corrections for dipol
 direction  3 min pos     1,
 dipolmoment           0.000022      0.000006     -0.082888 electrons x Angstroem
 Tr[quadrupol]     -6424.945563

 energy correction for charged system         0.000000 eV
 dipol+quadrupol energy correction           -0.000196 eV
 added-field ion interaction         -0.010248 eV  (added to PSCEN)


 Free energy of the ion-electron system (eV)
  ---------------------------------------------------
  alpha Z        PSCENC =        96.17525229
  Ewald energy   TEWEN  =     38879.62748206
  -Hartree energ DENC   =    -47998.87276224
  -exchange      EXHF   =       557.25272410
  -V(xc)+E(xc)   XCENC  =       636.94896037
  PAW double counting   =     26828.03614241   -26963.92955903
  entropy T*S    EENTRO =        -0.00001276
  eigenvalues    EBANDS =     -3143.17741450
  atomic energy  EATOM  =     10527.68646155
  ---------------------------------------------------
  free energy    TOTEN  =      -580.25272916 eV

  energy without entropy =     -580.25271640  energy(sigma->0) =     -580.25272278
  exchange ACFDT corr.  =        -0.00000731  see jH, gK, PRB 81, 115126


--------------------------------------------------------------------------------------------------------




--------------------------------------- Iteration      1(  12)  ---------------------------------------


    POTLOK:  cpu time    2.0662: real time    2.0676
    SETDIJ:  cpu time    2.1073: real time    2.1127
    TRIAL :  cpu time  321.8192: real time  322.1788
    CORREC:  cpu time    0.0008: real time    0.0008
    CHARGE:  cpu time    1.3461: real time    1.3481
    --------------------------------------------
      LOOP:  cpu time  327.3410: real time  327.7122

 eigenvalue-minimisations  :     0
 total energy-change (2. order) :-0.6354481E-02  (-0.5583756E-02)
 number of electron     241.0000015 magnetization       3.0000045
 augmentation part       17.2441310 magnetization       2.5482565

 DIPCOR: dipole corrections for dipol
 direction  3 min pos     1,
 dipolmoment           0.000022      0.000006     -0.082314 electrons x Angstroem
 Tr[quadrupol]     -6424.943556

 energy correction for charged system         0.000000 eV
 dipol+quadrupol energy correction           -0.000194 eV
 added-field ion interaction         -0.010177 eV  (added to PSCEN)


 Free energy of the ion-electron system (eV)
  ---------------------------------------------------
  alpha Z        PSCENC =        96.17532592
  Ewald energy   TEWEN  =     38879.62748206
  -Hartree energ DENC   =    -47998.89779574
  -exchange      EXHF   =       557.27875234
  -V(xc)+E(xc)   XCENC  =       636.95915719
  PAW double counting   =     26828.24565091   -26964.16962712
  entropy T*S    EENTRO =        -0.00001049
  eigenvalues    EBANDS =     -3143.16447800
  atomic energy  EATOM  =     10527.68646155
  ---------------------------------------------------
  free energy    TOTEN  =      -580.25908364 eV

  energy without entropy =     -580.25907315  energy(sigma->0) =     -580.25907839
  exchange ACFDT corr.  =        -0.00000552  see jH, gK, PRB 81, 115126


--------------------------------------------------------------------------------------------------------




--------------------------------------- Iteration      1(  13)  ---------------------------------------


    POTLOK:  cpu time    2.0648: real time    2.0658
    SETDIJ:  cpu time    2.1116: real time    2.1129
    TRIAL :  cpu time  320.9546: real time  321.3080
    CORREC:  cpu time    0.0008: real time    0.0008
    CHARGE:  cpu time    1.3465: real time    1.3477
    --------------------------------------------
      LOOP:  cpu time  326.4797: real time  326.8398

 eigenvalue-minimisations  :     0
 total energy-change (2. order) :-0.5115884E-02  (-0.4576071E-02)
 number of electron     241.0000015 magnetization       3.0000035
 augmentation part       17.2466407 magnetization       2.5502996

 DIPCOR: dipole corrections for dipol
 direction  3 min pos     1,
 dipolmoment           0.000022      0.000006     -0.081817 electrons x Angstroem
 Tr[quadrupol]     -6424.940740

 energy correction for charged system         0.000000 eV
 dipol+quadrupol energy correction           -0.000191 eV
 added-field ion interaction         -0.010116 eV  (added to PSCEN)


 Free energy of the ion-electron system (eV)
  ---------------------------------------------------
  alpha Z        PSCENC =        96.17538974
  Ewald energy   TEWEN  =     38879.62748206
  -Hartree energ DENC   =    -47998.53287193
  -exchange      EXHF   =       557.29233885
  -V(xc)+E(xc)   XCENC  =       636.95647890
  PAW double counting   =     26828.15159188   -26963.98221439
  entropy T*S    EENTRO =        -0.00000891
  eigenvalues    EBANDS =     -3143.63884570
  atomic energy  EATOM  =     10527.68646155
  ---------------------------------------------------
  free energy    TOTEN  =      -580.26419952 eV

  energy without entropy =     -580.26419061  energy(sigma->0) =     -580.26419507
  exchange ACFDT corr.  =        -0.00000438  see jH, gK, PRB 81, 115126


--------------------------------------------------------------------------------------------------------




--------------------------------------- Iteration      1(  14)  ---------------------------------------


    POTLOK:  cpu time    2.0625: real time    2.0648
    SETDIJ:  cpu time    2.1101: real time    2.1134
    TRIAL :  cpu time  320.2012: real time  320.5715
    CORREC:  cpu time    0.0009: real time    0.0009
    CHARGE:  cpu time    1.3469: real time    1.3482
    --------------------------------------------
      LOOP:  cpu time  325.7231: real time  326.1026

 eigenvalue-minimisations  :     0
 total energy-change (2. order) :-0.4251467E-02  (-0.3757632E-02)
 number of electron     241.0000015 magnetization       3.0000028
 augmentation part       17.2463998 magnetization       2.5523960

 DIPCOR: dipole corrections for dipol
 direction  3 min pos     1,
 dipolmoment           0.000022      0.000006     -0.081448 electrons x Angstroem
 Tr[quadrupol]     -6424.940762

 energy correction for charged system         0.000000 eV
 dipol+quadrupol energy correction           -0.000190 eV
 added-field ion interaction         -0.010070 eV  (added to PSCEN)


 Free energy of the ion-electron system (eV)
  ---------------------------------------------------
  alpha Z        PSCENC =        96.17543708
  Ewald energy   TEWEN  =     38879.62748206
  -Hartree energ DENC   =    -47998.82740414
  -exchange      EXHF   =       557.31800908
  -V(xc)+E(xc)   XCENC  =       636.97171664
  PAW double counting   =     26828.78431930   -26964.71104596
  entropy T*S    EENTRO =        -0.00000777
  eigenvalues    EBANDS =     -3143.29341769
  atomic energy  EATOM  =     10527.68646155
  ---------------------------------------------------
  free energy    TOTEN  =      -580.26845099 eV

  energy without entropy =     -580.26844322  energy(sigma->0) =     -580.26844710
  exchange ACFDT corr.  =        -0.00000361  see jH, gK, PRB 81, 115126


--------------------------------------------------------------------------------------------------------




--------------------------------------- Iteration      1(  15)  ---------------------------------------


    POTLOK:  cpu time    2.0622: real time    2.0639
    SETDIJ:  cpu time    2.1105: real time    2.1131
    TRIAL :  cpu time  320.0119: real time  320.3659
    CORREC:  cpu time    0.0008: real time    0.0008
    CHARGE:  cpu time    1.3463: real time    1.3471
    --------------------------------------------
      LOOP:  cpu time  325.5331: real time  325.8950

 eigenvalue-minimisations  :     0
 total energy-change (2. order) :-0.3565207E-02  (-0.3189612E-02)
 number of electron     241.0000015 magnetization       3.0000023
 augmentation part       17.2456495 magnetization       2.5544636

 DIPCOR: dipole corrections for dipol
 direction  3 min pos     1,
 dipolmoment           0.000022      0.000006     -0.081076 electrons x Angstroem
 Tr[quadrupol]     -6424.939184

 energy correction for charged system         0.000000 eV
 dipol+quadrupol energy correction           -0.000188 eV
 added-field ion interaction         -0.010024 eV  (added to PSCEN)


 Free energy of the ion-electron system (eV)
  ---------------------------------------------------
  alpha Z        PSCENC =        96.17548478
  Ewald energy   TEWEN  =     38879.62748206
  -Hartree energ DENC   =    -47998.75426069
  -exchange      EXHF   =       557.33357641
  -V(xc)+E(xc)   XCENC  =       636.97559533
  PAW double counting   =     26829.62810241   -26965.55021958
  entropy T*S    EENTRO =        -0.00000693
  eigenvalues    EBANDS =     -3143.39423069
  atomic energy  EATOM  =     10527.68646155
  ---------------------------------------------------
  free energy    TOTEN  =      -580.27201619 eV

  energy without entropy =     -580.27200926  energy(sigma->0) =     -580.27201273
  exchange ACFDT corr.  =        -0.00000307  see jH, gK, PRB 81, 115126


--------------------------------------------------------------------------------------------------------




--------------------------------------- Iteration      1(  16)  ---------------------------------------


    POTLOK:  cpu time    2.0728: real time    2.0781
    SETDIJ:  cpu time    2.1129: real time    2.1145
    TRIAL :  cpu time  320.2405: real time  320.5972
    CORREC:  cpu time    0.0008: real time    0.0008
    CHARGE:  cpu time    1.3436: real time    1.3444
    --------------------------------------------
      LOOP:  cpu time  325.7721: real time  326.1391

 eigenvalue-minimisations  :     0
 total energy-change (2. order) :-0.3041707E-02  (-0.2759571E-02)
 number of electron     241.0000015 magnetization       3.0000020
 augmentation part       17.2461070 magnetization       2.5564064

 DIPCOR: dipole corrections for dipol
 direction  3 min pos     1,
 dipolmoment           0.000022      0.000006     -0.080849 electrons x Angstroem
 Tr[quadrupol]     -6424.937141

 energy correction for charged system         0.000000 eV
 dipol+quadrupol energy correction           -0.000187 eV
 added-field ion interaction         -0.009996 eV  (added to PSCEN)


 Free energy of the ion-electron system (eV)
  ---------------------------------------------------
  alpha Z        PSCENC =        96.17551388
  Ewald energy   TEWEN  =     38879.62748206
  -Hartree energ DENC   =    -47998.62528022
  -exchange      EXHF   =       557.34635215
  -V(xc)+E(xc)   XCENC  =       636.97753054
  PAW double counting   =     26830.68638527   -26966.59547061
  entropy T*S    EENTRO =        -0.00000630
  eigenvalues    EBANDS =     -3143.55402559
  atomic energy  EATOM  =     10527.68646155
  ---------------------------------------------------
  free energy    TOTEN  =      -580.27505790 eV

  energy without entropy =     -580.27505160  energy(sigma->0) =     -580.27505475
  exchange ACFDT corr.  =        -0.00000268  see jH, gK, PRB 81, 115126


--------------------------------------------------------------------------------------------------------




--------------------------------------- Iteration      1(  17)  ---------------------------------------


    POTLOK:  cpu time    2.0606: real time    2.0618
    SETDIJ:  cpu time    2.1111: real time    2.1137
    TRIAL :  cpu time  320.9285: real time  321.3726
    CORREC:  cpu time    0.0008: real time    0.0008
    CHARGE:  cpu time    1.3440: real time    1.3451
    --------------------------------------------
      LOOP:  cpu time  326.4467: real time  326.8977

 eigenvalue-minimisations  :     0
 total energy-change (2. order) :-0.2637659E-02  (-0.2402340E-02)
 number of electron     241.0000015 magnetization       3.0000018
 augmentation part       17.2449631 magnetization       2.5584432

 DIPCOR: dipole corrections for dipol
 direction  3 min pos     1,
 dipolmoment           0.000022      0.000006     -0.080764 electrons x Angstroem
 Tr[quadrupol]     -6424.935641

 energy correction for charged system         0.000000 eV
 dipol+quadrupol energy correction           -0.000186 eV
 added-field ion interaction         -0.009986 eV  (added to PSCEN)


 Free energy of the ion-electron system (eV)
  ---------------------------------------------------
  alpha Z        PSCENC =        96.17552477
  Ewald energy   TEWEN  =     38879.62748206
  -Hartree energ DENC   =    -47998.67269584
  -exchange      EXHF   =       557.36173637
  -V(xc)+E(xc)   XCENC  =       636.98438888
  PAW double counting   =     26831.91782378   -26967.87027553
  entropy T*S    EENTRO =        -0.00000581
  eigenvalues    EBANDS =     -3143.48813529
  atomic energy  EATOM  =     10527.68646155
  ---------------------------------------------------
  free energy    TOTEN  =      -580.27769556 eV

  energy without entropy =     -580.27768975  energy(sigma->0) =     -580.27769266
  exchange ACFDT corr.  =        -0.00000239  see jH, gK, PRB 81, 115126


--------------------------------------------------------------------------------------------------------




--------------------------------------- Iteration      1(  18)  ---------------------------------------


    POTLOK:  cpu time    2.0629: real time    2.0678
    SETDIJ:  cpu time    2.1102: real time    2.1118
    TRIAL :  cpu time  320.1521: real time  320.7464
[...]
  Alpha Z    96.18570    96.18570    96.18570
  Ewald   47258.46698 47493.83589-55872.70113     0.04432  -123.76372     0.02803
  Hartree 47076.33369 47167.50363-46247.30575     0.01411   -65.35987    -0.02716
  E(xc)    -717.58096  -717.91253  -732.23313     0.00016    -0.13160    -0.00001
  Local  -96937.69500-97252.38883 99055.33150    -0.05459   185.60567     0.00411
  n-local   -92.51852   -86.77835   -78.39043    -0.00337    -0.47055    -0.00026
  augment   102.16264   102.31161   106.25045    -0.00256    -1.40307     0.00156
  Kinetic  3586.77110  3566.09644  4060.70022     0.00304     3.71690    -0.00581
  Fock     -412.12253  -413.57762  -388.37362     0.00269     2.23236    -0.00161
  -------------------------------------------------------------------------------------
  Total     -39.99690   -44.72406    -0.53620     0.00381     0.42611    -0.00114
  in kB     -20.17132   -22.55533    -0.27042     0.00192     0.21490    -0.00058
  external pressure =      -14.33 kB  Pullay stress =        0.00 kB


 VOLUME and BASIS-vectors are now :
 -----------------------------------------------------------------------------
  energy-cutoff  :      500.00
  volume of cell :     3176.89
      direct lattice vectors                 reciprocal lattice vectors
    12.755200000  0.000000000  0.000000000     0.078399398  0.000000821  0.000020935
    -0.000129188 12.336499999  0.000000000     0.000000000  0.081060268  0.000005659
    -0.005391284 -0.001409542 20.189399231     0.000000000  0.000000000  0.049530944

  length of vectors
    12.755200000 12.336500000 20.189400000     0.078399401  0.081060269  0.049530944


 FORCES acting on ions:
    Electron-Ion                     Ewald-Force                    Non-Local-Force
 -----------------------------------------------------------------------------------------------
   0.445E+01 0.129E+01 -.108E+01   -.483E+01 -.131E+01 0.108E+01   0.405E+00 -.766E-02 0.684E-02
   0.121E+01 -.100E+01 -.262E+01   -.116E+01 0.967E+00 0.262E+01   0.103E-01 0.510E-01 -.626E-02
   0.436E+01 0.731E+00 -.626E+00   -.446E+01 -.740E+00 0.620E+00   0.849E-01 -.182E-01 0.749E-02
   0.124E+02 0.648E+01 -.769E+00   -.126E+02 -.668E+01 0.717E+00   0.273E+00 0.210E+00 0.508E-01
   0.151E+02 -.171E+01 -.214E+01   -.153E+02 0.198E+01 0.215E+01   0.339E+00 -.233E+00 -.129E-01
   0.369E+01 -.248E+01 -.115E+01   -.386E+01 0.228E+01 0.112E+01   0.192E+00 0.123E+00 0.288E-01
   0.290E+01 0.660E+00 -.358E+01   -.334E+01 -.557E+00 0.361E+01   0.317E+00 -.582E-01 -.344E-01
   0.448E+02 -.177E+02 0.185E+01   -.478E+02 0.180E+02 -.166E+01   0.324E+01 -.516E+00 -.205E+00
   0.767E+01 0.223E+02 -.205E+01   -.891E+01 -.242E+02 0.193E+01   0.126E+01 0.221E+01 0.120E+00
   0.895E+01 -.429E-01 -.188E+01   -.861E+01 0.671E-02 0.191E+01   -.998E-01 0.603E-02 -.222E-01
   0.505E+00 0.475E+01 -.135E+01   -.404E+00 -.518E+01 0.133E+01   -.185E+00 0.493E+00 0.162E-01
   0.371E+01 -.254E+02 -.642E+01   -.514E+01 0.271E+02 0.639E+01   0.136E+01 -.207E+01 0.226E-01
   0.279E+01 0.148E+01 0.661E+00   -.298E+01 -.129E+01 -.666E+00   0.197E+00 -.138E+00 0.995E-02
   -.785E+00 -.582E+01 -.881E+00   0.859E+00 0.630E+01 0.830E+00   -.112E+00 -.480E+00 0.473E-01
   0.296E+02 0.167E+02 -.657E+01   -.329E+02 -.171E+02 0.647E+01   0.350E+01 0.547E+00 0.137E+00
   0.104E+02 0.357E+01 -.979E+00   -.108E+02 -.372E+01 0.971E+00   0.360E+00 0.104E+00 0.771E-02
   0.102E+01 0.206E+01 0.128E+01   -.973E+00 -.198E+01 -.128E+01   0.712E-02 -.522E-01 0.120E-01
   0.927E+00 -.370E+00 0.160E+01   -.136E+01 0.243E+00 -.163E+01   0.330E+00 0.539E-01 0.328E-01
   0.941E+01 -.167E+01 -.225E+01   -.975E+01 0.197E+01 0.226E+01   0.319E+00 -.267E+00 -.772E-02
   -.454E+01 0.296E+01 -.422E+01   0.416E+01 -.293E+01 0.422E+01   0.328E+00 -.379E-01 -.408E-02
   0.350E+01 0.135E+02 -.309E+01   -.323E+01 -.139E+02 0.315E+01   -.215E+00 0.417E+00 -.757E-01
   0.453E+01 0.294E+01 -.423E+01   -.415E+01 -.292E+01 0.423E+01   -.329E+00 -.385E-01 -.572E-02
   -.349E+01 0.134E+02 -.310E+01   0.322E+01 -.139E+02 0.317E+01   0.215E+00 0.417E+00 -.770E-01
   0.102E+02 0.438E+02 0.245E+01   -.114E+02 -.464E+02 -.224E+01   0.145E+01 0.265E+01 -.218E+00
   -.102E+02 0.438E+02 0.239E+01   0.114E+02 -.464E+02 -.218E+01   -.145E+01 0.265E+01 -.220E+00
   0.106E+02 -.239E+02 -.764E+01   -.117E+02 0.267E+02 0.741E+01   0.137E+01 -.295E+01 0.212E+00
   0.254E+01 -.467E+01 -.414E+01   -.234E+01 0.530E+01 0.411E+01   -.109E+00 -.597E+00 0.185E-01
   -.106E+02 -.239E+02 -.763E+01   0.117E+02 0.267E+02 0.741E+01   -.137E+01 -.295E+01 0.214E+00
   -.255E+01 -.466E+01 -.420E+01   0.235E+01 0.528E+01 0.417E+01   0.107E+00 -.596E+00 0.181E-01
   -.437E+01 0.746E+00 -.681E+00   0.447E+01 -.755E+00 0.675E+00   -.842E-01 -.188E-01 0.822E-02
   -.124E+02 0.648E+01 -.786E+00   0.126E+02 -.668E+01 0.732E+00   -.272E+00 0.209E+00 0.513E-01
   -.444E+01 0.129E+01 -.121E+01   0.482E+01 -.132E+01 0.121E+01   -.404E+00 -.992E-02 0.445E-02
   -.121E+01 -.100E+01 -.263E+01   0.116E+01 0.967E+00 0.263E+01   -.934E-02 0.499E-01 -.739E-02
   -.289E+01 0.636E+00 -.346E+01   0.333E+01 -.533E+00 0.349E+01   -.314E+00 -.586E-01 -.334E-01
   -.448E+02 -.178E+02 0.201E+01   0.478E+02 0.181E+02 -.182E+01   -.324E+01 -.515E+00 -.203E+00
   -.151E+02 -.172E+01 -.204E+01   0.153E+02 0.199E+01 0.205E+01   -.338E+00 -.233E+00 -.130E-01
   -.367E+01 -.246E+01 -.101E+01   0.385E+01 0.226E+01 0.979E+00   -.193E+00 0.124E+00 0.322E-01
   -.470E+00 0.473E+01 -.125E+01   0.368E+00 -.517E+01 0.123E+01   0.183E+00 0.492E+00 0.162E-01
   -.766E+01 0.223E+02 -.191E+01   0.889E+01 -.242E+02 0.179E+01   -.126E+01 0.221E+01 0.119E+00
   -.892E+01 -.456E-01 -.191E+01   0.858E+01 0.939E-02 0.193E+01   0.975E-01 0.572E-02 -.229E-01
   0.832E+00 -.581E+01 -.978E+00   -.907E+00 0.629E+01 0.927E+00   0.113E+00 -.479E+00 0.465E-01
   -.296E+02 0.168E+02 -.667E+01   0.328E+02 -.171E+02 0.657E+01   -.350E+01 0.546E+00 0.132E+00
   -.368E+01 -.254E+02 -.639E+01   0.511E+01 0.272E+02 0.636E+01   -.136E+01 -.207E+01 0.243E-01
   -.277E+01 0.148E+01 0.507E+00   0.296E+01 -.129E+01 -.510E+00   -.199E+00 -.135E+00 0.548E-02
   -.910E+00 -.353E+00 0.148E+01   0.134E+01 0.227E+00 -.151E+01   -.331E+00 0.578E-01 0.333E-01
   -.942E+01 -.164E+01 -.236E+01   0.976E+01 0.195E+01 0.237E+01   -.321E+00 -.267E+00 -.745E-02
   -.104E+02 0.358E+01 -.110E+01   0.107E+02 -.374E+01 0.109E+01   -.361E+00 0.104E+00 0.847E-02
   -.998E+00 0.206E+01 0.123E+01   0.945E+00 -.198E+01 -.123E+01   -.436E-02 -.518E-01 0.114E-01
   -.105E+03 -.625E+01 -.169E+02   0.135E+03 0.623E+01 0.174E+02   -.287E+02 0.375E-02 -.468E+00
   0.298E+02 -.417E+02 0.130E+02   -.183E+02 0.626E+02 -.143E+02   -.110E+02 -.198E+02 0.125E+01
   -.298E+02 -.419E+02 0.132E+02   0.182E+02 0.627E+02 -.145E+02   0.110E+02 -.198E+02 0.126E+01
   -.281E+01 0.657E+02 -.166E+02   0.129E+02 -.846E+02 0.168E+02   -.994E+01 0.181E+02 -.110E+00
   0.277E+01 0.658E+02 -.164E+02   -.129E+02 -.847E+02 0.165E+02   0.995E+01 0.181E+02 -.898E-01
   0.105E+03 -.626E+01 -.167E+02   -.135E+03 0.623E+01 0.172E+02   0.287E+02 0.663E-02 -.461E+00
   -.155E+00 -.162E+03 0.381E+03   0.151E+00 0.162E+03 -.376E+03   0.767E-02 -.211E+00 -.440E+01
   -.115E+00 0.638E+02 -.251E+03   0.113E+00 -.607E+02 0.246E+03   0.345E-02 -.328E+01 0.537E+01
 -----------------------------------------------------------------------------------------------
   -.188E-01 0.837E+01 -.282E+01   0.313E-12 0.185E-12 0.853E-13   0.183E-01 -.791E+01 0.264E+01
 
 
 POSITION                                       TOTAL-FORCE (eV/Angst)
 -----------------------------------------------------------------------------------
      2.82431      0.00155     10.09653         0.046793     -0.031572      0.004344
      0.70141      1.24611     10.09588         0.056824      0.013858     -0.006617
      1.39998      0.00336     10.09592        -0.011635     -0.029460      0.002342
      3.53131      1.24217     10.07794         0.030615      0.028735      0.000972
      2.84458      2.49399     10.07164         0.116609      0.022735     -0.009212
      0.70585      3.72138     10.08839         0.030593     -0.075248     -0.001535
      1.41216      2.48717     10.09021        -0.112963      0.043986     -0.009994
      3.60298      3.71635     10.03428         0.443907     -0.257698     -0.021816
      2.88701      4.99804     10.08056         0.096433      0.429270      0.006605
      0.70957      6.17283     10.10055         0.248824     -0.030730     -0.001844
      1.43768      4.94875     10.09006        -0.098697      0.084864     -0.005174
      2.87983      7.35263     10.12745         0.009130     -0.414926     -0.003491
      0.70491      8.62539     10.10283         0.016721      0.044660      0.006887
      1.43171      7.39790     10.10719        -0.049050     -0.036350     -0.000409
      3.59707      8.62354     10.14916         0.483513      0.221295      0.045878
      2.84727      9.84770     10.11936         0.042903     -0.040521      0.001462
      0.70160     11.09684     10.09620         0.057755      0.025665      0.010849
      1.41391      9.85709     10.10223        -0.086872     -0.074650      0.009604
      3.53162     11.10049     10.11511         0.001843      0.022519      0.002795
      7.07146      0.00053     10.10316        -0.047737     -0.014283     -0.004956
      4.95282      1.23733     10.07064         0.033774      0.032955     -0.017190
      5.65768      0.00056     10.10314         0.046699     -0.014192     -0.006356
      7.77620      1.23732     10.07063        -0.034811      0.032814     -0.017937
      7.09566      2.48651     10.01010         0.342005      0.244148     -0.018984
      5.63331      2.48653     10.01028        -0.342417      0.243232     -0.020105
      7.08806      9.85461     10.16521         0.347530     -0.271079     -0.002396
      4.95453     11.10170     10.12759         0.075968     -0.007835     -0.006561
      5.64072      9.85466     10.16522        -0.346062     -0.270948     -0.001737
      7.77435     11.10163     10.12779        -0.077482     -0.007717     -0.007082
     11.32896      0.00337     10.09613         0.012731     -0.030219      0.002547
      9.19764      1.24218     10.07795        -0.028329      0.028493      0.001094
      9.90468      0.00161     10.09692        -0.046764     -0.034794      0.002639
     12.02752      1.24613     10.09586        -0.055890      0.012675     -0.007447
     11.31679      2.48719     10.08982         0.115866      0.044074     -0.008740
      9.12598      3.71627     10.03368        -0.442521     -0.255425     -0.021097
      9.88437      2.49399     10.07124        -0.115341      0.022499     -0.009025
     12.02332      3.72133     10.08801        -0.032626     -0.073316      0.000989
     11.29157      4.94871     10.08966         0.095998      0.083864     -0.004847
      9.84218      4.99790     10.07995        -0.098016      0.430739      0.006485
     12.01968      6.17279     10.10054        -0.251809     -0.031019     -0.002995
     11.29740      7.39780     10.10738         0.048450     -0.035993     -0.001330
      9.13175      8.62346     10.14932        -0.482710      0.219021      0.042639
      9.84921      7.35251     10.12727        -0.010636     -0.414121     -0.001767
     12.02417      8.62528     10.10319        -0.018317      0.046509      0.003289
     11.31500      9.85689     10.10264         0.085592     -0.070312      0.009618
      9.19727     11.10046     10.11551        -0.002822      0.021778      0.002429
      9.88163      9.84760     10.11977        -0.044759     -0.041283      0.001975
     12.02708     11.09680     10.09639        -0.055938      0.025250      0.010571
      3.56708      6.17784     10.12005        -0.908492     -0.024498     -0.010418
      4.96635      3.67487      9.96019        -0.382418     -0.626434      0.104435
      7.76258      3.67483      9.95977         0.382957     -0.624038      0.104143
      4.97379      8.64994     10.19363        -0.732107      0.855717      0.004255
      7.75491      8.64981     10.19326         0.734160      0.854794      0.007842
      9.16206      6.17766     10.11945         0.908736     -0.022978     -0.009623
      6.36405      5.07349      9.60648         0.002579     -0.235932     -0.026627
      6.36416      7.23495     10.46379         0.001715     -0.038577     -0.129376
 -----------------------------------------------------------------------------------
    total drift:                                0.000316      0.072976     -0.025633


--------------------------------------------------------------------------------------------------------



  FREE ENERGIE OF THE ION-ELECTRON SYSTEM (eV)
  ---------------------------------------------------
  free  energy   TOTEN  =      -580.29909301 eV

  energy  without entropy=     -580.29909015  energy(sigma->0) =     -580.29909158
 


--------------------------------------------------------------------------------------------------------


    POTLOK:  cpu time    4.1793: real time    4.1820


--------------------------------------------------------------------------------------------------------


 stress matrix after NEB project (eV)
    -39.99690      0.00381     -0.00114
      0.00381    -44.72406      0.44161
     -0.00114      0.42611     -0.53620
  FORCES: max atom, RMS     1.126821    0.383948
  FORCE total and by dimension    2.873203    0.908736
  Stress total and by dimension   60.005481   44.724060
 writing wavefunctions
     LOOP+:  cpu time17340.5095: real time17364.7774
    4ORBIT:  cpu time    0.0000: real time    0.0000
 


 total charge     
 
# of ion       s       p       d       tot
------------------------------------------
    1        0.864   1.785   0.000   2.649
    2        0.866   1.769   0.000   2.635
    3        0.867   1.777   0.000   2.644
    4        0.870   1.765   0.000   2.635
    5        0.865   1.765   0.000   2.630
    6        0.863   1.771   0.000   2.634
    7        0.866   1.768   0.000   2.634
    8        0.855   1.720   0.000   2.575
    9        0.853   1.718   0.000   2.571
   10        0.868   1.759   0.000   2.627
   11        0.865   1.761   0.000   2.625
   12        0.855   1.728   0.000   2.582
   13        0.864   1.775   0.000   2.639
   14        0.866   1.765   0.000   2.630
   15        0.855   1.721   0.000   2.575
   16        0.864   1.767   0.000   2.631
   17        0.866   1.769   0.000   2.635
   18        0.866   1.768   0.000   2.634
   19        0.870   1.766   0.000   2.636
   20        0.866   1.795   0.000   2.661
   21        0.870   1.783   0.000   2.653
   22        0.866   1.795   0.000   2.661
   23        0.870   1.784   0.000   2.653
   24        0.861   1.739   0.000   2.600
   25        0.861   1.739   0.000   2.600
   26        0.860   1.741   0.000   2.600
   27        0.869   1.783   0.000   2.652
   28        0.860   1.741   0.000   2.600
   29        0.869   1.783   0.000   2.652
   30        0.867   1.777   0.000   2.644
   31        0.870   1.765   0.000   2.635
   32        0.864   1.785   0.000   2.649
   33        0.866   1.769   0.000   2.635
   34        0.866   1.768   0.000   2.634
   35        0.855   1.720   0.000   2.575
   36        0.865   1.765   0.000   2.630
   37        0.863   1.771   0.000   2.634
   38        0.865   1.761   0.000   2.625
   39        0.853   1.718   0.000   2.571
   40        0.868   1.759   0.000   2.627
   41        0.866   1.765   0.000   2.630
   42        0.854   1.721   0.000   2.575
   43        0.854   1.728   0.000   2.582
   44        0.864   1.775   0.000   2.639
   45        0.866   1.768   0.000   2.634
   46        0.870   1.766   0.000   2.636
   47        0.864   1.767   0.000   2.631
   48        0.866   1.769   0.000   2.634
   49        1.251   2.607   0.000   3.858
   50        1.235   2.660   0.000   3.895
   51        1.235   2.659   0.000   3.895
   52        1.232   2.669   0.000   3.901
   53        1.232   2.669   0.000   3.900
   54        1.251   2.607   0.000   3.858
   55        0.369   0.279   9.377  10.024
   56        0.371   0.308   6.165   6.845
--------------------------------------------------
tot         49.634 100.978  15.542 166.154
 


 magnetization (x)
 
# of ion       s       p       d       tot
------------------------------------------
    1        0.000   0.002   0.000   0.003
    2        0.000   0.001   0.000   0.001
    3       -0.000  -0.002   0.000  -0.002
    4       -0.000  -0.000   0.000  -0.000
    5        0.000   0.001   0.000   0.001
    6        0.000   0.001   0.000   0.001
    7       -0.000  -0.003   0.000  -0.003
    8       -0.000  -0.003   0.000  -0.003
    9        0.000   0.002   0.000   0.003
   10       -0.000  -0.001   0.000  -0.001
   11       -0.000  -0.002   0.000  -0.002
   12        0.000   0.006   0.000   0.007
   13        0.000   0.003   0.000   0.003
   14       -0.000  -0.001   0.000  -0.001
   15       -0.001  -0.010   0.000  -0.011
   16        0.001   0.005   0.000   0.006
   17        0.000   0.000   0.000   0.001
   18       -0.000  -0.002   0.000  -0.002
   19       -0.000  -0.004   0.000  -0.004
   20       -0.000   0.000   0.000   0.000
   21       -0.000   0.000   0.000  -0.000
   22       -0.000   0.000   0.000   0.000
   23       -0.000   0.000   0.000  -0.000
   24       -0.001  -0.001   0.000  -0.002
   25       -0.001  -0.001   0.000  -0.002
   26        0.001   0.004   0.000   0.005
   27        0.000   0.000   0.000   0.001
   28        0.001   0.004   0.000   0.005
   29        0.000   0.000   0.000   0.001
   30       -0.000  -0.002   0.000  -0.002
   31       -0.000  -0.000   0.000  -0.000
   32        0.000   0.002   0.000   0.003
   33        0.000   0.001   0.000   0.001
   34       -0.000  -0.003   0.000  -0.003
   35       -0.000  -0.003   0.000  -0.003
   36        0.000   0.001   0.000   0.001
   37        0.000   0.001   0.000   0.001
   38       -0.000  -0.002   0.000  -0.002
   39        0.000   0.002   0.000   0.003
   40       -0.000  -0.001   0.000  -0.001
   41       -0.000  -0.001   0.000  -0.001
   42       -0.001  -0.010   0.000  -0.011
   43        0.000   0.006   0.000   0.007
   44        0.000   0.003   0.000   0.003
   45       -0.000  -0.002   0.000  -0.002
   46       -0.000  -0.004   0.000  -0.004
   47        0.001   0.005   0.000   0.006
   48        0.000   0.000   0.000   0.001
   49       -0.003  -0.019   0.000  -0.023
   50       -0.003  -0.011   0.000  -0.014
   51       -0.003  -0.011   0.000  -0.014
   52        0.002   0.020   0.000   0.022
   53        0.002   0.020   0.000   0.022
   54       -0.003  -0.019   0.000  -0.023
   55       -0.078  -0.058   0.013  -0.124
   56       -0.043   0.006   3.287   3.250
--------------------------------------------------
tot         -0.130  -0.077   3.299   3.092
 

 total amount of memory used by VASP MPI-rank0   215723. kBytes
=======================================================================

   base      :      30000. kBytes
   nonl-proj :       6963. kBytes
   fftplans  :      17533. kBytes
   grid      :      46049. kBytes
   one-center:         93. kBytes
   HF        :         46. kBytes
   nonlr-proj:      14164. kBytes
   wavefun   :     100875. kBytes
 
  
  
 General timing and accounting informations for this job:
 ========================================================
  
                  Total CPU time used (sec):    17390.699
                            User time (sec):    17364.954
                          System time (sec):       25.745
                         Elapsed time (sec):    17421.313
  
                   Maximum memory used (kb):      482708.
                   Average memory used (kb):           0.
  
                          Minor page faults:       910837
                          Major page faults:          206
                 Voluntary context switches:       211972
