 vasp.5.4.4.18Apr17-6-g9f103f2a35 (build Feb 25 2019 10:51:38) complex          
  
 executed on             LinuxIFC date 2021.08.06  12:20:59
 running on   32 total cores
 distrk:  each k-point on   32 cores,    1 groups
 distr:  one band on NCORES_PER_BAND=  32 cores,    1 groups


--------------------------------------------------------------------------------------------------------


 INCAR:
 POTCAR:    PAW_PBE C 08Apr2002                   
 POTCAR:    PAW_PBE N 08Apr2002                   
 POTCAR:    PAW_PBE Fe 06Sep2000                  

 ----------------------------------------------------------------------------- 
|                                                                             |
|           W    W    AA    RRRRR   N    N  II  N    N   GGGG   !!!           |
|           W    W   A  A   R    R  NN   N  II  NN   N  G    G  !!!           |
|           W    W  A    A  R    R  N N  N  II  N N  N  G       !!!           |
|           W WW W  AAAAAA  RRRRR   N  N N  II  N  N N  G  GGG   !            |
|           WW  WW  A    A  R   R   N   NN  II  N   NN  G    G                |
|           W    W  A    A  R    R  N    N  II  N    N   GGGG   !!!           |
|                                                                             |
|      For optimal performance we recommend to set                            |
|        NCORE= 4 - approx SQRT( number of cores)                             |
|      NCORE specifies how many cores store one orbital (NPAR=cpu/NCORE).     |
|      This setting can  greatly improve the performance of VASP for DFT.     |
|      The default,   NCORE=1            might be grossly inefficient         |
|      on modern multi-core architectures or massively parallel machines.     |
|      Do your own testing !!!!                                               |
|      Unfortunately you need to use the default for GW and RPA calculations. |
|      (for HF NCORE is supported but not extensively tested yet)             |
|                                                                             |
 ----------------------------------------------------------------------------- 

 POTCAR:    PAW_PBE C 08Apr2002                   
   VRHFIN =C: s2p2                                                              
   LEXCH  = PE                                                                  
   EATOM  =   147.1560 eV,   10.8157 Ry                                         
                                                                                
   TITEL  = PAW_PBE C 08Apr2002                                                 
   LULTRA =        F    use ultrasoft PP ?                                      
   IUNSCR =        1    unscreen: 0-lin 1-nonlin 2-no                           
   RPACOR =    1.200    partial core radius                                     
   POMASS =   12.011; ZVAL   =    4.000    mass and valenz                      
   RCORE  =    1.500    outmost cutoff radius                                   
   RWIGS  =    1.630; RWIGS  =    0.863    wigner-seitz radius (au A)           
   ENMAX  =  400.000; ENMIN  =  300.000 eV                                      
   ICORE  =        2    local potential                                         
   LCOR   =        T    correct aug charges                                     
   LPAW   =        T    paw PP                                                  
   EAUG   =  644.873                                                            
   DEXC   =    0.000                                                            
   RMAX   =    1.529    core radius for proj-oper                               
   RAUG   =    1.300    factor for augmentation sphere                          
   RDEP   =    1.501    radius for radial grids                                 
   RDEPT  =    1.300    core radius for aug-charge                              
                                                                                
   Atomic configuration                                                         
    4 entries                                                                   
     n  l   j            E        occ.                                          
     1  0  0.50      -273.3789   2.0000                                         
     2  0  0.50       -13.7508   2.0000                                         
     2  1  0.50        -5.2854   2.0000                                         
     3  2  1.50        -5.4423   0.0000                                         
   Description                                                                  
     l       E           TYP  RCUT    TYP  RCUT                                 
     0    -13.7508458     23  1.200                                             
     0     -8.2022199     23  1.200                                             
     1     -5.2854383     23  1.500                                             
     1     34.0145650     23  1.500                                             
     2     -5.4423304      7  1.500                                             
  local pseudopotential read in
  partial core-charges read in
  partial kinetic energy density read in
  atomic valenz-charges read in
  non local Contribution for L=           0  read in
    real space projection operators read in
  non local Contribution for L=           0  read in
    real space projection operators read in
  non local Contribution for L=           1  read in
    real space projection operators read in
  non local Contribution for L=           1  read in
    real space projection operators read in
    PAW grid and wavefunctions read in
 
   number of l-projection  operators is LMAX  =           4
   number of lm-projection operators is LMMAX =           8
 
 POTCAR:    PAW_PBE N 08Apr2002                   
   VRHFIN =N: s2p3                                                              
   LEXCH  = PE                                                                  
   EATOM  =   264.5486 eV,   19.4438 Ry                                         
                                                                                
   TITEL  = PAW_PBE N 08Apr2002                                                 
   LULTRA =        F    use ultrasoft PP ?                                      
   IUNSCR =        1    unscreen: 0-lin 1-nonlin 2-no                           
   RPACOR =    1.200    partial core radius                                     
   POMASS =   14.001; ZVAL   =    5.000    mass and valenz                      
   RCORE  =    1.500    outmost cutoff radius                                   
   RWIGS  =    1.400; RWIGS  =    0.741    wigner-seitz radius (au A)           
   ENMAX  =  400.000; ENMIN  =  300.000 eV                                      
   ICORE  =        2    local potential                                         
   LCOR   =        T    correct aug charges                                     
   LPAW   =        T    paw PP                                                  
   EAUG   =  627.112                                                            
   DEXC   =    0.000                                                            
   RMAX   =    1.529    core radius for proj-oper                               
   RAUG   =    1.300    factor for augmentation sphere                          
   RDEP   =    1.514    radius for radial grids                                 
   RDEPT  =    1.338    core radius for aug-charge                              
                                                                                
   Atomic configuration                                                         
    4 entries                                                                   
     n  l   j            E        occ.                                          
     1  0  0.50      -384.7179   2.0000                                         
     2  0  0.50       -18.5828   2.0000                                         
     2  1  0.50        -7.0898   3.0000                                         
     3  2  1.50        -6.8029   0.0000                                         
   Description                                                                  
     l       E           TYP  RCUT    TYP  RCUT                                 
     0    -18.5828119     23  1.200                                             
     0    -13.5018863     23  1.200                                             
     1     -7.0897853     23  1.500                                             
     1      9.5240782     23  1.500                                             
     2     -6.8029130      7  1.500                                             
  local pseudopotential read in
  partial core-charges read in
  partial kinetic energy density read in
  atomic valenz-charges read in
  non local Contribution for L=           0  read in
    real space projection operators read in
  non local Contribution for L=           0  read in
    real space projection operators read in
  non local Contribution for L=           1  read in
    real space projection operators read in
  non local Contribution for L=           1  read in
    real space projection operators read in
    PAW grid and wavefunctions read in
 
   number of l-projection  operators is LMAX  =           4
   number of lm-projection operators is LMMAX =           8
 
 POTCAR:    PAW_PBE Fe 06Sep2000                  
   VRHFIN =Fe:  d7 s1                                                           
   LEXCH  = PE                                                                  
   EATOM  =   594.3153 eV,   43.6809 Ry                                         
                                                                                
   TITEL  = PAW_PBE Fe 06Sep2000                                                
   LULTRA =        F    use ultrasoft PP ?                                      
   IUNSCR =        1    unscreen: 0-lin 1-nonlin 2-no                           
   RPACOR =    2.000    partial core radius                                     
   POMASS =   55.847; ZVAL   =    8.000    mass and valenz                      
   RCORE  =    2.300    outmost cutoff radius                                   
   RWIGS  =    2.460; RWIGS  =    1.302    wigner-seitz radius (au A)           
   ENMAX  =  267.882; ENMIN  =  200.911 eV                                      
   RCLOC  =    1.701    cutoff for local pot                                    
   LCOR   =        T    correct aug charges                                     
   LPAW   =        T    paw PP                                                  
   EAUG   =  511.368                                                            
   DEXC   =    0.000                                                            
   RMAX   =    2.356    core radius for proj-oper                               
   RAUG   =    1.300    factor for augmentation sphere                          
   RDEP   =    2.442    radius for radial grids                                 
   RDEPT  =    1.890    core radius for aug-charge                              
                                                                                
   Atomic configuration                                                         
    9 entries                                                                   
     n  l   j            E        occ.                                          
     1  0  0.50     -6993.8440   2.0000                                         
     2  0  0.50      -814.6047   2.0000                                         
     2  1  1.50      -693.3689   6.0000                                         
     3  0  0.50       -89.4732   2.0000                                         
     3  1  1.50       -55.6373   6.0000                                         
     3  2  2.50        -3.8151   7.0000                                         
     4  0  0.50        -4.2551   1.0000                                         
     4  1  1.50        -3.4015   0.0000                                         
     4  3  2.50        -1.3606   0.0000                                         
   Description                                                                  
     l       E           TYP  RCUT    TYP  RCUT                                 
     2     -3.8151135     23  2.300                                             
     2     -5.1756961     23  2.300                                             
     0     -4.2550963     23  2.300                                             
     0      7.2035603     23  2.300                                             
     1     -2.7211652     23  2.300                                             
     1     18.4316424     23  2.300                                             
  local pseudopotential read in
  partial core-charges read in
  partial kinetic energy density read in
  atomic valenz-charges read in
  non local Contribution for L=           2  read in
    real space projection operators read in
  non local Contribution for L=           2  read in
    real space projection operators read in
  non local Contribution for L=           0  read in
    real space projection operators read in
  non local Contribution for L=           0  read in
    real space projection operators read in
  non local Contribution for L=           1  read in
    real space projection operators read in
  non local Contribution for L=           1  read in
    real space projection operators read in
    PAW grid and wavefunctions read in
 
   number of l-projection  operators is LMAX  =           6
   number of lm-projection operators is LMMAX =          18
 

 ----------------------------------------------------------------------------- 
|                                                                             |
|  ADVICE TO THIS USER RUNNING 'VASP/VAMP'   (HEAR YOUR MASTER'S VOICE ...):  |
|                                                                             |
|      You have a (more or less) 'large supercell' and for larger cells       |
|      it might be more efficient to use real space projection opertators     |
|      So try LREAL= Auto  in the INCAR   file.                               |
|      Mind:          For very  accurate calculation you might also keep the  |
|      reciprocal projection scheme          (i.e. LREAL=.FALSE.)             |
|                                                                             |
 ----------------------------------------------------------------------------- 

  PAW_PBE C 08Apr2002                   :
 energy of atom  1       EATOM= -147.1560
 kinetic energy error for atom=    0.0076 (will be added to EATOM!!)
  PAW_PBE N 08Apr2002                   :
 energy of atom  2       EATOM= -264.5486
 kinetic energy error for atom=    0.0138 (will be added to EATOM!!)
  PAW_PBE Fe 06Sep2000                  :
 energy of atom  3       EATOM= -594.3153
 kinetic energy error for atom=    0.0026 (will be added to EATOM!!)
 
 
 POSCAR:  C  N Fe                                
  positions in cartesian coordinates
  No initial velocities read in
 exchange correlation table for  LEXCH =        8
   RHO(1)=    0.500       N(1)  =     2000
   RHO(2)=  100.500       N(2)  =     4000

 VTST: version 3.2, (02/03/18)

 CHAIN: initializing optimizer
 
 OPT: Using VASP Conjugate-Gradient optimizer
 CHAIN: Read ICHAIN            0
 
 POSCAR:  C  N Fe                                
  positions in cartesian coordinates
  No initial velocities read in
 


--------------------------------------------------------------------------------------------------------


 ion  position               nearest neighbor table
   1  0.221  0.000  0.500-   3 1.42  20 1.43   4 1.44
   2  0.055  0.101  0.500-  34 1.42   7 1.44   3 1.44
   3  0.110  0.000  0.500-   1 1.42   2 1.44  18 1.44
   4  0.277  0.100  0.500-  22 1.42   5 1.43   1 1.44
   5  0.223  0.201  0.501-   4 1.43   7 1.43   8 1.45
   6  0.055  0.300  0.501-  38 1.43   7 1.44  11 1.44
   7  0.111  0.200  0.501-   5 1.43   2 1.44   6 1.44
   8  0.281  0.300  0.500-  51 1.42   5 1.45   9 1.45
   9  0.223  0.400  0.501-  11 1.43  12 1.44   8 1.45
  10  0.054  0.500  0.501-  42 1.44  11 1.44  15 1.45
  11  0.111  0.400  0.501-   9 1.43   6 1.44  10 1.44
  12  0.279  0.500  0.500-  52 1.40   9 1.44  13 1.44
  13  0.223  0.600  0.500-  15 1.43  12 1.44  16 1.46
  14  0.055  0.700  0.501-  46 1.43  19 1.44  15 1.44
  15  0.111  0.600  0.501-  13 1.43  14 1.44  10 1.45
  16  0.281  0.700  0.500-  53 1.42  17 1.45  13 1.46
  17  0.223  0.800  0.501-  19 1.43  20 1.43  16 1.45
  18  0.055  0.899  0.500-  50 1.42  19 1.44   3 1.44
  19  0.111  0.800  0.501-  17 1.43  18 1.44  14 1.44
  20  0.276  0.901  0.500-  28 1.42  17 1.43   1 1.43
  21  0.555  0.000  0.500-  23 1.42  24 1.42  30 1.42
  22  0.388  0.099  0.500-  26 1.42  23 1.42   4 1.42
  23  0.443  0.001  0.500-  21 1.42  22 1.42  28 1.43
  24  0.611  0.098  0.500-  25 1.41  32 1.42  21 1.42
  25  0.557  0.196  0.500-  55 1.37  24 1.41  26 1.44
  26  0.444  0.198  0.500-  51 1.42  22 1.42  25 1.44
  27  0.555  0.805  0.500-  30 1.41  54 1.41  29 1.44
  28  0.387  0.902  0.500-  29 1.41  20 1.42  23 1.43
  29  0.443  0.804  0.500-  28 1.41  53 1.42  27 1.44
  30  0.611  0.902  0.501-  27 1.41  21 1.42  48 1.42
  31  0.889  1.000  0.500-  33 1.41  34 1.44  50 1.44
  32  0.723  0.099  0.500-  24 1.42  37 1.43  33 1.43
  33  0.778  0.999  0.500-  31 1.41  32 1.43  48 1.43
  34  0.944  0.100  0.500-   2 1.42  35 1.44  31 1.44
  35  0.888  0.200  0.500-  37 1.43  38 1.43  34 1.44
  36  0.716  0.297  0.500-  55 1.38  37 1.44  41 1.45
  37  0.776  0.199  0.500-  32 1.43  35 1.43  36 1.44
  38  0.943  0.300  0.501-   6 1.43  35 1.43  39 1.44
  39  0.885  0.399  0.501-  41 1.44  38 1.44  42 1.45
  40  0.718  0.500  0.499-  56 1.34  41 1.45  45 1.45
  41  0.773  0.398  0.500-  39 1.44  40 1.45  36 1.45
  42  0.942  0.499  0.501-  10 1.44  43 1.44  39 1.45
  43  0.886  0.599  0.501-  45 1.43  42 1.44  46 1.45
  44  0.717  0.701  0.501-  54 1.42  49 1.45  45 1.45
  45  0.774  0.600  0.500-  43 1.43  40 1.45  44 1.45
  46  0.943  0.700  0.501-  14 1.43  47 1.44  43 1.45
  47  0.887  0.800  0.501-  49 1.43  50 1.44  46 1.44
  48  0.722  0.900  0.501-  30 1.42  49 1.43  33 1.43
  49  0.776  0.800  0.501-  47 1.43  48 1.43  44 1.45
  50  0.944  0.899  0.500-  18 1.42  47 1.44  31 1.44
  51  0.393  0.299  0.499-  26 1.42   8 1.42  57 1.96
  52  0.388  0.499  0.497-  12 1.40  57 1.83  58 1.85
  53  0.393  0.703  0.499-  29 1.42  16 1.42  58 2.00
  54  0.606  0.705  0.500-  27 1.41  44 1.42  58 1.96
  55  0.608  0.293  0.500-  25 1.37  36 1.38  57 1.99
  56  0.613  0.501  0.496-  40 1.34  58 1.80  57 1.83
  57  0.502  0.409  0.493-  52 1.83  56 1.83  51 1.96  55 1.99  58 2.25
  58  0.502  0.589  0.491-  56 1.80  52 1.85  54 1.96  53 2.00  57 2.25
 
  LATTYP: Found a triclinic cell.
 ALAT       =    12.4969119303
 B/A-ratio  =     1.4289719069
 C/A-ratio  =     1.5929013719
 COS(alpha) =     0.0002145298
 COS(beta)  =     0.0004311590
 COS(gamma) =     0.6989992342
  
  Lattice vectors:
  
 A1 = (  -0.0073595058,  12.4969097262,  -0.0009626111)
 A2 = (  12.7631141050,  12.4900622052,  -0.0014299593)
 A3 = (  -0.0031519514,   0.0070476024, -19.9063466608)


Analysis of symmetry for initial positions (statically):
=====================================================================
 Subroutine PRICEL returns:
 Original cell was already a primitive cell.
 

 Routine SETGRP: Setting up the symmetry group for a 
 triclinic supercell.


 Subroutine GETGRP returns: Found  1 space group operations
 (whereof  1 operations were pure point group operations)
 out of a pool of  2 trial point group operations.


The static configuration has the point symmetry C_1 .


Analysis of symmetry for dynamics (positions and initial velocities):
=====================================================================
 Subroutine PRICEL returns:
 Original cell was already a primitive cell.
 

 Routine SETGRP: Setting up the symmetry group for a 
 triclinic supercell.


 Subroutine GETGRP returns: Found  1 space group operations
 (whereof  1 operations were pure point group operations)
 out of a pool of  2 trial point group operations.


The dynamic configuration has the point symmetry C_1 .


Analysis of structural, dynamic, and magnetic symmetry:
=====================================================================
 Subroutine PRICEL returns:
 Original cell was already a primitive cell.
 

 Routine SETGRP: Setting up the symmetry group for a 
 triclinic supercell.


 Subroutine GETGRP returns: Found  1 space group operations
 (whereof  1 operations were pure point group operations)
 out of a pool of  2 trial point group operations.


The magnetic configuration has the point symmetry C_1 .


 Subroutine INISYM returns: Found  1 space group operations
 (whereof  1 operations are pure point group operations),
 and found     1 'primitive' translations

 
 
 KPOINTS: KPOINTS created by Atomic Simulation Env

Automatic generation of k-mesh.
Space group operators:
 irot       det(A)        alpha          n_x          n_y          n_z        tau_x        tau_y        tau_z
    1     1.000000     0.000000     1.000000     0.000000     0.000000     0.000000     0.000000     0.000000
 
 Subroutine IBZKPT returns following result:
 ===========================================
 
 Found      2 irreducible k-points:
 
 Following reciprocal coordinates:
            Coordinates               Weight
  0.250000  0.250000 -0.000000      2.000000
 -0.250000  0.250000 -0.000000      2.000000
 
 Following cartesian coordinates:
            Coordinates               Weight
  0.019587  0.020016  0.000004      2.000000
 -0.019566  0.019993  0.000010      2.000000
 
 
 Subroutine IBZKPT_HF returns following result:
 ==============================================
 
 Found      4 k-points in 1st BZ
 the following      4 k-points will be used (e.g. in the exchange kernel)
 Following reciprocal coordinates:   # in IRBZ
  0.250000  0.250000 -0.000000    0.25000000   1 t-inv F
 -0.250000  0.250000 -0.000000    0.25000000   2 t-inv F
 -0.250000 -0.250000  0.000000    0.25000000   1 t-inv T
  0.250000 -0.250000  0.000000    0.25000000   2 t-inv T


--------------------------------------------------------------------------------------------------------




 Dimension of arrays:
   k-points           NKPTS =      2   k-points in BZ     NKDIM =      4   number of bands    NBANDS=    155
   number of dos      NEDOS =    301   number of ions     NIONS =     58
   non local maximal  LDIM  =      6   non local SUM 2l+1 LMDIM =     18
   total plane-waves  NPLWV = ******
   max r-space proj   IRMAX =      1   max aug-charges    IRDMAX=  15698
   dimension x,y,z NGX =    96 NGY =   96 NGZ =  150
   dimension x,y,z NGXF=   192 NGYF=  192 NGZF=  300
   support grid    NGXF=   192 NGYF=  192 NGZF=  300
   ions per type =              54   2   2
   NGX,Y,Z   is equivalent  to a cutoff of  12.50, 12.77, 12.53 a.u.
   NGXF,Y,Z  is equivalent  to a cutoff of  24.99, 25.54, 25.05 a.u.

 SYSTEM =  unknown system                          
 POSCAR =   C  N Fe                                

 Startparameter for this run:
   NWRITE =      2    write-flag & timer
   PREC   = accura    normal or accurate (medium, high low for compatibility)
   ISTART =      1    job   : 0-new  1-cont  2-samecut
   ICHARG =      0    charge: 1-file 2-atom 10-const
   ISPIN  =      2    spin polarized calculation?
   LNONCOLLINEAR =      F non collinear calculations
   LSORBIT =      F    spin-orbit coupling
   INIWAV =      1    electr: 0-lowe 1-rand  2-diag
   LASPH  =      T    aspherical Exc in radial PAW
   METAGGA=      F    non-selfconsistent MetaGGA calc.

 Electronic Relaxation 1
   ENCUT  =  500.0 eV  36.75 Ry    6.06 a.u.  23.28 22.78 36.29*2*pi/ulx,y,z
   ENINI  =  500.0     initial cutoff
   ENAUG  =  644.9 eV  augmentation charge cutoff
   NELM   =    250;   NELMIN=  2; NELMDL=  0     # of ELM steps 
   EDIFF  = 0.1E-03   stopping-criterion for ELM
   LREAL  =      F    real-space projection
   NLSPLINE    = F    spline interpolate recip. space projectors
   LCOMPAT=      F    compatible to vasp.4.4
   GGA_COMPAT  = T    GGA compatible to vasp.4.4-vasp.4.6
   LMAXPAW     = -100 max onsite density
   LMAXMIX     =    2 max onsite mixed and CHGCAR
   VOSKOWN=      0    Vosko Wilk Nusair interpolation
   ROPT   =    0.00000   0.00000   0.00000
 Ionic relaxation
   EDIFFG = -.3E-01   stopping-criterion for IOM
   NSW    =      0    number of steps for IOM
   NBLOCK =      1;   KBLOCK =      1    inner block; outer block 
   IBRION =     -1    ionic relax: 0-MD 1-quasi-New 2-CG
   NFREE  =      1    steps in history (QN), initial steepest desc. (CG)
   ISIF   =      2    stress and relaxation
   IWAVPR =     10    prediction:  0-non 1-charg 2-wave 3-comb
   ISYM   =      3    0-nonsym 1-usesym 2-fastsym
   LCORR  =      T    Harris-Foulkes like correction to forces

   POTIM  = 0.5000    time-step for ionic-motion
   TEIN   =    0.0    initial temperature
   TEBEG  =    0.0;   TEEND  =   0.0 temperature during run
   SMASS  =  -3.00    Nose mass-parameter (am)
   estimated Nose-frequenzy (Omega)   =  0.10E-29 period in steps =****** mass=  -0.373E-26a.u.
   SCALEE = 1.0000    scale energy and forces
   NPACO  =    256;   APACO  = 16.0  distance and # of slots for P.C.
   PSTRESS=    0.0 pullay stress

  Mass of Ions in am
   POMASS =  12.01 14.00 55.85
  Ionic Valenz
   ZVAL   =   4.00  5.00  8.00
  Atomic Wigner-Seitz radii
   RWIGS  =  -1.00 -1.00 -1.00
  virtual crystal weights 
   VCA    =   1.00  1.00  1.00
   NELECT =     242.0000    total number of electrons
   NUPDOWN=      -1.0000    fix difference up-down

 DOS related values:
   EMIN   =  10.00;   EMAX   =-10.00  energy-range for DOS
   EFERMI =   0.00
   ISMEAR =     0;   SIGMA  =   0.10  broadening in eV -4-tet -1-fermi 0-gaus

 Electronic relaxation 2 (details)
   IALGO  =     53    algorithm
   LDIAG  =      T    sub-space diagonalisation (order eigenvalues)
   LSUBROT=      F    optimize rotation matrix (better conditioning)
   TURBO    =      0    0=normal 1=particle mesh
   IRESTART =      0    0=no restart 2=restart with 2 vectors
   NREBOOT  =      0    no. of reboots
   NMIN     =      0    reboot dimension
   EREF     =   0.00    reference energy to select bands
   IMIX   =      4    mixing-type and parameters
     AMIX     =   0.40;   BMIX     =  1.00
     AMIX_MAG =   1.60;   BMIX_MAG =  1.00
     AMIN     =   0.10
     WC   =   100.;   INIMIX=   1;  MIXPRE=   1;  MAXMIX= -45

 Intra band minimization:
   WEIMIN = 0.0000     energy-eigenvalue tresh-hold
   EBREAK =  0.16E-06  absolut break condition
   DEPER  =   0.30     relativ break condition  

   TIME   =   0.20     timestep for ELM

  volume/ion in A,a.u.               =      54.77       369.63
  Fermi-wavevector in a.u.,A,eV,Ry     =   0.693979  1.311430  6.552657  0.481607
  Thomas-Fermi vector in A             =   1.776344
 
 Write flags
   LWAVE        =      T    write WAVECAR
   LDOWNSAMPLE  =      F    k-point downsampling of WAVECAR
   LCHARG       =      T    write CHGCAR
   LVTOT        =      F    write LOCPOT, total local potential
   LVHAR        =      F    write LOCPOT, Hartree potential only
   LELF         =      F    write electronic localiz. function (ELF)
   LORBIT       =     11    0 simple, 1 ext, 2 COOP (PROOUT), +10 PAW based schemes


 Dipole corrections
   LMONO  =      F    monopole corrections only (constant potential shift)
   LDIPOL =      T    correct potential (dipole corrections)
   IDIPOL =      3    1-x, 2-y, 3-z, 4-all directions 
   EPSILON=  1.0000000 bulk dielectric constant

 Exchange correlation treatment:
   GGA     =    PE    GGA type
   LEXCH   =     8    internal setting for exchange type
   VOSKOWN=      0    Vosko Wilk Nusair interpolation
   EXXOEP  =     0    0=HF, 1=EXX-LHF (local Hartree Fock) 2=EXX OEP
   LHFCALC =     T    Hartree Fock is set to
   LSYMGRAD=     F    symmetrize gradient (conserves proper symmetry)
   PRECFOCK=normal    Normal, Fast or Accurate (Low or Medium for compatibility)
   LRHFCALC=     F    long range Hartree Fock
   LRSCOR  =     F    long range correlation only (use DFT for short range part)
   LTHOMAS =     F    Thomas Fermi screening in HF
   LMODELHF=     F    short range full HF, long range fraction AEXX
   ENCUT4O =  -1.0   cutoff for four orbital integrals eV
   LMAXFOCK=     4    L truncation for augmentation on plane wave grid
   LMAXFOCKAE=  -1    L truncation for all-electron charge restoration on plane wave grid
   NMAXFOCKAE=   1    number of basis functions for all-electron charge restoration
   LFOCKAEDFT=     F  apply the AE augmentation even for DFT
   NKREDX  =     1    reduce k-point grid by
   NKREDY  =     1    reduce k-point grid by
   NKREDZ  =     1    reduce k-point grid by
   SHIFTRED=     F    shift reduced grid of Gamma
   HFKIDENT=     F    idential grid for each k-point
   ODDONLY =     F    use only odd q-grid points
   EVENONLY=     F    use only even q-grid points
   HFALPHA =   -1.0000 decay constant for conv. correction
   MCALPHA =    0.0000 extent of test-charge in conv. correction in multipole expansion
   AEXX    =    0.2500 exact exchange contribution
   HFSCREEN=    0.2000 screening length (either q_TF or 0.3 A-1)
   HFSCREENC=   0.2000 screening length for correlation (either q_TF or 0.3 A-1)
   HFRCUT  =    0.0000 spherical cutoff for potential kernel
   ALDAX   =    0.7500 LDA exchange part
   AGGAX   =    0.7500 GGA exchange part
   ALDAC   =    1.0000 LDA correlation
   AGGAC   =    1.0000 GGA correlation
   ENCUTFOCK=  -1.0 apply spherical cutoff to Coloumb kernel
   NBANDSGWLOW=     1    first orbital included in HF term
   NBLOCK_FOCK=    64    blocking factor in FOCK_ACC
 Linear response parameters
   LEPSILON=     F    determine dielectric tensor
   LRPA    =     F    only Hartree local field effects (RPA)
   LNABLA  =     F    use nabla operator in PAW spheres
   LVEL    =     F    velocity operator in full k-point grid
   LINTERFAST=   F  fast interpolation
   KINTER  =     0    interpolate to denser k-point grid
   CSHIFT  =0.1000    complex shift for real part using Kramers Kronig
   OMEGAMAX=  -1.0    maximum frequency
   DEG_THRESHOLD= 0.2000000E-02 threshold for treating states as degnerate
   RTIME   =   -0.100 relaxation time in fs
  (WPLASMAI=    0.000 imaginary part of plasma frequency in eV, 0.658/RTIME)
   DFIELD  = 0.0000000 0.0000000 0.0000000 field for delta impulse in time
 
 Orbital magnetization related:
   ORBITALMAG=     F  switch on orbital magnetization
   LCHIMAG   =     F  perturbation theory with respect to B field
   DQ        =  0.001000  dq finite difference perturbation B field
   LLRAUG    =     F  two centre corrections for induced B field



--------------------------------------------------------------------------------------------------------


 Static calculation
 charge density and potential will be updated during run
 spin polarized calculation
 Conjugate gradient for all bands (Freysoldt, et al. PRB 79, 241103 (2009))
 perform sub-space diagonalisation
    before iterative eigenvector-optimisation
 modified Broyden-mixing scheme, WC =      100.0
 initial mixing is a Kerker type mixing with AMIX =  0.4000 and BMIX =      1.0000
 Hartree-type preconditioning will be used
 using additional bands           34
 reciprocal scheme for non local part
 use partial core corrections
 no Harris-corrections to forces 
 use gradient corrections 
 use of overlap-Matrix (Vanderbilt PP)
 Gauss-broadening in eV      SIGMA  =   0.10


--------------------------------------------------------------------------------------------------------


  energy-cutoff  :      500.00
  volume of cell :     3176.88
      direct lattice vectors                 reciprocal lattice vectors
    12.770473611 -0.006847521 -0.000467348     0.078305656  0.000046114 -0.000012383
    -0.007359506 12.496909726 -0.000962611     0.000042908  0.080019810  0.000028323
     0.003151951 -0.007047602 19.906346661     0.000001840  0.000003871  0.050235236

  length of vectors
    12.770475455 12.496911930 19.906348158     0.078305670  0.080019827  0.050235236


 
 old parameters found on file WAVECAR:
  energy-cutoff  :      500.00
  volume of cell :     3176.88
      direct lattice vectors                 reciprocal lattice vectors
    12.674500000  0.000000000  0.000000000     0.078898576  0.000003993 -0.000012530
    -0.000630764 12.462099984  0.000000000     0.000000000  0.080243298  0.000025209
     0.003194462 -0.006318555 20.113098754     0.000000000  0.000000000  0.049718843

  length of vectors

 
 k-points in units of 2pi/SCALE and weight: KPOINTS created by Atomic Simulation Env
   0.01958714  0.02001648  0.00000399       0.500
  -0.01956569  0.01999342  0.00001018       0.500
 
 k-points in reciprocal lattice and weights: KPOINTS created by Atomic Simulation Env
   0.25000000  0.25000000 -0.00000000       0.500
  -0.25000000  0.25000000 -0.00000000       0.500
 
 position of ions in fractional coordinates (direct lattice) 
   0.22074360  0.00031240  0.50029683
   0.05501690  0.10056829  0.50021312
   0.10986825  0.00011025  0.50016681
   0.27677188  0.10013529  0.50038326
   0.22292605  0.20050581  0.50050631
   0.05457339  0.29998562  0.50079659
   0.11072431  0.20039061  0.50052165
   0.28124506  0.29973101  0.50018416
   0.22295977  0.39955274  0.50050836
   0.05449189  0.49955138  0.50114908
   0.11121319  0.39977632  0.50096779
   0.27872208  0.49972268  0.50012549
   0.22311541  0.60011051  0.50046341
   0.05469101  0.69965655  0.50096410
   0.11129229  0.59969074  0.50103536
   0.28125997  0.70040005  0.50010322
   0.22273449  0.79969988  0.50059669
   0.05513183  0.89936424  0.50029696
   0.11080048  0.79954624  0.50065366
   0.27609206  0.90056109  0.50036429
   0.55457921  0.00031374  0.50039585
   0.38829374  0.09936557  0.50037880
   0.44348380  0.00051607  0.50037384
   0.61131628  0.09822943  0.50034300
   0.55693121  0.19607759  0.50006195
   0.44417252  0.19789554  0.50002228
   0.55505523  0.80481336  0.50044128
   0.38721284  0.90195511  0.50030314
   0.44262333  0.80405279  0.49988747
   0.61083014  0.90223567  0.50062711
   0.88901021  0.99977460  0.50020792
   0.72253728  0.09874263  0.50035289
   0.77821855  0.99947779  0.50044138
   0.94351283  0.10043645  0.50017407
   0.88750103  0.20009608  0.50041200
   0.71588733  0.29736260  0.49993571
   0.77554629  0.19919236  0.50033145
   0.94274570  0.29992816  0.50074532
   0.88507582  0.39914031  0.50081325
   0.71778057  0.49975940  0.49895636
   0.77261602  0.39835419  0.50002200
   0.94199078  0.49928049  0.50109036
   0.88593240  0.59949863  0.50110188
   0.71676725  0.70051585  0.50072115
   0.77432829  0.60041492  0.50040846
   0.94306374  0.69952977  0.50109011
   0.88747373  0.79952511  0.50086069
   0.72212187  0.90023416  0.50078433
   0.77555463  0.79978390  0.50106209
   0.94366475  0.89925603  0.50035791
   0.39278933  0.29859626  0.49940014
   0.38830925  0.49886272  0.49736081
   0.39257152  0.70253555  0.49878592
   0.60568395  0.70453984  0.50007323
   0.60781877  0.29298095  0.49966094
   0.61333674  0.50135271  0.49562449
   0.50158607  0.40913029  0.49267688
   0.50209308  0.58944166  0.49091639
 
 position of ions in cartesian coordinates  (Angst):
   2.82057492 -0.00113345  9.95897874
   0.70342842  1.25289082  9.95729327
   1.40464531 -0.00289946  9.95644246
   3.53534821  1.24596003  9.96057681
   2.84697313  2.50064914  9.96295486
   0.69629878  3.74499005  9.96871625
   1.41410474  2.49997773  9.96331277
   3.59100328  3.74026041  9.95641936
   2.84593891  4.98812044  9.96280402
   0.69379044  6.23894350  9.97554099
   1.41888197  4.99167646  9.97200168
   3.55731169  6.23955603  9.95506004
   2.84645042  7.49447205  9.96171621
   0.69486001  8.73963962  9.97166605
   1.41842101  7.48998784  9.97315433
   3.58824473  8.74738568  9.95442243
   2.84011741  9.98872397  9.96417733
   0.69901763 11.23537028  9.95819323
   1.41066836  9.98757003  9.96536384
   3.52077583 11.24881378  9.95942910
   7.08381412 -0.00340331  9.96079377
   4.95954082  1.23557720  9.96043674
   5.66507148 -0.00011395  9.96040746
   7.80765257  1.21985212  9.95962102
   7.11240841  2.44302609  9.95395752
   5.67241304  2.46651731  9.95321886
   7.08397254 10.05035229  9.96092340
   4.93983031 11.26547425  9.95815848
   5.64816774 10.04162129  9.94995238
   7.79552815 11.26744685  9.96450292
  11.34730024 12.48448011  9.95593447
   9.22799363  1.22550382  9.95976536
   9.93244119 12.48152798  9.96063387
  12.04994308  1.24515950  9.95610087
  11.33391318  2.49097872  9.96076736
   9.14160761  3.70768821  9.95127267
   9.90420451  2.48045228  9.95921702
  12.03868011  3.73819056  9.96728053
  11.30147843  4.97843029  9.96856429
   9.16429250  6.23701665  9.93158183
   9.86531680  4.96938193  9.95286678
  12.02757338  6.22948143  9.97395752
  11.31094382  7.48228225  9.97411663
   9.14988009  8.74584640  9.96651939
   9.88569752  7.49450217  9.96036443
  12.03980177  8.73197120  9.97375928
  11.32915442  9.98198621  9.96912207
   9.21679146 11.24167094  9.96758242
   9.89989325  9.98598530  9.97318338
  12.04600478 11.22793339  9.95899143
   5.01548239  3.72532134  9.94076133
   4.95678932  6.22807819  9.89997503
   5.00972606  8.77332001  9.92814578
   7.73126203  8.79689906  9.95366981
   7.76155227  3.65367299  9.94585776
   7.83047315  6.25766672  9.86530374
   6.40403355  5.10595752  9.80676848
   6.40917575  7.35930139  9.77154972
 


--------------------------------------------------------------------------------------------------------


 k-point  1 :   0.2500 0.2500-0.0000  plane waves:   80631
 k-point  2 :  -0.2500 0.2500-0.0000  plane waves:   80634

 maximum and minimum number of plane-waves per node :      2548     2482

 maximum number of plane-waves:     80634
 maximum index in each direction: 
   IXMAX=   23   IYMAX=   22   IZMAX=   36
   IXMIN=  -23   IYMIN=  -23   IZMIN=  -36


 parallel 3D FFT for wavefunctions:
    minimum data exchange during FFTs selected (reduces bandwidth)
 parallel 3D FFT for charge:
    minimum data exchange during FFTs selected (reduces bandwidth)


 FFT grid for exact exchange (Hartree Fock) 
  NGX = 70; NGY = 70; NGZ =112

 
 Radii for the augmentation spheres in the non-local exchange
 for species   1 augmentation radius   0.874 (default was   0.699)
       energy cutoff for augmentation   2000.0
 for species   2 augmentation radius   0.886 (default was   0.709)
       energy cutoff for augmentation   2000.0
 for species   3 augmentation radius   1.263 (default was   1.010)
       energy cutoff for augmentation   2000.0

 real space projection operators:
  total allocation   :       2441.08 KBytes
  max/ min on nodes  :        128.14         37.90

 Maximum index for augmentation-charges in exchange          127
  SETUP_FOCK is finished

 total amount of memory used by VASP MPI-rank0   161445. kBytes
=======================================================================

   base      :      30000. kBytes
   nonl-proj :       4580. kBytes
   fftplans  :      14250. kBytes
   grid      :      34043. kBytes
   one-center:         62. kBytes
   HF        :         23. kBytes
   nonlr-proj:       1648. kBytes
   wavefun   :      76839. kBytes
 
     INWAV:  cpu time    3.5567: real time    3.5576
 Broyden mixing: mesh for mixing (old mesh)
   NGX = 47   NGY = 45   NGZ = 73
  (NGX  =192   NGY  =192   NGZ  =300)
  gives a total of 154395 points

 charge density for first step will be calculated from the start-wavefunctions


--------------------------------------------------------------------------------------------------------


 Maximum index for augmentation-charges          742 (set IRDMAX)


--------------------------------------------------------------------------------------------------------


 initial charge from wavefunction
 First call to EWALD:  gamma=   0.121
 Maximum number of real-space cells 3x 3x 2
 Maximum number of reciprocal cells 2x 2x 4

    FEWALD:  cpu time    0.0027: real time    0.0027


--------------------------------------- Iteration      1(   1)  ---------------------------------------


    POTLOK:  cpu time    1.3713: real time    1.3719
    SETDIJ:  cpu time    2.0904: real time    2.0911
    TRIAL :  cpu time  517.5005: real time  517.6015
    CORREC:  cpu time    0.0020: real time    0.0023
    CHARGE:  cpu time    1.6786: real time    1.6786
    --------------------------------------------
      LOOP:  cpu time  522.6592: real time  522.7638

 eigenvalue-minimisations  :     0
 total energy-change (2. order) :-0.6067998E+03  (-0.4535651E+00)
 number of electron     241.9999997 magnetization       3.9977937
 augmentation part       13.5368911 magnetization       3.0060152

 DIPCOR: dipole corrections for dipol
 direction  3 min pos     1,
 dipolmoment           0.000014     -0.000031      0.088163 electrons x Angstroem
 Tr[quadrupol]     -6620.840529

 energy correction for charged system         0.000000 eV
 dipol+quadrupol energy correction            0.000222 eV
 added-field ion interaction          0.000000 eV  (added to PSCEN)


 Free energy of the ion-electron system (eV)
  ---------------------------------------------------
  alpha Z        PSCENC =       100.92212915
  Ewald energy   TEWEN  =     38269.37874861
  -Hartree energ DENC   =    -46514.18423329
  -exchange      EXHF   =       540.16837996
  -V(xc)+E(xc)   XCENC  =       603.94829588
  PAW double counting   =     25834.62665296   -25880.91838714
  entropy T*S    EENTRO =        -0.00050736
  eigenvalues    EBANDS =     -3112.56501501
  atomic energy  EATOM  =      9551.82545455
  ---------------------------------------------------
  free energy    TOTEN  =      -606.79981387 eV

  energy without entropy =     -606.79930651  energy(sigma->0) =     -606.79956019
  exchange ACFDT corr.  =        -0.00133379  see jH, gK, PRB 81, 115126


--------------------------------------------------------------------------------------------------------




--------------------------------------- Iteration      1(   2)  ---------------------------------------


    POTLOK:  cpu time    1.3927: real time    1.3928
    SETDIJ:  cpu time    2.0838: real time    2.0839
    TRIAL :  cpu time  516.9220: real time  517.0034
    CORREC:  cpu time    0.0019: real time    0.0021
    CHARGE:  cpu time    1.6759: real time    1.6761
    --------------------------------------------
      LOOP:  cpu time  522.0792: real time  522.1614

 eigenvalue-minimisations  :     0
 total energy-change (2. order) :-0.3679587E+00  (-0.4158755E+00)
 number of electron     241.9999997 magnetization       3.9996973
 augmentation part       13.5156819 magnetization       3.1113277

 DIPCOR: dipole corrections for dipol
 direction  3 min pos     1,
 dipolmoment           0.000016     -0.000036      0.101061 electrons x Angstroem
 Tr[quadrupol]     -6620.633588

 energy correction for charged system         0.000000 eV
 dipol+quadrupol energy correction            0.000292 eV
 added-field ion interaction          0.000000 eV  (added to PSCEN)


 Free energy of the ion-electron system (eV)
  ---------------------------------------------------
  alpha Z        PSCENC =       100.92219894
  Ewald energy   TEWEN  =     38269.37874861
  -Hartree energ DENC   =    -46495.41080419
  -exchange      EXHF   =       540.01786104
  -V(xc)+E(xc)   XCENC  =       603.54387449
  PAW double counting   =     25954.45912399   -25999.94786966
  entropy T*S    EENTRO =        -0.00008097
  eigenvalues    EBANDS =     -3131.95585298
  atomic energy  EATOM  =      9551.82545455
  ---------------------------------------------------
  free energy    TOTEN  =      -607.16777257 eV

  energy without entropy =     -607.16769160  energy(sigma->0) =     -607.16773208
  exchange ACFDT corr.  =        -0.00028946  see jH, gK, PRB 81, 115126


--------------------------------------------------------------------------------------------------------




--------------------------------------- Iteration      1(   3)  ---------------------------------------


    POTLOK:  cpu time    1.4021: real time    1.4022
    SETDIJ:  cpu time    2.0831: real time    2.0833
    TRIAL :  cpu time  516.4814: real time  516.5794
    CORREC:  cpu time    0.0018: real time    0.0020
    CHARGE:  cpu time    1.6646: real time    1.6649
    --------------------------------------------
      LOOP:  cpu time  521.6359: real time  521.7347

 eigenvalue-minimisations  :     0
 total energy-change (2. order) :-0.3251806E+00  (-0.2521118E+00)
 number of electron     241.9999997 magnetization       3.9999719
 augmentation part       13.5196736 magnetization       3.2052410

 DIPCOR: dipole corrections for dipol
 direction  3 min pos     1,
 dipolmoment           0.000017     -0.000038      0.105924 electrons x Angstroem
 Tr[quadrupol]     -6620.439187

 energy correction for charged system         0.000000 eV
 dipol+quadrupol energy correction            0.000321 eV
 added-field ion interaction          0.000000 eV  (added to PSCEN)


 Free energy of the ion-electron system (eV)
  ---------------------------------------------------
  alpha Z        PSCENC =       100.92222773
  Ewald energy   TEWEN  =     38269.37874861
  -Hartree energ DENC   =    -46479.12246889
  -exchange      EXHF   =       539.93921509
  -V(xc)+E(xc)   XCENC  =       603.18495799
  PAW double counting   =     26116.76644733   -26162.07053260
  entropy T*S    EENTRO =        -0.00000873
  eigenvalues    EBANDS =     -3148.31692198
  atomic energy  EATOM  =      9551.82545455
  ---------------------------------------------------
  free energy    TOTEN  =      -607.49295314 eV

  energy without entropy =     -607.49294441  energy(sigma->0) =     -607.49294878
  exchange ACFDT corr.  =        -0.00003632  see jH, gK, PRB 81, 115126


--------------------------------------------------------------------------------------------------------




--------------------------------------- Iteration      1(   4)  ---------------------------------------


    POTLOK:  cpu time    1.4073: real time    1.4074
    SETDIJ:  cpu time    2.0846: real time    2.0848
    TRIAL :  cpu time  515.2690: real time  515.3490
    CORREC:  cpu time    0.0017: real time    0.0020
    CHARGE:  cpu time    1.6655: real time    1.6657
    --------------------------------------------
      LOOP:  cpu time  520.4304: real time  520.5113

 eigenvalue-minimisations  :     0
 total energy-change (2. order) :-0.1992537E+00  (-0.1603590E+00)
 number of electron     241.9999997 magnetization       3.9999984
 augmentation part       13.5215184 magnetization       3.2777695

 DIPCOR: dipole corrections for dipol
 direction  3 min pos     1,
 dipolmoment           0.000017     -0.000038      0.107135 electrons x Angstroem
 Tr[quadrupol]     -6620.362230

 energy correction for charged system         0.000000 eV
 dipol+quadrupol energy correction            0.000328 eV
 added-field ion interaction          0.000000 eV  (added to PSCEN)


 Free energy of the ion-electron system (eV)
  ---------------------------------------------------
  alpha Z        PSCENC =       100.92223510
  Ewald energy   TEWEN  =     38269.37874861
  -Hartree energ DENC   =    -46472.50649603
  -exchange      EXHF   =       540.08319890
  -V(xc)+E(xc)   XCENC  =       603.06852844
  PAW double counting   =     26261.45607472   -26306.95739085
  entropy T*S    EENTRO =        -0.00000059
  eigenvalues    EBANDS =     -3154.96255158
  atomic energy  EATOM  =      9551.82545455
  ---------------------------------------------------
  free energy    TOTEN  =      -607.69220687 eV

  energy without entropy =     -607.69220628  energy(sigma->0) =     -607.69220657
  exchange ACFDT corr.  =        -0.00000325  see jH, gK, PRB 81, 115126


--------------------------------------------------------------------------------------------------------




--------------------------------------- Iteration      1(   5)  ---------------------------------------


    POTLOK:  cpu time    1.4062: real time    1.4063
    SETDIJ:  cpu time    2.1118: real time    2.1120
    TRIAL :  cpu time  514.5959: real time  514.7107
    CORREC:  cpu time    0.0015: real time    0.0017
    CHARGE:  cpu time    1.6600: real time    1.6602
    --------------------------------------------
      LOOP:  cpu time  519.7776: real time  519.8930

 eigenvalue-minimisations  :     0
 total energy-change (2. order) :-0.1334699E+00  (-0.1172137E+00)
 number of electron     241.9999997 magnetization       3.9999999
 augmentation part       13.5204987 magnetization       3.3314110

 DIPCOR: dipole corrections for dipol
 direction  3 min pos     1,
 dipolmoment           0.000017     -0.000039      0.108995 electrons x Angstroem
 Tr[quadrupol]     -6620.379484

 energy correction for charged system         0.000000 eV
 dipol+quadrupol energy correction            0.000340 eV
 added-field ion interaction          0.000000 eV  (added to PSCEN)


 Free energy of the ion-electron system (eV)
  ---------------------------------------------------
  alpha Z        PSCENC =       100.92224660
  Ewald energy   TEWEN  =     38269.37874861
  -Hartree energ DENC   =    -46472.61166989
  -exchange      EXHF   =       540.37708083
  -V(xc)+E(xc)   XCENC  =       603.13969659
  PAW double counting   =     26366.39959454   -26411.99110353
  entropy T*S    EENTRO =        -0.00000003
  eigenvalues    EBANDS =     -3155.26572449
  atomic energy  EATOM  =      9551.82545455
  ---------------------------------------------------
  free energy    TOTEN  =      -607.82567678 eV

  energy without entropy =     -607.82567674  energy(sigma->0) =     -607.82567676
  exchange ACFDT corr.  =        -0.00000019  see jH, gK, PRB 81, 115126


--------------------------------------------------------------------------------------------------------




--------------------------------------- Iteration      1(   6)  ---------------------------------------


    POTLOK:  cpu time    1.4055: real time    1.4055
    SETDIJ:  cpu time    2.0826: real time    2.0827
    TRIAL :  cpu time  516.8713: real time  516.9648
    CORREC:  cpu time    0.0013: real time    0.0016
    CHARGE:  cpu time    1.6589: real time    1.6593
    --------------------------------------------
      LOOP:  cpu time  522.0217: real time  522.1161

 eigenvalue-minimisations  :     0
 total energy-change (2. order) :-0.1011232E+00  (-0.8704948E-01)
 number of electron     241.9999997 magnetization       4.0000000
 augmentation part       13.5240102 magnetization       3.3721711

 DIPCOR: dipole corrections for dipol
 direction  3 min pos     1,
 dipolmoment           0.000018     -0.000039      0.110995 electrons x Angstroem
 Tr[quadrupol]     -6620.431112

 energy correction for charged system         0.000000 eV
 dipol+quadrupol energy correction            0.000352 eV
 added-field ion interaction          0.000000 eV  (added to PSCEN)


 Free energy of the ion-electron system (eV)
  ---------------------------------------------------
  alpha Z        PSCENC =       100.92225918
  Ewald energy   TEWEN  =     38269.37874861
  -Hartree energ DENC   =    -46475.37942648
  -exchange      EXHF   =       540.69493038
  -V(xc)+E(xc)   XCENC  =       603.28492706
  PAW double counting   =     26433.60690984   -26479.18589719
  entropy T*S    EENTRO =        -0.00000000
  eigenvalues    EBANDS =     -3153.07470592
  atomic energy  EATOM  =      9551.82545455
  ---------------------------------------------------
  free energy    TOTEN  =      -607.92680001 eV

  energy without entropy =     -607.92680000  energy(sigma->0) =     -607.92680000
  exchange ACFDT corr.  =        -0.00000001  see jH, gK, PRB 81, 115126


--------------------------------------------------------------------------------------------------------




--------------------------------------- Iteration      1(   7)  ---------------------------------------


    POTLOK:  cpu time    1.4022: real time    1.4023
    SETDIJ:  cpu time    2.0833: real time    2.0834
    TRIAL :  cpu time  516.9280: real time  517.0501
    CORREC:  cpu time    0.0013: real time    0.0015
    CHARGE:  cpu time    1.6595: real time    1.6596
    --------------------------------------------
      LOOP:  cpu time  522.0763: real time  522.1991

 eigenvalue-minimisations  :     0
 total energy-change (2. order) :-0.7667465E-01  (-0.6635439E-01)
 number of electron     241.9999997 magnetization       4.0000000
 augmentation part       13.5315644 magnetization       3.4052875

 DIPCOR: dipole corrections for dipol
 direction  3 min pos     1,
 dipolmoment           0.000018     -0.000040      0.112163 electrons x Angstroem
 Tr[quadrupol]     -6620.479336

 energy correction for charged system         0.000000 eV
 dipol+quadrupol energy correction            0.000360 eV
 added-field ion interaction          0.000000 eV  (added to PSCEN)


 Free energy of the ion-electron system (eV)
  ---------------------------------------------------
  alpha Z        PSCENC =       100.92226664
  Ewald energy   TEWEN  =     38269.37874861
  -Hartree energ DENC   =    -46478.55992933
  -exchange      EXHF   =       540.96897236
  -V(xc)+E(xc)   XCENC  =       603.43233396
  PAW double counting   =     26473.61464165   -26519.23152971
  entropy T*S    EENTRO =        -0.00000000
  eigenvalues    EBANDS =     -3150.35443339
  atomic energy  EATOM  =      9551.82545455
  ---------------------------------------------------
  free energy    TOTEN  =      -608.00347466 eV

  energy without entropy =     -608.00347465  energy(sigma->0) =     -608.00347465
  exchange ACFDT corr.  =        -0.00000000  see jH, gK, PRB 81, 115126


--------------------------------------------------------------------------------------------------------




--------------------------------------- Iteration      1(   8)  ---------------------------------------


    POTLOK:  cpu time    1.3984: real time    1.3985
    SETDIJ:  cpu time    2.0814: real time    2.0815
    TRIAL :  cpu time  514.6534: real time  514.7724
    CORREC:  cpu time    0.0013: real time    0.0016
    CHARGE:  cpu time    1.6563: real time    1.6565
    --------------------------------------------
      LOOP:  cpu time  519.7929: real time  519.9148

 eigenvalue-minimisations  :     0
 total energy-change (2. order) :-0.5964355E-01  (-0.5206255E-01)
 number of electron     241.9999997 magnetization       4.0000000
 augmentation part       13.5384679 magnetization       3.4337453

 DIPCOR: dipole corrections for dipol
 direction  3 min pos     1,
 dipolmoment           0.000018     -0.000040      0.112516 electrons x Angstroem
 Tr[quadrupol]     -6620.509699

 energy correction for charged system         0.000000 eV
 dipol+quadrupol energy correction            0.000362 eV
 added-field ion interaction          0.000000 eV  (added to PSCEN)


 Free energy of the ion-electron system (eV)
  ---------------------------------------------------
  alpha Z        PSCENC =       100.92226890
  Ewald energy   TEWEN  =     38269.37874861
  -Hartree energ DENC   =    -46480.97349829
  -exchange      EXHF   =       541.17920996
  -V(xc)+E(xc)   XCENC  =       603.54915646
  PAW double counting   =     26495.85127208   -26541.57061296
  entropy T*S    EENTRO =        -0.00000000
  eigenvalues    EBANDS =     -3148.22511751
  atomic energy  EATOM  =      9551.82545455
  ---------------------------------------------------
  free energy    TOTEN  =      -608.06311821 eV

  energy without entropy =     -608.06311821  energy(sigma->0) =     -608.06311821
  exchange ACFDT corr.  =        -0.00000000  see jH, gK, PRB 81, 115126


--------------------------------------------------------------------------------------------------------




--------------------------------------- Iteration      1(   9)  ---------------------------------------


    POTLOK:  cpu time    1.3975: real time    1.3976
    SETDIJ:  cpu time    2.0820: real time    2.0822
    TRIAL :  cpu time  514.5375: real time  514.6008
    CORREC:  cpu time    0.0012: real time    0.0016
    CHARGE:  cpu time    1.6565: real time    1.6566
    --------------------------------------------
      LOOP:  cpu time  519.6769: real time  519.7408

 eigenvalue-minimisations  :     0
 total energy-change (2. order) :-0.4742902E-01  (-0.4184636E-01)
 number of electron     241.9999997 magnetization       4.0000000
 augmentation part       13.5422700 magnetization       3.4588531

 DIPCOR: dipole corrections for dipol
 direction  3 min pos     1,
 dipolmoment           0.000018     -0.000040      0.112518 electrons x Angstroem
 Tr[quadrupol]     -6620.522583

 energy correction for charged system         0.000000 eV
 dipol+quadrupol energy correction            0.000362 eV
 added-field ion interaction          0.000000 eV  (added to PSCEN)


 Free energy of the ion-electron system (eV)
  ---------------------------------------------------
  alpha Z        PSCENC =       100.92226892
  Ewald energy   TEWEN  =     38269.37874861
  -Hartree energ DENC   =    -46482.22965186
  -exchange      EXHF   =       541.33093161
  -V(xc)+E(xc)   XCENC  =       603.62872077
  PAW double counting   =     26507.19926698   -26553.01841751
  entropy T*S    EENTRO =        -0.00000000
  eigenvalues    EBANDS =     -3147.14786929
  atomic energy  EATOM  =      9551.82545455
  ---------------------------------------------------
  free energy    TOTEN  =      -608.11054723 eV

  energy without entropy =     -608.11054722  energy(sigma->0) =     -608.11054723
  exchange ACFDT corr.  =        -0.00000000  see jH, gK, PRB 81, 115126


--------------------------------------------------------------------------------------------------------




--------------------------------------- Iteration      1(  10)  ---------------------------------------


    POTLOK:  cpu time    1.3901: real time    1.3902
    SETDIJ:  cpu time    2.0818: real time    2.0819
    TRIAL :  cpu time  514.3679: real time  514.4416
    CORREC:  cpu time    0.0011: real time    0.0014
    CHARGE:  cpu time    1.6584: real time    1.6585
    --------------------------------------------
      LOOP:  cpu time  519.5014: real time  519.5758

 eigenvalue-minimisations  :     0
 total energy-change (2. order) :-0.3857088E-01  (-0.3432791E-01)
 number of electron     241.9999997 magnetization       4.0000000
 augmentation part       13.5438357 magnetization       3.4812038

 DIPCOR: dipole corrections for dipol
 direction  3 min pos     1,
 dipolmoment           0.000018     -0.000040      0.112473 electrons x Angstroem
 Tr[quadrupol]     -6620.524809

 energy correction for charged system         0.000000 eV
 dipol+quadrupol energy correction            0.000362 eV
 added-field ion interaction          0.000000 eV  (added to PSCEN)


 Free energy of the ion-electron system (eV)
  ---------------------------------------------------
  alpha Z        PSCENC =       100.92226863
  Ewald energy   TEWEN  =     38269.37874861
  -Hartree energ DENC   =    -46482.57674202
  -exchange      EXHF   =       541.44143072
  -V(xc)+E(xc)   XCENC  =       603.67992156
  PAW double counting   =     26512.40268585   -26558.28022474
  entropy T*S    EENTRO =        -0.00000000
  eigenvalues    EBANDS =     -3146.94266126
  atomic energy  EATOM  =      9551.82545455
  ---------------------------------------------------
  free energy    TOTEN  =      -608.14911811 eV

  energy without entropy =     -608.14911810  energy(sigma->0) =     -608.14911811
  exchange ACFDT corr.  =        -0.00000000  see jH, gK, PRB 81, 115126


--------------------------------------------------------------------------------------------------------




--------------------------------------- Iteration      1(  11)  ---------------------------------------


    POTLOK:  cpu time    1.3900: real time    1.3901
    SETDIJ:  cpu time    2.0839: real time    2.0841
    TRIAL :  cpu time  514.3959: real time  514.4617
    CORREC:  cpu time    0.0012: real time    0.0015
    CHARGE:  cpu time    1.6581: real time    1.6583
    --------------------------------------------
      LOOP:  cpu time  519.5313: real time  519.5979

 eigenvalue-minimisations  :     0
 total energy-change (2. order) :-0.3186867E-01  (-0.2844848E-01)
 number of electron     241.9999997 magnetization       4.0000000
 augmentation part       13.5451260 magnetization       3.5010411

 DIPCOR: dipole corrections for dipol
 direction  3 min pos     1,
 dipolmoment           0.000018     -0.000040      0.112409 electrons x Angstroem
 Tr[quadrupol]     -6620.523477

 energy correction for charged system         0.000000 eV
 dipol+quadrupol energy correction            0.000361 eV
 added-field ion interaction          0.000000 eV  (added to PSCEN)


 Free energy of the ion-electron system (eV)
  ---------------------------------------------------
  alpha Z        PSCENC =       100.92226821
  Ewald energy   TEWEN  =     38269.37874861
  -Hartree energ DENC   =    -46482.52285966
  -exchange      EXHF   =       541.52885488
  -V(xc)+E(xc)   XCENC  =       603.71609034
  PAW double counting   =     26514.64551684   -26560.55185976
  entropy T*S    EENTRO =        -0.00000000
  eigenvalues    EBANDS =     -3147.12320080
  atomic energy  EATOM  =      9551.82545455
  ---------------------------------------------------
  free energy    TOTEN  =      -608.18098678 eV

  energy without entropy =     -608.18098678  energy(sigma->0) =     -608.18098678
  exchange ACFDT corr.  =        -0.00000000  see jH, gK, PRB 81, 115126


--------------------------------------------------------------------------------------------------------




--------------------------------------- Iteration      1(  12)  ---------------------------------------


    POTLOK:  cpu time    1.3868: real time    1.3869
    SETDIJ:  cpu time    2.1137: real time    2.1138
    TRIAL :  cpu time  514.0391: real time  514.1588
    CORREC:  cpu time    0.0013: real time    0.0015
    CHARGE:  cpu time    1.6518: real time    1.6520
    --------------------------------------------
      LOOP:  cpu time  519.1947: real time  519.3151

 eigenvalue-minimisations  :     0
 total energy-change (2. order) :-0.2657193E-01  (-0.2379260E-01)
 number of electron     241.9999997 magnetization       4.0000000
 augmentation part       13.5469287 magnetization       3.5184379

 DIPCOR: dipole corrections for dipol
 direction  3 min pos     1,
 dipolmoment           0.000018     -0.000040      0.112256 electrons x Angstroem
 Tr[quadrupol]     -6620.522846

 energy correction for charged system         0.000000 eV
 dipol+quadrupol energy correction            0.000360 eV
 added-field ion interaction          0.000000 eV  (added to PSCEN)


 Free energy of the ion-electron system (eV)
  ---------------------------------------------------
  alpha Z        PSCENC =       100.92226723
  Ewald energy   TEWEN  =     38269.37874861
  -Hartree energ DENC   =    -46482.46947010
  -exchange      EXHF   =       541.60523453
  -V(xc)+E(xc)   XCENC  =       603.74713093
  PAW double counting   =     26515.96596191   -26561.90092646
  entropy T*S    EENTRO =        -0.00000000
  eigenvalues    EBANDS =     -3147.28195990
  atomic energy  EATOM  =      9551.82545455
  ---------------------------------------------------
  free energy    TOTEN  =      -608.20755871 eV

  energy without entropy =     -608.20755871  energy(sigma->0) =     -608.20755871
  exchange ACFDT corr.  =        -0.00000000  see jH, gK, PRB 81, 115126


--------------------------------------------------------------------------------------------------------




--------------------------------------- Iteration      1(  13)  ---------------------------------------


    POTLOK:  cpu time    1.3798: real time    1.3800
    SETDIJ:  cpu time    2.0809: real time    2.0813
    TRIAL :  cpu time  514.2680: real time  514.3577
    CORREC:  cpu time    0.0012: real time    0.0015
    CHARGE:  cpu time    1.6598: real time    1.6601
    --------------------------------------------
      LOOP:  cpu time  519.3918: real time  519.4827

 eigenvalue-minimisations  :     0
 total energy-change (2. order) :-0.2233304E-01  (-0.2002620E-01)
 number of electron     241.9999997 magnetization       4.0000000
 augmentation part       13.5488564 magnetization       3.5334640

 DIPCOR: dipole corrections for dipol
 direction  3 min pos     1,
 dipolmoment           0.000018     -0.000040      0.112015 electrons x Angstroem
 Tr[quadrupol]     -6620.523862

 energy correction for charged system         0.000000 eV
 dipol+quadrupol energy correction            0.000359 eV
 added-field ion interaction          0.000000 eV  (added to PSCEN)


 Free energy of the ion-electron system (eV)
  ---------------------------------------------------
  alpha Z        PSCENC =       100.92226568
  Ewald energy   TEWEN  =     38269.37874861
  -Hartree energ DENC   =    -46482.53767825
  -exchange      EXHF   =       541.67506953
  -V(xc)+E(xc)   XCENC  =       603.77651177
  PAW double counting   =     26517.43446949   -26563.40837904
  entropy T*S    EENTRO =        -0.00000000
  eigenvalues    EBANDS =     -3147.29635410
  atomic energy  EATOM  =      9551.82545455
  ---------------------------------------------------
  free energy    TOTEN  =      -608.22989175 eV

  energy without entropy =     -608.22989175  energy(sigma->0) =     -608.22989175
  exchange ACFDT corr.  =        -0.00000000  see jH, gK, PRB 81, 115126


--------------------------------------------------------------------------------------------------------




--------------------------------------- Iteration      1(  14)  ---------------------------------------


    POTLOK:  cpu time    1.3766: real time    1.3768
    SETDIJ:  cpu time    2.1126: real time    2.1127
    TRIAL :  cpu time  514.2193: real time  514.3047
    CORREC:  cpu time    0.0012: real time    0.0015
    CHARGE:  cpu time    1.6492: real time    1.6494
    --------------------------------------------
      LOOP:  cpu time  519.3612: real time  519.4473

 eigenvalue-minimisations  :     0
 total energy-change (2. order) :-0.1887201E-01  (-0.1694545E-01)
 number of electron     241.9999997 magnetization       4.0000000
 augmentation part       13.5504119 magnetization       3.5463138

 DIPCOR: dipole corrections for dipol
 direction  3 min pos     1,
 dipolmoment           0.000018     -0.000040      0.111746 electrons x Angstroem
 Tr[quadrupol]     -6620.525815

 energy correction for charged system         0.000000 eV
 dipol+quadrupol energy correction            0.000357 eV
 added-field ion interaction          0.000000 eV  (added to PSCEN)


 Free energy of the ion-electron system (eV)
  ---------------------------------------------------
  alpha Z        PSCENC =       100.92226397
  Ewald energy   TEWEN  =     38269.37874861
  -Hartree energ DENC   =    -46482.67130535
  -exchange      EXHF   =       541.73875115
  -V(xc)+E(xc)   XCENC  =       603.80376285
  PAW double counting   =     26519.37739604   -26565.39258147
  entropy T*S    EENTRO =        -0.00000000
  eigenvalues    EBANDS =     -3147.23125411
  atomic energy  EATOM  =      9551.82545455
  ---------------------------------------------------
  free energy    TOTEN  =      -608.24876376 eV

  energy without entropy =     -608.24876376  energy(sigma->0) =     -608.24876376
  exchange ACFDT corr.  =        -0.00000000  see jH, gK, PRB 81, 115126


--------------------------------------------------------------------------------------------------------




--------------------------------------- Iteration      1(  15)  ---------------------------------------


    POTLOK:  cpu time    1.3746: real time    1.3748
    SETDIJ:  cpu time    2.0819: real time    2.0820
    TRIAL :  cpu time  513.6616: real time  513.7488
    CORREC:  cpu time    0.0012: real time    0.0014
    CHARGE:  cpu time    1.6494: real time    1.6496
    --------------------------------------------
      LOOP:  cpu time  518.7711: real time  518.8590

 eigenvalue-minimisations  :     0
 total energy-change (2. order) :-0.1601605E-01  (-0.1439253E-01)
 number of electron     241.9999997 magnetization       4.0000000
 augmentation part       13.5515455 magnetization       3.5573169

 DIPCOR: dipole corrections for dipol
 direction  3 min pos     1,
 dipolmoment           0.000018     -0.000039      0.111499 electrons x Angstroem
 Tr[quadrupol]     -6620.527941

 energy correction for charged system         0.000000 eV
 dipol+quadrupol energy correction            0.000356 eV
 added-field ion interaction          0.000000 eV  (added to PSCEN)


 Free energy of the ion-electron system (eV)
  ---------------------------------------------------
  alpha Z        PSCENC =       100.92226239
  Ewald energy   TEWEN  =     38269.37874861
  -Hartree energ DENC   =    -46482.80103035
  -exchange      EXHF   =       541.79617051
  -V(xc)+E(xc)   XCENC  =       603.82801065
  PAW double counting   =     26521.74720093   -26567.79700348
  entropy T*S    EENTRO =        -0.00000000
  eigenvalues    EBANDS =     -3147.16459363
  atomic energy  EATOM  =      9551.82545455
  ---------------------------------------------------
  free energy    TOTEN  =      -608.26477982 eV

  energy without entropy =     -608.26477982  energy(sigma->0) =     -608.26477982
  exchange ACFDT corr.  =        -0.00000000  see jH, gK, PRB 81, 115126


--------------------------------------------------------------------------------------------------------




--------------------------------------- Iteration      1(  16)  ---------------------------------------


    POTLOK:  cpu time    1.3735: real time    1.3737
    SETDIJ:  cpu time    2.0806: real time    2.0808
    TRIAL :  cpu time  514.3537: real time  514.4415
    CORREC:  cpu time    0.0012: real time    0.0015
    CHARGE:  cpu time    1.6498: real time    1.6500
    --------------------------------------------
      LOOP:  cpu time  519.4614: real time  519.5500

 eigenvalue-minimisations  :     0
 total energy-change (2. order) :-0.1363181E-01  (-0.1225270E-01)
 number of electron     241.9999997 magnetization       4.0000000
 augmentation part       13.5524820 magnetization       3.5668338

 DIPCOR: dipole corrections for dipol
 direction  3 min pos     1,
 dipolmoment           0.000018     -0.000039      0.111281 electrons x Angstroem
 Tr[quadrupol]     -6620.529908

 energy correction for charged system         0.000000 eV
 dipol+quadrupol energy correction            0.000354 eV
 added-field ion interaction          0.000000 eV  (added to PSCEN)


 Free energy of the ion-electron system (eV)
  ---------------------------------------------------
  alpha Z        PSCENC =       100.92226100
  Ewald energy   TEWEN  =     38269.37874861
  -Hartree energ DENC   =    -46482.90795637
  -exchange      EXHF   =       541.84783950
  -V(xc)+E(xc)   XCENC  =       603.84930490
  PAW double counting   =     26524.34133434   -26570.41828847
  entropy T*S    EENTRO =        -0.00000000
  eigenvalues    EBANDS =     -3147.11710970
  atomic energy  EATOM  =      9551.82545455
  ---------------------------------------------------
  free energy    TOTEN  =      -608.27841163 eV

  energy without entropy =     -608.27841163  energy(sigma->0) =     -608.27841163
  exchange ACFDT corr.  =        -0.00000000  see jH, gK, PRB 81, 115126


--------------------------------------------------------------------------------------------------------




--------------------------------------- Iteration      1(  17)  ---------------------------------------


    POTLOK:  cpu time    1.3688: real time    1.3691
    SETDIJ:  cpu time    2.0791: real time    2.0793
    TRIAL :  cpu time  514.2324: real time  514.3099
    CORREC:  cpu time    0.0011: real time    0.0014
    CHARGE:  cpu time    1.6468: real time    1.6469
    --------------------------------------------
      LOOP:  cpu time  519.3309: real time  519.4092

 eigenvalue-minimisations  :     0
 total energy-change (2. order) :-0.1162489E-01  (-0.1044542E-01)
 number of electron     241.9999997 magnetization       4.0000000
 augmentation part       13.5533550 magnetization       3.5751294

 DIPCOR: dipole corrections for dipol
 direction  3 min pos     1,
 dipolmoment           0.000018     -0.000039      0.111081 electrons x Angstroem
 Tr[quadrupol]     -6620.531636

 energy correction for charged system         0.000000 eV
 dipol+quadrupol energy correction            0.000353 eV
 added-field ion interaction          0.000000 eV  (added to PSCEN)


 Free energy of the ion-electron system (eV)
  ---------------------------------------------------
  alpha Z        PSCENC =       100.92225973
  Ewald energy   TEWEN  =     38269.37874861
  -Hartree energ DENC   =    -46483.00152852
  -exchange      EXHF   =       541.89446269
  -V(xc)+E(xc)   XCENC  =       603.86818620
  PAW double counting   =     26526.94464676   -26573.04533070
  entropy T*S    EENTRO =        -0.00000000
  eigenvalues    EBANDS =     -3147.07693584
  atomic energy  EATOM  =      9551.82545455
  ---------------------------------------------------
  free energy    TOTEN  =      -608.29003652 eV

  energy without entropy =     -608.29003652  energy(sigma->0) =     -608.29003652
  exchange ACFDT corr.  =        -0.00000000  see jH, gK, PRB 81, 115126


--------------------------------------------------------------------------------------------------------




--------------------------------------- Iteration      1(  18)  ---------------------------------------


    POTLOK:  cpu time    1.3678: real time    1.3680
    SETDIJ:  cpu time    2.0824: real time    2.0826
    TRIAL :  cpu time  514.6678: real time  514.7675
    CORREC:  cpu time    0.0011: real time    0.0014
    CHARGE:  cpu time    1.6499: real time    1.6503
    --------------------------------------------
      LOOP:  cpu time  519.7717: real time  519.8723

 eigenvalue-minimisations  :     0
 total energy-change (2. order) :-0.9924901E-02  (-0.8915257E-02)
 number of electron     241.9999997 magnetization       4.0000000
 augmentation part       13.5541268 magnetization       3.5823604

 DIPCOR: dipole corrections for dipol
 direction  3 min pos     1,
 dipolmoment           0.000018     -0.000039      0.110891 electrons x Angstroem
 Tr[quadrupol]     -6620.533129

 energy correction for charged system         0.000000 eV
 dipol+quadrupol energy correction            0.000352 eV
 added-field ion interaction          0.000000 eV  (added to PSCEN)


 Free energy of the ion-electron system (eV)
  ---------------------------------------------------
  alpha Z        PSCENC =       100.92225852
  Ewald energy   TEWEN  =     38269.37874861
  -Hartree energ DENC   =    -46483.08797365
  -exchange      EXHF   =       541.93652998
  -V(xc)+E(xc)   XCENC  =       603.88506066
  PAW double counting   =     26529.40084531   -26575.52418657
  entropy T*S    EENTRO =        -0.00000000
  eigenvalues    EBANDS =     -3147.03669883
  atomic energy  EATOM  =      9551.82545455
  ---------------------------------------------------
  free energy    TOTEN  =      -608.29996142 eV

  energy without entropy =     -608.29996142  energy(sigma->0) =     -608.29996142
  exchange ACFDT corr.  =        -0.00000000  see jH, gK, PRB 81, 115126


--------------------------------------------------------------------------------------------------------




--------------------------------------- Iteration      1(  19)  ---------------------------------------


    POTLOK:  cpu time    1.3676: real time    1.3678
    SETDIJ:  cpu time    2.0825: real time    2.0827
    TRIAL :  cpu time  514.1457: real time  514.2469
    CORREC:  cpu time    0.0012: real time    0.0015
    CHARGE:  cpu time    1.6520: real time    1.6522
    --------------------------------------------
      LOOP:  cpu time  519.2504: real time  519.3525

 eigenvalue-minimisations  :     0
 total energy-change (2. order) :-0.8482576E-02  (-0.7619915E-02)
 number of electron     241.9999997 magnetization       4.0000000
 augmentation part       13.5547602 magnetization       3.5886627

 DIPCOR: dipole corrections for dipol
 direction  3 min pos     1,
 dipolmoment           0.000018     -0.000039      0.110713 electrons x Angstroem
 Tr[quadrupol]     -6620.534429

 energy correction for charged system         0.000000 eV
 dipol+quadrupol energy correction            0.000351 eV
 added-field ion interaction          0.000000 eV  (added to PSCEN)


 Free energy of the ion-electron system (eV)
  ---------------------------------------------------
  alpha Z        PSCENC =       100.92225739
  Ewald energy   TEWEN  =     38269.37874861
  -Hartree energ DENC   =    -46483.16510339
  -exchange      EXHF   =       541.97439107
  -V(xc)+E(xc)   XCENC  =       603.90011829
  PAW double counting   =     26531.60107998   -26577.74512781
  entropy T*S    EENTRO =        -0.00000000
  eigenvalues    EBANDS =     -3147.00026270
  atomic energy  EATOM  =      9551.82545455
  ---------------------------------------------------
  free energy    TOTEN  =      -608.30844400 eV

  energy without entropy =     -608.30844400  energy(sigma->0) =     -608.30844400
  exchange ACFDT corr.  =        -0.00000000  see jH, gK, PRB 81, 115126


--------------------------------------------------------------------------------------------------------




--------------------------------------- Iteration      1(  20)  ---------------------------------------


    POTLOK:  cpu time    1.3642: real time    1.3644
    SETDIJ:  cpu time    2.0796: real time    2.0799
    TRIAL :  cpu time  514.9039: real time  514.9923
    CORREC:  cpu time    0.0012: real time    0.0014
    CHARGE:  cpu time    1.6498: real time    1.6499
    --------------------------------------------
      LOOP:  cpu time  520.0008: real time  520.0901

 eigenvalue-minimisations  :     0
 total energy-change (2. order) :-0.7258930E-02  (-0.6523701E-02)
 number of electron     241.9999997 magnetization       4.0000000
 augmentation part       13.5553049 magnetization       3.5941830

 DIPCOR: dipole corrections for dipol
 direction  3 min pos     1,
 dipolmoment           0.000018     -0.000039      0.110554 electrons x Angstroem
 Tr[quadrupol]     -6620.535614

 energy correction for charged system         0.000000 eV
 dipol+quadrupol energy correction            0.000350 eV
 added-field ion interaction          0.000000 eV  (added to PSCEN)


 Free energy of the ion-electron system (eV)
  ---------------------------------------------------
  alpha Z        PSCENC =       100.92225639
  Ewald energy   TEWEN  =     38269.37874861
  -Hartree energ DENC   =    -46483.23305642
  -exchange      EXHF   =       542.00845429
  -V(xc)+E(xc)   XCENC  =       603.91356322
  PAW double counting   =     26533.49250957   -26579.65439704
  entropy T*S    EENTRO =        -0.00000000
  eigenvalues    EBANDS =     -3146.96923609
  atomic energy  EATOM  =      9551.82545455
  ---------------------------------------------------
  free energy    TOTEN  =      -608.31570293 eV

  energy without entropy =     -608.31570293  energy(sigma->0) =     -608.31570293
  exchange ACFDT corr.  =        -0.00000000  see jH, gK, PRB 81, 115126


--------------------------------------------------------------------------------------------------------




--------------------------------------- Iteration      1(  21)  ---------------------------------------


    POTLOK:  cpu time    1.3636: real time    1.3638
    SETDIJ:  cpu time    2.0837: real time    2.0839
    TRIAL :  cpu time  514.4313: real time  514.5227
[...]
  augment    50.68040    51.61549    51.14641     0.55436    -0.56464    -0.77980
  Kinetic  3517.47270  3551.01203  3999.52363    -2.27559    -0.73192    -1.86543
  Fock     -317.16376  -318.65273  -296.59592    -0.29410     0.32688     0.59548
  -------------------------------------------------------------------------------------
  Total     -43.97725   -40.80071    -0.36684     0.27038    -0.07431    -0.03289
  in kB     -22.17878   -20.57677    -0.18501     0.13636    -0.03748    -0.01659
  external pressure =      -14.31 kB  Pullay stress =        0.00 kB


 VOLUME and BASIS-vectors are now :
 -----------------------------------------------------------------------------
  energy-cutoff  :      500.00
  volume of cell :     3176.88
      direct lattice vectors                 reciprocal lattice vectors
    12.770473611 -0.006847521 -0.000467348     0.078305656  0.000046114 -0.000012383
    -0.007359506 12.496909726 -0.000962611     0.000042908  0.080019810  0.000028323
     0.003151951 -0.007047602 19.906346661     0.000001840  0.000003871  0.050235236

  length of vectors
    12.770475455 12.496911930 19.906348158     0.078305670  0.080019827  0.050235236


 FORCES acting on ions:
    Electron-Ion                     Ewald-Force                    Non-Local-Force
 -----------------------------------------------------------------------------------------------
   -.145E+00 -.115E+00 -.781E+00   0.432E-01 0.124E+00 0.787E+00   -.275E-01 0.251E-01 -.298E-02
   -.371E+01 -.218E+00 0.420E+00   0.386E+01 0.304E+00 -.407E+00   -.153E+00 -.394E-01 -.205E-02
   0.663E+01 0.719E+00 0.720E+00   -.650E+01 -.756E+00 -.715E+00   -.104E-01 0.353E-01 0.774E-02
   0.872E+01 0.606E+00 -.191E+01   -.874E+01 -.379E+00 0.189E+01   0.669E-01 -.160E+00 0.236E-01
   0.356E+01 -.563E+01 -.320E+01   -.316E+01 0.612E+01 0.323E+01   -.372E+00 -.536E+00 -.222E-01
   -.348E+01 -.296E+01 -.309E+01   0.352E+01 0.294E+01 0.309E+01   -.111E+00 0.463E-02 -.253E-02
   0.983E+00 -.259E+01 -.181E+01   -.745E+00 0.256E+01 0.182E+01   -.227E+00 -.117E-01 -.798E-02
   0.786E+01 -.769E+01 -.360E+01   -.626E+01 0.760E+01 0.357E+01   -.139E+01 -.358E-01 0.658E-02
   -.825E+00 0.115E+01 -.468E+01   0.132E+01 -.176E+01 0.473E+01   -.516E+00 0.571E+00 -.384E-01
   -.201E+01 -.150E+01 -.495E+01   0.203E+01 0.149E+01 0.495E+01   -.244E-01 -.225E-01 -.957E-03
   0.222E+01 -.194E+01 -.476E+01   -.199E+01 0.196E+01 0.477E+01   -.165E+00 0.372E-01 -.202E-01
   0.905E+01 -.320E+01 -.830E+01   -.919E+01 0.329E+01 0.836E+01   0.273E+00 0.387E-01 -.688E-01
   -.311E+01 -.313E+01 -.455E+01   0.348E+01 0.368E+01 0.444E+01   -.579E+00 -.540E+00 0.107E+00
   -.410E+01 0.296E+01 -.349E+01   0.402E+01 -.284E+01 0.349E+01   -.447E-01 -.405E-01 0.200E-02
   0.245E+01 0.574E+00 -.504E+01   -.211E+01 -.502E+00 0.506E+01   -.150E+00 -.100E+00 -.288E-01
   0.593E+01 0.852E+01 -.395E+01   -.429E+01 -.840E+01 0.388E+01   -.144E+01 -.431E-01 0.334E-01
   0.130E+01 0.753E+01 -.407E+01   -.983E+00 -.799E+01 0.411E+01   -.289E+00 0.513E+00 -.442E-01
   -.358E+01 0.151E+01 0.349E+00   0.368E+01 -.167E+01 -.338E+00   -.110E+00 0.105E+00 0.429E-02
   0.195E+01 0.342E+01 -.229E+01   -.173E+01 -.346E+01 0.231E+01   -.247E+00 0.334E-01 -.136E-01
   0.899E+01 0.195E+01 -.179E+01   -.899E+01 -.228E+01 0.176E+01   0.562E-01 0.223E+00 0.324E-01
   0.729E+00 0.403E+01 -.194E+01   -.118E+01 -.445E+01 0.192E+01   0.332E+00 0.429E+00 0.257E-01
   0.808E+01 0.214E+01 -.308E+01   -.802E+01 -.193E+01 0.314E+01   -.763E-01 -.228E+00 -.369E-01
   0.567E+01 0.284E+01 -.222E+01   -.588E+01 -.292E+01 0.224E+01   0.261E+00 0.119E+00 -.823E-02
   -.298E+01 0.143E+02 -.267E+01   0.287E+01 -.149E+02 0.270E+01   0.111E+00 0.577E+00 -.159E-01
   0.189E+02 0.320E+02 -.442E+01   -.215E+02 -.349E+02 0.447E+01   0.257E+01 0.301E+01 -.668E-01
   0.145E+02 0.702E+01 -.404E+01   -.160E+02 -.559E+01 0.406E+01   0.134E+01 -.130E+01 -.204E-01
   0.875E+00 -.256E+01 -.700E+01   -.636E+00 0.119E+01 0.713E+01   -.932E-01 0.118E+01 -.150E+00
   0.546E+01 -.613E+00 -.262E+01   -.542E+01 0.178E+00 0.266E+01   -.989E-01 0.360E+00 -.401E-01
   0.645E+01 0.519E+00 -.324E+01   -.690E+01 -.195E+01 0.333E+01   0.289E+00 0.122E+01 -.105E+00
   -.404E+01 -.101E+01 -.391E+01   0.392E+01 0.503E+00 0.395E+01   0.155E+00 0.420E+00 -.201E-01
   -.997E+01 0.170E+01 0.776E+00   0.100E+02 -.177E+01 -.769E+00   -.174E+00 0.802E-01 0.948E-02
   -.117E+02 0.800E+01 -.166E+01   0.120E+02 -.829E+01 0.165E+01   -.280E+00 0.318E+00 0.797E-02
   -.253E+01 0.308E+01 -.126E+01   0.284E+01 -.349E+01 0.127E+01   -.193E+00 0.447E+00 -.392E-02
   -.786E+00 -.618E-01 0.743E+00   0.942E+00 0.117E+00 -.736E+00   -.144E+00 -.515E-02 0.679E-02
   -.759E+01 -.429E+00 -.135E+01   0.802E+01 0.499E+00 0.136E+01   -.381E+00 -.101E+00 -.358E-02
   -.421E+02 -.727E+01 -.292E+01   0.456E+02 0.760E+01 0.290E+01   -.364E+01 -.381E+00 -.372E-03
   -.142E+02 -.138E+01 -.244E+01   0.148E+02 0.121E+01 0.244E+01   -.517E+00 0.138E+00 -.959E-02
   -.316E+01 -.433E+01 -.314E+01   0.343E+01 0.438E+01 0.315E+01   -.171E+00 -.541E-01 -.983E-02
   -.852E+01 -.235E+01 -.477E+01   0.867E+01 0.250E+01 0.479E+01   -.118E+00 -.613E-01 -.353E-01
   -.552E+02 -.378E+01 -.372E+01   0.589E+02 0.418E+01 0.384E+01   -.357E+01 -.233E+00 -.144E+00
   -.146E+02 0.136E+01 -.363E+01   0.148E+02 -.100E+01 0.367E+01   -.191E+00 -.212E+00 -.463E-01
   -.368E+01 -.479E+00 -.480E+01   0.374E+01 0.510E+00 0.478E+01   -.496E-01 -.854E-01 0.217E-01
   -.930E+01 -.152E+01 -.595E+01   0.905E+01 0.146E+01 0.599E+01   0.961E-01 0.416E-02 -.497E-01
   -.956E+01 0.104E+01 -.774E+01   0.791E+01 -.100E+01 0.762E+01   0.132E+01 0.196E-01 0.782E-01
   -.802E+01 -.821E+01 -.542E+01   0.775E+01 0.890E+01 0.537E+01   0.440E+00 -.875E+00 0.486E-01
   0.187E+00 0.297E+01 -.439E+01   0.109E-01 -.289E+01 0.441E+01   -.569E-01 -.263E-01 -.162E-01
   -.500E+01 0.231E+01 -.302E+01   0.487E+01 -.237E+01 0.303E+01   0.154E+00 0.749E-01 -.728E-02
   -.799E+01 0.227E+01 -.384E+01   0.793E+01 -.274E+01 0.383E+01   0.740E-02 0.343E+00 0.138E-01
   -.379E+01 0.560E+01 -.619E+01   0.347E+01 -.609E+01 0.622E+01   0.258E+00 0.539E+00 -.320E-01
   0.521E+00 0.208E+01 0.216E+00   -.406E+00 -.230E+01 -.209E+00   -.914E-01 0.160E+00 0.693E-02
   0.141E+02 -.288E+02 -.505E+01   -.108E+02 0.350E+02 0.497E+01   -.350E+01 -.638E+01 0.322E-02
   0.473E+02 -.571E+01 -.255E+01   -.427E+02 0.480E+01 0.179E+01   -.511E+01 0.510E+00 0.633E+00
   0.295E+01 0.328E+02 -.108E+01   0.147E+00 -.379E+02 0.101E+01   -.351E+01 0.537E+01 0.549E-01
   0.109E+01 0.208E+02 -.117E+02   -.408E+01 -.258E+02 0.117E+02   0.347E+01 0.521E+01 -.815E-01
   0.111E+01 -.313E+02 -.920E+01   -.116E+02 0.485E+02 0.966E+01   0.100E+02 -.164E+02 -.454E+00
   -.405E+02 -.951E+01 0.147E+02   0.273E+02 0.843E+01 -.156E+02   0.124E+02 0.735E+00 0.817E+00
   0.457E+02 0.726E+02 0.767E+02   -.472E+02 -.777E+02 -.747E+02   0.255E+01 0.323E+01 -.184E+01
   0.439E+02 -.103E+03 0.102E+03   -.439E+02 0.110E+03 -.998E+02   0.275E+00 -.482E+01 -.242E+01
 -----------------------------------------------------------------------------------------------
   -.930E+01 0.717E+01 0.394E+01   -.355E-12 -.256E-12 -.568E-13   0.867E+01 -.660E+01 -.392E+01
 
 
 POSITION                                       TOTAL-FORCE (eV/Angst)
 -----------------------------------------------------------------------------------
      2.82057     -0.00113      9.95898        -0.138594      0.034010      0.002828
      0.70343      1.25289      9.95729        -0.015730      0.044893      0.010957
      1.40465     -0.00290      9.95644         0.126098      0.000269      0.013378
      3.53535      1.24596      9.96058         0.053488      0.060342      0.000104
      2.84697      2.50065      9.96295         0.003497     -0.077786      0.004363
      0.69630      3.74499      9.96872        -0.076534     -0.019109      0.000226
      1.41410      2.49998      9.96331         0.002164     -0.042442      0.003547
      3.59100      3.74026      9.95642         0.141745     -0.129985     -0.022429
      2.84594      4.98812      9.96280        -0.051376     -0.009536      0.002892
      0.69379      6.23894      9.97554        -0.011459     -0.029960     -0.003787
      1.41888      4.99168      9.97200         0.066898      0.066070     -0.017403
      3.55731      6.23956      9.95506         0.165180      0.128944     -0.010107
      2.84645      7.49447      9.96172        -0.243807     -0.016245      0.006950
      0.69486      8.73964      9.97167        -0.132661      0.069798      0.002156
      1.41842      7.48999      9.97315         0.181889     -0.032644     -0.008461
      3.58824      8.74739      9.95442         0.133014      0.077115     -0.028778
      2.84012      9.98872      9.96418         0.009777      0.081865     -0.010370
      0.69902     11.23537      9.95819        -0.022434     -0.049695      0.015080
      1.41067      9.98757      9.96536        -0.030284     -0.005791      0.008189
      3.52078     11.24881      9.95943         0.070810     -0.097302      0.002343
      7.08381     -0.00340      9.96079        -0.097275      0.023413      0.009802
      4.95954      1.23558      9.96044        -0.026353     -0.030846      0.019618
      5.66507     -0.00011      9.96041         0.065921      0.050160      0.006544
      7.80765      1.21985      9.95962        -0.002823      0.022866      0.011439
      7.11241      2.44303      9.95396         0.187628      0.255483     -0.017125
      5.67241      2.46652      9.95322        -0.123272      0.072229     -0.004618
      7.08397     10.05035      9.96092         0.142815     -0.148057     -0.027485
      4.93983     11.26547      9.95816        -0.057474     -0.063551      0.003879
      5.64817     10.04162      9.94995        -0.145995     -0.152528     -0.019581
      7.79553     11.26745      9.96450         0.047146     -0.073513      0.011973
     11.34730     12.48448      9.95593        -0.130934      0.015867      0.017049
      9.22799      1.22550      9.95977        -0.043384      0.053424      0.005477
      9.93244     12.48153      9.96063         0.120373      0.061470      0.005031
     12.04994      1.24516      9.95610         0.011067      0.049340      0.014150
     11.33391      2.49098      9.96077         0.022628     -0.035571      0.002628
      9.14161      3.70769      9.95127        -0.361481     -0.079766     -0.021132
      9.90420      2.48045      9.95922        -0.023413     -0.039297     -0.003176
     12.03868      3.73819      9.96728         0.087025     -0.010587     -0.000689
     11.30148      4.97843      9.96856         0.023107      0.083937     -0.014437
      9.16429      6.23702      9.93158        -0.030668      0.163636     -0.038092
      9.86532      4.96938      9.95287         0.016731      0.143905     -0.004285
     12.02757      6.22948      9.97396         0.013061     -0.057139     -0.001533
     11.31094      7.48228      9.97412        -0.152315     -0.056887     -0.013586
      9.14988      8.74585      9.96652        -0.263559      0.059486     -0.036687
      9.88570      7.49450      9.96036         0.198501     -0.242121      0.002049
     12.03980      8.73197      9.97376         0.143837      0.058172     -0.002107
     11.32915      9.98199      9.96912         0.025165      0.008323      0.006775
      9.21679     11.24167      9.96758        -0.059566     -0.104688     -0.002069
      9.89989      9.98599      9.97318        -0.044840      0.087548     -0.004221
     12.04600     11.22793      9.95899         0.025930     -0.047356      0.014368
      5.01548      3.72532      9.94076        -0.357391     -0.501884     -0.077913
      4.95679      6.22808      9.89998        -0.763089     -0.384318     -0.102628
      5.00973      8.77332      9.92815        -0.592101      0.530885     -0.011936
      7.73126      8.79690      9.95367         0.656675      0.481741     -0.074510
      7.76155      3.65367      9.94586         0.338211     -0.578307     -0.025711
      7.83047      6.25767      9.86530         0.274010     -0.265475     -0.004194
      6.40403      5.10596      9.80677         0.393626     -0.527899      0.215407
      6.40918      7.35930      9.77155         0.250794      1.125094      0.189848
 -----------------------------------------------------------------------------------
    total drift:                                0.004256      0.005808      0.004642


--------------------------------------------------------------------------------------------------------



  FREE ENERGIE OF THE ION-ELECTRON SYSTEM (eV)
  ---------------------------------------------------
  free  energy   TOTEN  =      -608.36527918 eV

  energy  without entropy=     -608.36527918  energy(sigma->0) =     -608.36527918
 


--------------------------------------------------------------------------------------------------------


    POTLOK:  cpu time    3.4299: real time    3.4304


--------------------------------------------------------------------------------------------------------


 stress matrix after NEB project (eV)
    -43.97725      0.27036     -0.03289
      0.27038    -40.80071     -0.08001
     -0.03161     -0.07431     -0.36684
  FORCES: max atom, RMS     1.168236    0.319943
  FORCE total and by dimension    2.436614    1.125094
  Stress total and by dimension   59.991588   43.977247
 writing wavefunctions
     LOOP+:  cpu time34345.6914: real time34351.5185
    4ORBIT:  cpu time    0.0000: real time    0.0000
 


 total charge     
 
# of ion       s       p       d       tot
------------------------------------------
    1        0.867   1.764   0.000   2.631
    2        0.865   1.758   0.000   2.622
    3        0.864   1.766   0.000   2.630
    4        0.865   1.766   0.000   2.631
    5        0.864   1.747   0.000   2.612
    6        0.864   1.750   0.000   2.614
    7        0.863   1.756   0.000   2.619
    8        0.860   1.741   0.000   2.601
    9        0.866   1.730   0.000   2.596
   10        0.861   1.734   0.000   2.596
   11        0.861   1.755   0.000   2.616
   12        0.864   1.772   0.000   2.637
   13        0.865   1.726   0.000   2.592
   14        0.863   1.750   0.000   2.613
   15        0.860   1.750   0.000   2.610
   16        0.860   1.736   0.000   2.596
   17        0.863   1.749   0.000   2.612
   18        0.864   1.756   0.000   2.621
   19        0.862   1.757   0.000   2.620
   20        0.867   1.769   0.000   2.636
   21        0.871   1.782   0.000   2.653
   22        0.871   1.775   0.000   2.646
   23        0.869   1.784   0.000   2.653
   24        0.873   1.803   0.000   2.676
   25        0.873   1.743   0.000   2.616
   26        0.873   1.772   0.000   2.644
   27        0.882   1.773   0.000   2.655
   28        0.873   1.786   0.000   2.659
   29        0.879   1.767   0.000   2.647
   30        0.873   1.793   0.000   2.666
   31        0.866   1.763   0.000   2.629
   32        0.870   1.765   0.000   2.635
   33        0.867   1.778   0.000   2.645
   34        0.864   1.762   0.000   2.625
   35        0.863   1.757   0.000   2.621
   36        0.854   1.702   0.000   2.555
   37        0.863   1.767   0.000   2.630
   38        0.862   1.759   0.000   2.621
   39        0.860   1.734   0.000   2.594
   40        0.863   1.731   0.000   2.594
   41        0.855   1.750   0.000   2.604
   42        0.857   1.747   0.000   2.605
   43        0.863   1.740   0.000   2.603
   44        0.861   1.735   0.000   2.596
   45        0.862   1.747   0.000   2.609
   46        0.861   1.755   0.000   2.616
   47        0.864   1.751   0.000   2.615
   48        0.868   1.768   0.000   2.636
   49        0.863   1.753   0.000   2.617
   50        0.864   1.762   0.000   2.625
   51        0.870   1.653   0.000   2.523
   52        0.914   1.528   0.000   2.442
   53        0.869   1.653   0.000   2.522
   54        0.872   1.674   0.000   2.546
   55        1.232   2.657   0.000   3.889
   56        1.256   2.591   0.000   3.847
   57        0.522   0.752   6.341   7.615
   58        0.550   0.842   6.183   7.575
--------------------------------------------------
tot         50.342 101.186  12.523 164.051
 


 magnetization (x)
 
# of ion       s       p       d       tot
------------------------------------------
    1       -0.001  -0.014   0.000  -0.015
    2       -0.001  -0.013   0.000  -0.014
    3        0.001   0.013   0.000   0.015
    4        0.001   0.018   0.000   0.020
    5       -0.002  -0.016   0.000  -0.017
    6       -0.001  -0.015   0.000  -0.016
    7        0.001   0.014   0.000   0.016
    8        0.003   0.028   0.000   0.030
    9       -0.005  -0.059   0.000  -0.064
   10       -0.003  -0.040   0.000  -0.043
   11        0.002   0.025   0.000   0.027
   12        0.005   0.047   0.000   0.051
   13       -0.004  -0.051   0.000  -0.055
   14       -0.001  -0.012   0.000  -0.013
   15        0.002   0.025   0.000   0.027
   16        0.002   0.027   0.000   0.029
   17       -0.002  -0.016   0.000  -0.018
   18       -0.001  -0.012   0.000  -0.013
   19        0.001   0.012   0.000   0.013
   20        0.002   0.020   0.000   0.021
   21       -0.002  -0.020   0.000  -0.021
   22       -0.002  -0.019   0.000  -0.021
   23        0.001   0.016   0.000   0.017
   24        0.000   0.006   0.000   0.007
   25       -0.001  -0.012   0.000  -0.014
   26        0.001   0.021   0.000   0.022
   27       -0.001  -0.003   0.000  -0.004
   28       -0.002  -0.020   0.000  -0.022
   29        0.001   0.028   0.000   0.029
   30       -0.000   0.001   0.000   0.001
   31       -0.000  -0.005   0.000  -0.006
   32       -0.000  -0.001   0.000  -0.001
   33        0.000   0.007   0.000   0.007
   34        0.001   0.009   0.000   0.010
   35       -0.001  -0.010   0.000  -0.011
   36       -0.001  -0.007   0.000  -0.008
   37        0.000   0.006   0.000   0.006
   38        0.001   0.014   0.000   0.015
   39       -0.002  -0.022   0.000  -0.023
   40       -0.002  -0.027   0.000  -0.028
   41        0.000   0.013   0.000   0.013
   42        0.002   0.019   0.000   0.021
   43       -0.001  -0.016   0.000  -0.018
   44       -0.000  -0.002   0.000  -0.002
   45        0.001   0.016   0.000   0.017
   46        0.001   0.014   0.000   0.015
   47       -0.001  -0.009   0.000  -0.010
   48        0.000   0.002   0.000   0.002
   49       -0.000   0.002   0.000   0.001
   50        0.001   0.009   0.000   0.009
   51       -0.013  -0.076   0.000  -0.089
   52       -0.024  -0.244   0.000  -0.268
   53       -0.014  -0.075   0.000  -0.089
   54       -0.015  -0.051   0.000  -0.065
   55       -0.004  -0.004   0.000  -0.009
   56       -0.008  -0.103   0.000  -0.111
   57        0.021  -0.000   2.006   2.027
   58        0.056   0.007   2.619   2.682
--------------------------------------------------
tot         -0.008  -0.554   4.625   4.063
 

 total amount of memory used by VASP MPI-rank0   174864. kBytes
=======================================================================

   base      :      30000. kBytes
   nonl-proj :       4580. kBytes
   fftplans  :      14250. kBytes
   grid      :      34043. kBytes
   one-center:         62. kBytes
   HF        :         23. kBytes
   nonlr-proj:      15067. kBytes
   wavefun   :      76839. kBytes
 
  
  
 General timing and accounting informations for this job:
 ========================================================
  
                  Total CPU time used (sec):    34432.145
                            User time (sec):    34380.389
                          System time (sec):       51.754
                         Elapsed time (sec):    34439.116
  
                   Maximum memory used (kb):      426388.
                   Average memory used (kb):           0.
  
                          Minor page faults:       292495
                          Major page faults:            2
                 Voluntary context switches:         1309
