 vasp.5.4.4.18Apr17-6-g9f103f2a35 (build Feb 25 2019 10:51:38) complex          
  
 executed on             LinuxIFC date 2021.06.16  07:09:42
 running on   80 total cores
 distrk:  each k-point on   40 cores,    2 groups
 distr:  one band on NCORES_PER_BAND=  40 cores,    1 groups


--------------------------------------------------------------------------------------------------------


 INCAR:
 POTCAR:    PAW_PBE C 08Apr2002                   
 POTCAR:    PAW_PBE N 08Apr2002                   
 POTCAR:    PAW_PBE Fe 06Sep2000                  
 POTCAR:    PAW_PBE Cr 06Sep2000                  

 ----------------------------------------------------------------------------- 
|                                                                             |
|           W    W    AA    RRRRR   N    N  II  N    N   GGGG   !!!           |
|           W    W   A  A   R    R  NN   N  II  NN   N  G    G  !!!           |
|           W    W  A    A  R    R  N N  N  II  N N  N  G       !!!           |
|           W WW W  AAAAAA  RRRRR   N  N N  II  N  N N  G  GGG   !            |
|           WW  WW  A    A  R   R   N   NN  II  N   NN  G    G                |
|           W    W  A    A  R    R  N    N  II  N    N   GGGG   !!!           |
|                                                                             |
|      For optimal performance we recommend to set                            |
|        NCORE= 4 - approx SQRT( number of cores)                             |
|      NCORE specifies how many cores store one orbital (NPAR=cpu/NCORE).     |
|      This setting can  greatly improve the performance of VASP for DFT.     |
|      The default,   NCORE=1            might be grossly inefficient         |
|      on modern multi-core architectures or massively parallel machines.     |
|      Do your own testing !!!!                                               |
|      Unfortunately you need to use the default for GW and RPA calculations. |
|      (for HF NCORE is supported but not extensively tested yet)             |
|                                                                             |
 ----------------------------------------------------------------------------- 


 ----------------------------------------------------------------------------- 
|                                                                             |
|           W    W    AA    RRRRR   N    N  II  N    N   GGGG   !!!           |
|           W    W   A  A   R    R  NN   N  II  NN   N  G    G  !!!           |
|           W    W  A    A  R    R  N N  N  II  N N  N  G       !!!           |
|           W WW W  AAAAAA  RRRRR   N  N N  II  N  N N  G  GGG   !            |
|           WW  WW  A    A  R   R   N   NN  II  N   NN  G    G                |
|           W    W  A    A  R    R  N    N  II  N    N   GGGG   !!!           |
|                                                                             |
|      You have enabled k-point parallelism (KPAR>1).                         |
|      This developmental code was originally  written by Paul Kent at ORNL,  |
|      and carefully double checked in Vienna.                                |
|      GW as well as linear response parallelism added by Martijn Marsman     |
|      and Georg Kresse.                                                      |
|      Carefully verify results versus KPAR=1.                                |
|      Report problems to Paul Kent and Vienna.                               |
|                                                                             |
 ----------------------------------------------------------------------------- 

 POTCAR:    PAW_PBE C 08Apr2002                   
   VRHFIN =C: s2p2                                                              
   LEXCH  = PE                                                                  
   EATOM  =   147.1560 eV,   10.8157 Ry                                         
                                                                                
   TITEL  = PAW_PBE C 08Apr2002                                                 
   LULTRA =        F    use ultrasoft PP ?                                      
   IUNSCR =        1    unscreen: 0-lin 1-nonlin 2-no                           
   RPACOR =    1.200    partial core radius                                     
   POMASS =   12.011; ZVAL   =    4.000    mass and valenz                      
   RCORE  =    1.500    outmost cutoff radius                                   
   RWIGS  =    1.630; RWIGS  =    0.863    wigner-seitz radius (au A)           
   ENMAX  =  400.000; ENMIN  =  300.000 eV                                      
   ICORE  =        2    local potential                                         
   LCOR   =        T    correct aug charges                                     
   LPAW   =        T    paw PP                                                  
   EAUG   =  644.873                                                            
   DEXC   =    0.000                                                            
   RMAX   =    1.529    core radius for proj-oper                               
   RAUG   =    1.300    factor for augmentation sphere                          
   RDEP   =    1.501    radius for radial grids                                 
   RDEPT  =    1.300    core radius for aug-charge                              
                                                                                
   Atomic configuration                                                         
    4 entries                                                                   
     n  l   j            E        occ.                                          
     1  0  0.50      -273.3789   2.0000                                         
     2  0  0.50       -13.7508   2.0000                                         
     2  1  0.50        -5.2854   2.0000                                         
     3  2  1.50        -5.4423   0.0000                                         
   Description                                                                  
     l       E           TYP  RCUT    TYP  RCUT                                 
     0    -13.7508458     23  1.200                                             
     0     -8.2022199     23  1.200                                             
     1     -5.2854383     23  1.500                                             
     1     34.0145650     23  1.500                                             
     2     -5.4423304      7  1.500                                             
  local pseudopotential read in
  partial core-charges read in
  partial kinetic energy density read in
  atomic valenz-charges read in
  non local Contribution for L=           0  read in
    real space projection operators read in
  non local Contribution for L=           0  read in
    real space projection operators read in
  non local Contribution for L=           1  read in
    real space projection operators read in
  non local Contribution for L=           1  read in
    real space projection operators read in
    PAW grid and wavefunctions read in
 
   number of l-projection  operators is LMAX  =           4
   number of lm-projection operators is LMMAX =           8
 
 POTCAR:    PAW_PBE N 08Apr2002                   
   VRHFIN =N: s2p3                                                              
   LEXCH  = PE                                                                  
   EATOM  =   264.5486 eV,   19.4438 Ry                                         
                                                                                
   TITEL  = PAW_PBE N 08Apr2002                                                 
   LULTRA =        F    use ultrasoft PP ?                                      
   IUNSCR =        1    unscreen: 0-lin 1-nonlin 2-no                           
   RPACOR =    1.200    partial core radius                                     
   POMASS =   14.001; ZVAL   =    5.000    mass and valenz                      
   RCORE  =    1.500    outmost cutoff radius                                   
   RWIGS  =    1.400; RWIGS  =    0.741    wigner-seitz radius (au A)           
   ENMAX  =  400.000; ENMIN  =  300.000 eV                                      
   ICORE  =        2    local potential                                         
   LCOR   =        T    correct aug charges                                     
   LPAW   =        T    paw PP                                                  
   EAUG   =  627.112                                                            
   DEXC   =    0.000                                                            
   RMAX   =    1.529    core radius for proj-oper                               
   RAUG   =    1.300    factor for augmentation sphere                          
   RDEP   =    1.514    radius for radial grids                                 
   RDEPT  =    1.338    core radius for aug-charge                              
                                                                                
   Atomic configuration                                                         
    4 entries                                                                   
     n  l   j            E        occ.                                          
     1  0  0.50      -384.7179   2.0000                                         
     2  0  0.50       -18.5828   2.0000                                         
     2  1  0.50        -7.0898   3.0000                                         
     3  2  1.50        -6.8029   0.0000                                         
   Description                                                                  
     l       E           TYP  RCUT    TYP  RCUT                                 
     0    -18.5828119     23  1.200                                             
     0    -13.5018863     23  1.200                                             
     1     -7.0897853     23  1.500                                             
     1      9.5240782     23  1.500                                             
     2     -6.8029130      7  1.500                                             
  local pseudopotential read in
  partial core-charges read in
  partial kinetic energy density read in
  atomic valenz-charges read in
  non local Contribution for L=           0  read in
    real space projection operators read in
  non local Contribution for L=           0  read in
    real space projection operators read in
  non local Contribution for L=           1  read in
    real space projection operators read in
  non local Contribution for L=           1  read in
    real space projection operators read in
    PAW grid and wavefunctions read in
 
   number of l-projection  operators is LMAX  =           4
   number of lm-projection operators is LMMAX =           8
 
 POTCAR:    PAW_PBE Fe 06Sep2000                  
   VRHFIN =Fe:  d7 s1                                                           
   LEXCH  = PE                                                                  
   EATOM  =   594.3153 eV,   43.6809 Ry                                         
                                                                                
   TITEL  = PAW_PBE Fe 06Sep2000                                                
   LULTRA =        F    use ultrasoft PP ?                                      
   IUNSCR =        1    unscreen: 0-lin 1-nonlin 2-no                           
   RPACOR =    2.000    partial core radius                                     
   POMASS =   55.847; ZVAL   =    8.000    mass and valenz                      
   RCORE  =    2.300    outmost cutoff radius                                   
   RWIGS  =    2.460; RWIGS  =    1.302    wigner-seitz radius (au A)           
   ENMAX  =  267.882; ENMIN  =  200.911 eV                                      
   RCLOC  =    1.701    cutoff for local pot                                    
   LCOR   =        T    correct aug charges                                     
   LPAW   =        T    paw PP                                                  
   EAUG   =  511.368                                                            
   DEXC   =    0.000                                                            
   RMAX   =    2.356    core radius for proj-oper                               
   RAUG   =    1.300    factor for augmentation sphere                          
   RDEP   =    2.442    radius for radial grids                                 
   RDEPT  =    1.890    core radius for aug-charge                              
                                                                                
   Atomic configuration                                                         
    9 entries                                                                   
     n  l   j            E        occ.                                          
     1  0  0.50     -6993.8440   2.0000                                         
     2  0  0.50      -814.6047   2.0000                                         
     2  1  1.50      -693.3689   6.0000                                         
     3  0  0.50       -89.4732   2.0000                                         
     3  1  1.50       -55.6373   6.0000                                         
     3  2  2.50        -3.8151   7.0000                                         
     4  0  0.50        -4.2551   1.0000                                         
     4  1  1.50        -3.4015   0.0000                                         
     4  3  2.50        -1.3606   0.0000                                         
   Description                                                                  
     l       E           TYP  RCUT    TYP  RCUT                                 
     2     -3.8151135     23  2.300                                             
     2     -5.1756961     23  2.300                                             
     0     -4.2550963     23  2.300                                             
     0      7.2035603     23  2.300                                             
     1     -2.7211652     23  2.300                                             
     1     18.4316424     23  2.300                                             
  local pseudopotential read in
  partial core-charges read in
  partial kinetic energy density read in
  atomic valenz-charges read in
  non local Contribution for L=           2  read in
    real space projection operators read in
  non local Contribution for L=           2  read in
    real space projection operators read in
  non local Contribution for L=           0  read in
    real space projection operators read in
  non local Contribution for L=           0  read in
    real space projection operators read in
  non local Contribution for L=           1  read in
    real space projection operators read in
  non local Contribution for L=           1  read in
    real space projection operators read in
    PAW grid and wavefunctions read in
 
   number of l-projection  operators is LMAX  =           6
   number of lm-projection operators is LMMAX =          18
 
 POTCAR:    PAW_PBE Cr 06Sep2000                  
   VRHFIN =Cr : d5 s1                                                           
   LEXCH  = PE                                                                  
   EATOM  =   276.8859 eV,   20.3505 Ry                                         
                                                                                
   TITEL  = PAW_PBE Cr 06Sep2000                                                
   LULTRA =        F    use ultrasoft PP ?                                      
   IUNSCR =        1    unscreen: 0-lin 1-nonlin 2-no                           
   RPACOR =    2.080    partial core radius                                     
   POMASS =   51.996; ZVAL   =    6.000    mass and valenz                      
   RCORE  =    2.500    outmost cutoff radius                                   
   RWIGS  =    2.500; RWIGS  =    1.323    wigner-seitz radius (au A)           
   ENMAX  =  227.080; ENMIN  =  170.310 eV                                      
   RCLOC  =    1.721    cutoff for local pot                                    
   LCOR   =        T    correct aug charges                                     
   LPAW   =        T    paw PP                                                  
   EAUG   =  402.108                                                            
   DEXC   =    0.000                                                            
   RMAX   =    2.552    core radius for proj-oper                               
   RAUG   =    1.300    factor for augmentation sphere                          
   RDEP   =    2.609    radius for radial grids                                 
   RDEPT  =    2.065    core radius for aug-charge                              
                                                                                
   Atomic configuration                                                         
    9 entries                                                                   
     n  l   j            E        occ.                                          
     1  0  0.50     -5880.4963   2.0000                                         
     2  0  0.50      -667.0865   2.0000                                         
     2  1  1.50      -560.6250   6.0000                                         
     3  0  0.50       -73.9860   2.0000                                         
     3  1  1.50       -45.4378   6.0000                                         
     3  2  2.50        -2.9137   5.0000                                         
     4  0  0.50        -4.0071   1.0000                                         
     4  1  0.50        -1.2789   0.0000                                         
     4  3  2.50        -1.3606   0.0000                                         
   Description                                                                  
     l       E           TYP  RCUT    TYP  RCUT                                 
     2     -2.9136677     23  2.500                                             
     2     -4.2742503     23  2.500                                             
     0     -4.0071322     23  2.500                                             
     0      9.4498801     23  2.500                                             
     1     -5.4423304     23  2.500                                             
     1     27.2116520     23  2.500                                             
  local pseudopotential read in
  partial core-charges read in
  partial kinetic energy density read in
  atomic valenz-charges read in
  non local Contribution for L=           2  read in
    real space projection operators read in
  non local Contribution for L=           2  read in
    real space projection operators read in
  non local Contribution for L=           0  read in
    real space projection operators read in
  non local Contribution for L=           0  read in
    real space projection operators read in
  non local Contribution for L=           1  read in
    real space projection operators read in
  non local Contribution for L=           1  read in
    real space projection operators read in
    PAW grid and wavefunctions read in
 
   number of l-projection  operators is LMAX  =           6
   number of lm-projection operators is LMMAX =          18
 

 ----------------------------------------------------------------------------- 
|                                                                             |
|  ADVICE TO THIS USER RUNNING 'VASP/VAMP'   (HEAR YOUR MASTER'S VOICE ...):  |
|                                                                             |
|      You have a (more or less) 'large supercell' and for larger cells       |
|      it might be more efficient to use real space projection opertators     |
|      So try LREAL= Auto  in the INCAR   file.                               |
|      Mind:          For very  accurate calculation you might also keep the  |
|      reciprocal projection scheme          (i.e. LREAL=.FALSE.)             |
|                                                                             |
 ----------------------------------------------------------------------------- 

  PAW_PBE C 08Apr2002                   :
 energy of atom  1       EATOM= -147.1560
 kinetic energy error for atom=    0.0076 (will be added to EATOM!!)
  PAW_PBE N 08Apr2002                   :
 energy of atom  2       EATOM= -264.5486
 kinetic energy error for atom=    0.0138 (will be added to EATOM!!)
  PAW_PBE Fe 06Sep2000                  :
 energy of atom  3       EATOM= -594.3153
 kinetic energy error for atom=    0.0026 (will be added to EATOM!!)
  PAW_PBE Cr 06Sep2000                  :
 energy of atom  4       EATOM= -276.8859
 kinetic energy error for atom=    0.0012 (will be added to EATOM!!)
 
 
 POSCAR:  C  N Fe Cr                             
  positions in cartesian coordinates
  No initial velocities read in
 exchange correlation table for  LEXCH =        8
   RHO(1)=    0.500       N(1)  =     2000
   RHO(2)=  100.500       N(2)  =     4000

 VTST: version 3.2, (02/03/18)

 CHAIN: initializing optimizer
 
 OPT: Using VASP Conjugate-Gradient optimizer
 CHAIN: Read ICHAIN            0
 
 POSCAR:  C  N Fe Cr                             
  positions in cartesian coordinates
  No initial velocities read in
 


--------------------------------------------------------------------------------------------------------


 ion  position               nearest neighbor table
   1  0.228  0.000  0.500-  18 1.46   3 1.46   4 1.47
   2  0.058  0.100  0.500-   7 1.42   3 1.43  33 1.45
   3  0.116  0.000  0.500-   2 1.43  16 1.44   1 1.46
   4  0.283  0.105  0.500-   5 1.46  20 1.47   1 1.47
   5  0.223  0.206  0.500-  50 1.39   7 1.45   4 1.46
   6  0.051  0.299  0.500-  10 1.41  37 1.42   7 1.43
   7  0.111  0.201  0.500-   2 1.42   6 1.43   5 1.45
   8  0.209  0.400  0.500-  50 1.39  10 1.40  11 1.41
   9  0.048  0.500  0.500-  41 1.41  10 1.42  14 1.42
  10  0.102  0.400  0.500-   8 1.40   6 1.41   9 1.42
  11  0.262  0.499  0.499-  54 1.35   8 1.41  12 1.43
  12  0.209  0.601  0.500-  51 1.38  14 1.40  11 1.43
  13  0.051  0.701  0.500-  14 1.41  45 1.42  17 1.43
  14  0.102  0.600  0.500-  12 1.40  13 1.41   9 1.42
  15  0.221  0.796  0.500-  51 1.37  17 1.45  18 1.47
  16  0.058  0.901  0.500-  17 1.42   3 1.44  49 1.45
  17  0.110  0.800  0.500-  16 1.42  13 1.43  15 1.45
  18  0.282  0.896  0.500-   1 1.46  28 1.47  15 1.47
  19  0.558  1.000  0.500-  22 1.43  29 1.43  21 1.44
  20  0.395  0.105  0.500-  52 1.39  21 1.45   4 1.47
  21  0.448  0.001  0.500-  19 1.44  28 1.45  20 1.45
  22  0.615  0.100  0.500-  23 1.42  19 1.43  31 1.43
  23  0.559  0.199  0.500-  52 1.39  22 1.42  24 1.44
  24  0.614  0.301  0.500-  53 1.40  35 1.42  23 1.44
  25  0.610  0.499  0.499-  55 1.38  53 1.40  39 1.44
  26  0.614  0.698  0.500-  55 1.41  43 1.41  27 1.46
  27  0.559  0.801  0.500-  56 1.39  29 1.42  26 1.46
  28  0.395  0.897  0.500-  56 1.39  21 1.45  18 1.47
  29  0.615  0.900  0.500-  27 1.42  19 1.43  47 1.43
  30  0.891  0.000  0.500-  49 1.42  33 1.42  32 1.44
  31  0.725  0.099  0.500-  36 1.41  32 1.42  22 1.43
  32  0.781  1.000  0.500-  31 1.42  47 1.42  30 1.44
  33  0.947  0.100  0.500-  30 1.42  34 1.43   2 1.45
  34  0.889  0.198  0.500-  37 1.41  33 1.43  36 1.43
  35  0.723  0.299  0.500-  24 1.42  40 1.42  36 1.43
  36  0.779  0.199  0.500-  31 1.41  35 1.43  34 1.43
  37  0.942  0.299  0.500-  34 1.41   6 1.42  38 1.43
  38  0.886  0.399  0.500-  41 1.42  40 1.42  37 1.43
  39  0.721  0.499  0.500-  40 1.42  44 1.43  25 1.44
  40  0.777  0.399  0.500-  38 1.42  35 1.42  39 1.42
  41  0.939  0.500  0.500-   9 1.41  38 1.42  42 1.42
  42  0.886  0.600  0.500-  44 1.42  41 1.42  45 1.43
  43  0.723  0.701  0.500-  26 1.41  44 1.43  48 1.43
  44  0.777  0.600  0.500-  42 1.42  43 1.43  39 1.43
  45  0.942  0.701  0.500-  46 1.41  13 1.42  42 1.43
  46  0.889  0.801  0.500-  45 1.41  49 1.43  48 1.43
  47  0.725  0.901  0.500-  48 1.41  32 1.42  29 1.43
  48  0.779  0.801  0.500-  47 1.41  43 1.43  46 1.43
  49  0.947  0.900  0.500-  30 1.42  46 1.43  16 1.45
  50  0.269  0.307  0.499-   8 1.39   5 1.39  57 1.93
  51  0.267  0.695  0.500-  15 1.37  12 1.38  58 2.00
  52  0.453  0.200  0.499-  23 1.39  20 1.39  57 1.94
  53  0.558  0.399  0.499-  25 1.40  24 1.40  57 2.00
  54  0.366  0.496  0.498-  11 1.35  57 1.85  58 1.92
  55  0.560  0.598  0.499-  25 1.38  26 1.41  58 2.00
  56  0.452  0.802  0.500-  27 1.39  28 1.39  58 2.01
  57  0.411  0.353  0.498-  54 1.85  50 1.93  52 1.94  53 2.00
  58  0.413  0.644  0.499-  54 1.92  55 2.00  51 2.00  56 2.01
 
  LATTYP: Found a triclinic cell.
 ALAT       =    17.8934811445
 B/A-ratio  =     0.6858978363
 C/A-ratio  =     1.1097840515
 COS(alpha) =     0.0001343904
 COS(beta)  =     0.0003108646
 COS(gamma) =     0.6850701334
  
  Lattice vectors:
  
 A1 = (  13.0210551921,  12.2730920779,   0.0000000000)
 A2 = (  -0.0139448079,  12.2730920779,   0.0000000000)
 A3 = (   0.0059612746,   0.0026754852,  19.8578989250)


Analysis of symmetry for initial positions (statically):
=====================================================================
 Subroutine PRICEL returns:
 Original cell was already a primitive cell.
 

 Routine SETGRP: Setting up the symmetry group for a 
 triclinic supercell.


 Subroutine GETGRP returns: Found  1 space group operations
 (whereof  1 operations were pure point group operations)
 out of a pool of  2 trial point group operations.


The static configuration has the point symmetry C_1 .


Analysis of symmetry for dynamics (positions and initial velocities):
=====================================================================
 Subroutine PRICEL returns:
 Original cell was already a primitive cell.
 

 Routine SETGRP: Setting up the symmetry group for a 
 triclinic supercell.


 Subroutine GETGRP returns: Found  1 space group operations
 (whereof  1 operations were pure point group operations)
 out of a pool of  2 trial point group operations.


The dynamic configuration has the point symmetry C_1 .


Analysis of structural, dynamic, and magnetic symmetry:
=====================================================================
 Subroutine PRICEL returns:
 Original cell was already a primitive cell.
 

 Routine SETGRP: Setting up the symmetry group for a 
 triclinic supercell.


 Subroutine GETGRP returns: Found  1 space group operations
 (whereof  1 operations were pure point group operations)
 out of a pool of  2 trial point group operations.


The magnetic configuration has the point symmetry C_1 .


 Subroutine INISYM returns: Found  1 space group operations
 (whereof  1 operations are pure point group operations),
 and found     1 'primitive' translations

 
 
 KPOINTS: KPOINTS created by Atomic Simulation Env

Automatic generation of k-mesh.
Space group operators:
 irot       det(A)        alpha          n_x          n_y          n_z        tau_x        tau_y        tau_z
    1     1.000000     0.000000     1.000000     0.000000     0.000000     0.000000     0.000000     0.000000
 
 Subroutine IBZKPT returns following result:
 ===========================================
 
 Found      2 irreducible k-points:
 
 Following reciprocal coordinates:
            Coordinates               Weight
  0.250000  0.250000 -0.000000      2.000000
 -0.250000  0.250000 -0.000000      2.000000
 
 Following cartesian coordinates:
            Coordinates               Weight
  0.019179  0.020392 -0.000009      2.000000
 -0.019179  0.020348  0.000003      2.000000
 
 
 Subroutine IBZKPT_HF returns following result:
 ==============================================
 
 Found      4 k-points in 1st BZ
 the following      4 k-points will be used (e.g. in the exchange kernel)
 Following reciprocal coordinates:   # in IRBZ
  0.250000  0.250000 -0.000000    0.25000000   1 t-inv F
 -0.250000  0.250000 -0.000000    0.25000000   2 t-inv F
 -0.250000 -0.250000  0.000000    0.25000000   1 t-inv T
  0.250000 -0.250000  0.000000    0.25000000   2 t-inv T


--------------------------------------------------------------------------------------------------------




 Dimension of arrays:
   k-points           NKPTS =      2   k-points in BZ     NKDIM =      4   number of bands    NBANDS=    156
   number of dos      NEDOS =    301   number of ions     NIONS =     58
   non local maximal  LDIM  =      6   non local SUM 2l+1 LMDIM =     18
   total plane-waves  NPLWV = ******
   max r-space proj   IRMAX =      1   max aug-charges    IRDMAX=  21038
   dimension x,y,z NGX =    96 NGY =   90 NGZ =  150
   dimension x,y,z NGXF=   192 NGYF=  180 NGZF=  300
   support grid    NGXF=   192 NGYF=  180 NGZF=  300
   ions per type =              49   7   1   1
   NGX,Y,Z   is equivalent  to a cutoff of  12.24, 12.19, 12.56 a.u.
   NGXF,Y,Z  is equivalent  to a cutoff of  24.49, 24.38, 25.12 a.u.

 SYSTEM =  unknown system                          
 POSCAR =   C  N Fe Cr                             

 Startparameter for this run:
   NWRITE =      2    write-flag & timer
   PREC   = accura    normal or accurate (medium, high low for compatibility)
   ISTART =      1    job   : 0-new  1-cont  2-samecut
   ICHARG =      0    charge: 1-file 2-atom 10-const
   ISPIN  =      2    spin polarized calculation?
   LNONCOLLINEAR =      F non collinear calculations
   LSORBIT =      F    spin-orbit coupling
   INIWAV =      1    electr: 0-lowe 1-rand  2-diag
   LASPH  =      T    aspherical Exc in radial PAW
   METAGGA=      F    non-selfconsistent MetaGGA calc.

 Electronic Relaxation 1
   ENCUT  =  500.0 eV  36.75 Ry    6.06 a.u.  23.77 22.38 36.21*2*pi/ulx,y,z
   ENINI  =  500.0     initial cutoff
   ENAUG  =  644.9 eV  augmentation charge cutoff
   NELM   =    250;   NELMIN=  2; NELMDL=  0     # of ELM steps 
   EDIFF  = 0.1E-03   stopping-criterion for ELM
   LREAL  =      F    real-space projection
   NLSPLINE    = F    spline interpolate recip. space projectors
   LCOMPAT=      F    compatible to vasp.4.4
   GGA_COMPAT  = T    GGA compatible to vasp.4.4-vasp.4.6
   LMAXPAW     = -100 max onsite density
   LMAXMIX     =    2 max onsite mixed and CHGCAR
   VOSKOWN=      0    Vosko Wilk Nusair interpolation
   ROPT   =    0.00000   0.00000   0.00000   0.00000
 Ionic relaxation
   EDIFFG = -.3E-01   stopping-criterion for IOM
   NSW    =      0    number of steps for IOM
   NBLOCK =      1;   KBLOCK =      1    inner block; outer block 
   IBRION =     -1    ionic relax: 0-MD 1-quasi-New 2-CG
   NFREE  =      1    steps in history (QN), initial steepest desc. (CG)
   ISIF   =      2    stress and relaxation
   IWAVPR =     10    prediction:  0-non 1-charg 2-wave 3-comb
   ISYM   =      3    0-nonsym 1-usesym 2-fastsym
   LCORR  =      T    Harris-Foulkes like correction to forces

   POTIM  = 0.5000    time-step for ionic-motion
   TEIN   =    0.0    initial temperature
   TEBEG  =    0.0;   TEEND  =   0.0 temperature during run
   SMASS  =  -3.00    Nose mass-parameter (am)
   estimated Nose-frequenzy (Omega)   =  0.10E-29 period in steps =****** mass=  -0.388E-26a.u.
   SCALEE = 1.0000    scale energy and forces
   NPACO  =    256;   APACO  = 16.0  distance and # of slots for P.C.
   PSTRESS=    0.0 pullay stress

  Mass of Ions in am
   POMASS =  12.01 14.00 55.85 52.00
  Ionic Valenz
   ZVAL   =   4.00  5.00  8.00  6.00
  Atomic Wigner-Seitz radii
   RWIGS  =  -1.00 -1.00 -1.00 -1.00
  virtual crystal weights 
   VCA    =   1.00  1.00  1.00  1.00
   NELECT =     245.0000    total number of electrons
   NUPDOWN=      -1.0000    fix difference up-down

 DOS related values:
   EMIN   =  10.00;   EMAX   =-10.00  energy-range for DOS
   EFERMI =   0.00
   ISMEAR =     0;   SIGMA  =   0.10  broadening in eV -4-tet -1-fermi 0-gaus

 Electronic relaxation 2 (details)
   IALGO  =     53    algorithm
   LDIAG  =      T    sub-space diagonalisation (order eigenvalues)
   LSUBROT=      F    optimize rotation matrix (better conditioning)
   TURBO    =      0    0=normal 1=particle mesh
   IRESTART =      0    0=no restart 2=restart with 2 vectors
   NREBOOT  =      0    no. of reboots
   NMIN     =      0    reboot dimension
   EREF     =   0.00    reference energy to select bands
   IMIX   =      4    mixing-type and parameters
     AMIX     =   0.40;   BMIX     =  1.00
     AMIX_MAG =   1.60;   BMIX_MAG =  1.00
     AMIN     =   0.10
     WC   =   100.;   INIMIX=   1;  MIXPRE=   1;  MAXMIX= -45

 Intra band minimization:
   WEIMIN = 0.0000     energy-eigenvalue tresh-hold
   EBREAK =  0.16E-06  absolut break condition
   DEPER  =   0.30     relativ break condition  

   TIME   =   0.20     timestep for ELM

  volume/ion in A,a.u.               =      54.77       369.63
  Fermi-wavevector in a.u.,A,eV,Ry     =   0.696836  1.316830  6.606728  0.485581
  Thomas-Fermi vector in A             =   1.779997
 
 Write flags
   LWAVE        =      T    write WAVECAR
   LDOWNSAMPLE  =      F    k-point downsampling of WAVECAR
   LCHARG       =      T    write CHGCAR
   LVTOT        =      F    write LOCPOT, total local potential
   LVHAR        =      F    write LOCPOT, Hartree potential only
   LELF         =      F    write electronic localiz. function (ELF)
   LORBIT       =     11    0 simple, 1 ext, 2 COOP (PROOUT), +10 PAW based schemes


 Dipole corrections
   LMONO  =      F    monopole corrections only (constant potential shift)
   LDIPOL =      T    correct potential (dipole corrections)
   IDIPOL =      3    1-x, 2-y, 3-z, 4-all directions 
   EPSILON=  1.0000000 bulk dielectric constant

 Exchange correlation treatment:
   GGA     =    PE    GGA type
   LEXCH   =     8    internal setting for exchange type
   VOSKOWN=      0    Vosko Wilk Nusair interpolation
   EXXOEP  =     0    0=HF, 1=EXX-LHF (local Hartree Fock) 2=EXX OEP
   LHFCALC =     T    Hartree Fock is set to
   LSYMGRAD=     F    symmetrize gradient (conserves proper symmetry)
   PRECFOCK=normal    Normal, Fast or Accurate (Low or Medium for compatibility)
   LRHFCALC=     F    long range Hartree Fock
   LRSCOR  =     F    long range correlation only (use DFT for short range part)
   LTHOMAS =     F    Thomas Fermi screening in HF
   LMODELHF=     F    short range full HF, long range fraction AEXX
   ENCUT4O =  -1.0   cutoff for four orbital integrals eV
   LMAXFOCK=     4    L truncation for augmentation on plane wave grid
   LMAXFOCKAE=  -1    L truncation for all-electron charge restoration on plane wave grid
   NMAXFOCKAE=   1    number of basis functions for all-electron charge restoration
   LFOCKAEDFT=     F  apply the AE augmentation even for DFT
   NKREDX  =     1    reduce k-point grid by
   NKREDY  =     1    reduce k-point grid by
   NKREDZ  =     1    reduce k-point grid by
   SHIFTRED=     F    shift reduced grid of Gamma
   HFKIDENT=     F    idential grid for each k-point
   ODDONLY =     F    use only odd q-grid points
   EVENONLY=     F    use only even q-grid points
   HFALPHA =   -1.0000 decay constant for conv. correction
   MCALPHA =    0.0000 extent of test-charge in conv. correction in multipole expansion
   AEXX    =    0.2500 exact exchange contribution
   HFSCREEN=    0.2000 screening length (either q_TF or 0.3 A-1)
   HFSCREENC=   0.2000 screening length for correlation (either q_TF or 0.3 A-1)
   HFRCUT  =    0.0000 spherical cutoff for potential kernel
   ALDAX   =    0.7500 LDA exchange part
   AGGAX   =    0.7500 GGA exchange part
   ALDAC   =    1.0000 LDA correlation
   AGGAC   =    1.0000 GGA correlation
   ENCUTFOCK=  -1.0 apply spherical cutoff to Coloumb kernel
   NBANDSGWLOW=     1    first orbital included in HF term
   NBLOCK_FOCK=    64    blocking factor in FOCK_ACC
 Linear response parameters
   LEPSILON=     F    determine dielectric tensor
   LRPA    =     F    only Hartree local field effects (RPA)
   LNABLA  =     F    use nabla operator in PAW spheres
   LVEL    =     F    velocity operator in full k-point grid
   LINTERFAST=   F  fast interpolation
   KINTER  =     0    interpolate to denser k-point grid
   CSHIFT  =0.1000    complex shift for real part using Kramers Kronig
   OMEGAMAX=  -1.0    maximum frequency
   DEG_THRESHOLD= 0.2000000E-02 threshold for treating states as degnerate
   RTIME   =   -0.100 relaxation time in fs
  (WPLASMAI=    0.000 imaginary part of plasma frequency in eV, 0.658/RTIME)
   DFIELD  = 0.0000000 0.0000000 0.0000000 field for delta impulse in time
 
 Orbital magnetization related:
   ORBITALMAG=     F  switch on orbital magnetization
   LCHIMAG   =     F  perturbation theory with respect to B field
   DQ        =  0.001000  dq finite difference perturbation B field
   LLRAUG    =     F  two centre corrections for induced B field



--------------------------------------------------------------------------------------------------------


 Static calculation
 charge density and potential will be updated during run
 spin polarized calculation
 Conjugate gradient for all bands (Freysoldt, et al. PRB 79, 241103 (2009))
 perform sub-space diagonalisation
    before iterative eigenvector-optimisation
 modified Broyden-mixing scheme, WC =      100.0
 initial mixing is a Kerker type mixing with AMIX =  0.4000 and BMIX =      1.0000
 Hartree-type preconditioning will be used
 using additional bands           33
 reciprocal scheme for non local part
 use partial core corrections
 no Harris-corrections to forces 
 use gradient corrections 
 use of overlap-Matrix (Vanderbilt PP)
 Gauss-broadening in eV      SIGMA  =   0.10


--------------------------------------------------------------------------------------------------------


  energy-cutoff  :      500.00
  volume of cell :     3176.86
      direct lattice vectors                 reciprocal lattice vectors
    13.035000000  0.000000000  0.000000000     0.076716532  0.000087166 -0.000023042
    -0.013944808 12.273092078  0.000000000     0.000000000  0.081479060 -0.000010978
     0.005961275  0.002675485 19.857898925     0.000000000  0.000000000  0.050357795

  length of vectors
    13.035000000 12.273100000 19.857900000     0.076716585  0.081479060  0.050357795


 
 old parameters found on file WAVECAR:
  energy-cutoff  :      500.00
  volume of cell :     3176.86
      direct lattice vectors                 reciprocal lattice vectors
    13.035000000  0.000000000  0.000000000     0.076716532  0.000087166 -0.000023042
    -0.013944808 12.273092078  0.000000000     0.000000000  0.081479060 -0.000010978
     0.005961275  0.002675485 19.857898925     0.000000000  0.000000000  0.050357795

  length of vectors

 
 k-points in units of 2pi/SCALE and weight: KPOINTS created by Atomic Simulation Env
   0.01917913  0.02039156 -0.00000850       0.500
  -0.01917913  0.02034797  0.00000302       0.500
 
 k-points in reciprocal lattice and weights: KPOINTS created by Atomic Simulation Env
   0.25000000  0.25000000 -0.00000000       0.500
  -0.25000000  0.25000000 -0.00000000       0.500
 
 position of ions in fractional coordinates (direct lattice) 
   0.22796047  0.00049488  0.49982854
   0.05833959  0.09982846  0.49998880
   0.11564638  0.00040372  0.49995619
   0.28265140  0.10509426  0.49956049
   0.22282816  0.20556801  0.49951207
   0.05088434  0.29855571  0.50006216
   0.11149745  0.20109589  0.49987843
   0.20869819  0.39990069  0.49966733
   0.04750131  0.49989483  0.50031812
   0.10158514  0.39975418  0.50013813
   0.26239870  0.49948327  0.49934728
   0.20885450  0.60067291  0.49991392
   0.05067974  0.70146729  0.50016193
   0.10178060  0.60018476  0.50026791
   0.22145202  0.79553660  0.49993521
   0.05774767  0.90085370  0.50002028
   0.11042267  0.79972988  0.50006183
   0.28225385  0.89627818  0.49988861
   0.55843104  0.99998606  0.50006736
   0.39504255  0.10472482  0.49953172
   0.44802095  0.00094710  0.49990619
   0.61468948  0.09963029  0.50001650
   0.55919829  0.19904616  0.49959796
   0.61406693  0.30139368  0.49954122
   0.61033469  0.49873968  0.49947890
   0.61428919  0.69760385  0.49980772
   0.55875141  0.80081855  0.49996778
   0.39477704  0.89729989  0.49990661
   0.61474112  0.90014788  0.50014798
   0.89111416  0.00009903  0.50008210
   0.72471210  0.09914529  0.50013934
   0.78076486  0.99996786  0.50015028
   0.94690633  0.09977343  0.50009010
   0.88890847  0.19842164  0.50013018
   0.72277642  0.29876700  0.49991941
   0.77899312  0.19870903  0.50010708
   0.94195679  0.29884975  0.50014134
   0.88588886  0.39911330  0.50016109
   0.72111622  0.49905975  0.49991466
   0.77686166  0.39943397  0.50000988
   0.93939922  0.49985672  0.50023319
   0.88551072  0.60035536  0.50012250
   0.72276286  0.70066503  0.49998857
   0.77657117  0.59962589  0.50001831
   0.94172117  0.70094931  0.50008424
   0.88885825  0.80136413  0.50002360
   0.72472178  0.90051001  0.50014010
   0.77895848  0.80096443  0.50006109
   0.94664743  0.90049153  0.50002329
   0.26931943  0.30723759  0.49918258
   0.26694059  0.69473081  0.49969440
   0.45278862  0.20048078  0.49918631
   0.55793229  0.39889617  0.49913494
   0.36579438  0.49570424  0.49834593
   0.56046035  0.59821384  0.49936270
   0.45236178  0.80218409  0.49981908
   0.41116733  0.35257694  0.49848369
   0.41297030  0.64361789  0.49875292
 
 position of ions in cartesian coordinates  (Angst):
   2.97443742  0.00741102  9.92554466
   0.76204501  1.22654165  9.92872698
   1.51042530  0.00629256  9.92807940
   3.68587344  1.29116814  9.92022167
   2.90467620  2.52429155  9.91926011
   0.66209508  3.66553960  9.93018376
   1.45354497  2.46940581  9.92653542
   2.71778296  4.90935487  9.92234333
   0.61519118  6.13659384  9.93526666
   1.32156922  4.90755796  9.93169237
   3.41637858  6.13154019  9.91598783
   2.71702227  7.37345145  9.92724016
   0.65381018  8.61051080  9.93216506
   1.32132294  7.36746133  9.93426950
   2.87851376  9.76503157  9.92766286
   0.74315939 11.05759826  9.92935211
   1.43118845  9.81649636  9.93017718
   3.66966053 11.00144211  9.92673739
   7.26818506 12.27425891  9.93028715
   5.15089707  1.28663389  9.91965035
   5.84291997  0.01296130  9.92708651
   8.01406875  1.22410949  9.92927714
   7.28935225  2.44424853  9.92096584
   8.00313740  3.70036887  9.91983913
   7.95173544  6.12241438  9.91860146
   8.00051118  8.56309348  9.92513122
   7.27513783  9.82985743  9.92830960
   5.13638608 11.01398163  9.92709493
   8.00357969 11.04893594  9.93188797
  11.61865285  0.00255338  9.93057984
   9.44822112  1.21815734  9.93171641
  10.16630717 12.27403571  9.93193366
  12.34451384  1.22586647  9.93073859
  11.58713643  2.43658515  9.93153447
   9.42020449  3.66813242  9.92734915
  10.15438560  2.44011229  9.93107590
  12.27722080  3.66914860  9.93175621
  11.54497732  4.89969245  9.93214837
   9.39577078  6.12634380  9.92725484
  10.12380242  4.90362771  9.92914566
  12.24108049  6.13612586  9.93358005
  11.53724171  7.36955473  9.93138197
   9.41442375  8.60066410  9.92872245
  10.11722428  7.36060153  9.92931297
  12.26854202  8.60415338  9.93062223
  11.57807314  9.83655359  9.92941808
   9.43717248 11.05338039  9.93173151
  10.14553543  9.83164810  9.93016257
  12.32997284 11.05315327  9.92941192
   3.50927019  3.77209076  9.91271714
   3.47286146  8.52783208  9.92288089
   5.90227974  2.46185468  9.91279123
   7.27006038  4.89702481  9.91177109
   4.76418805  6.08515711  9.89610307
   7.30023547  7.34326953  9.91629397
   5.88832905  9.84661649  9.92535677
   5.35762118  4.32854295  9.89883883
   5.37706600  7.90051607  9.90418508
 


--------------------------------------------------------------------------------------------------------


 k-point  1 :   0.2500 0.2500-0.0000  plane waves:   80643
 k-point  2 :  -0.2500 0.2500-0.0000  plane waves:   80646

 maximum and minimum number of plane-waves per node :      2047     1992

 maximum number of plane-waves:     80646
 maximum index in each direction: 
   IXMAX=   24   IYMAX=   22   IZMAX=   36
   IXMIN=  -24   IYMIN=  -22   IZMIN=  -36


 parallel 3D FFT for wavefunctions:
    minimum data exchange during FFTs selected (reduces bandwidth)
 parallel 3D FFT for charge:
    minimum data exchange during FFTs selected (reduces bandwidth)


 FFT grid for exact exchange (Hartree Fock) 
  NGX = 72; NGY = 70; NGZ =112

 
 Radii for the augmentation spheres in the non-local exchange
 for species   1 augmentation radius   0.874 (default was   0.699)
       energy cutoff for augmentation   2000.0
 for species   2 augmentation radius   0.886 (default was   0.709)
       energy cutoff for augmentation   2000.0
 for species   3 augmentation radius   1.263 (default was   1.010)
       energy cutoff for augmentation   2000.0
 for species   4 augmentation radius   1.424 (default was   1.139)
       energy cutoff for augmentation   2000.0

 real space projection operators:
  total allocation   :       2636.31 KBytes
  max/ min on nodes  :        118.89         22.08

 Maximum index for augmentation-charges in exchange           79
  SETUP_FOCK is finished

 total amount of memory used by VASP MPI-rank0   139439. kBytes
=======================================================================

   base      :      30000. kBytes
   nonl-proj :       4274. kBytes
   fftplans  :      11188. kBytes
   grid      :      29312. kBytes
   one-center:         62. kBytes
   HF        :         23. kBytes
   nonlr-proj:       2252. kBytes
   wavefun   :      62328. kBytes
 
     INWAV:  cpu time    2.9595: real time    5.4963
 Broyden mixing: mesh for mixing (old mesh)
   NGX = 47   NGY = 45   NGZ = 73
  (NGX  =192   NGY  =180   NGZ  =300)
  gives a total of 154395 points

 charge density for first step will be calculated from the start-wavefunctions


--------------------------------------------------------------------------------------------------------


 Maximum index for augmentation-charges          901 (set IRDMAX)


--------------------------------------------------------------------------------------------------------


 initial charge from wavefunction
 First call to EWALD:  gamma=   0.121
 Maximum number of real-space cells 3x 3x 2
 Maximum number of reciprocal cells 2x 2x 4

    FEWALD:  cpu time    0.0031: real time    0.0032


--------------------------------------- Iteration      1(   1)  ---------------------------------------


    POTLOK:  cpu time    1.0181: real time    1.0244
    SETDIJ:  cpu time    1.2095: real time    1.2126
    TRIAL :  cpu time  195.2437: real time  195.8239
    CORREC:  cpu time    0.0015: real time    0.0015
    CHARGE:  cpu time    0.9135: real time    0.9157
    --------------------------------------------
      LOOP:  cpu time  198.4084: real time  199.0018

 eigenvalue-minimisations  :     0
 total energy-change (2. order) :-0.6127770E+03  (-0.4231341E+00)
 number of electron     245.0000016 magnetization       1.0574784
 augmentation part       12.9163294 magnetization       0.6930603

 DIPCOR: dipole corrections for dipol
 direction  3 min pos     1,
 dipolmoment           0.000001      0.000000      0.002109 electrons x Angstroem
 Tr[quadrupol]     -6556.762042

 energy correction for charged system         0.000000 eV
 dipol+quadrupol energy correction            0.000000 eV
 added-field ion interaction          0.000000 eV  (added to PSCEN)


 Free energy of the ion-electron system (eV)
  ---------------------------------------------------
  alpha Z        PSCENC =       101.21381164
  Ewald energy   TEWEN  =     39069.79433235
  -Hartree energ DENC   =    -47545.59498833
  -exchange      EXHF   =       559.70178554
  -V(xc)+E(xc)   XCENC  =       615.10871988
  PAW double counting   =     26328.91313206   -26353.36658958
  entropy T*S    EENTRO =        -0.00860416
  eigenvalues    EBANDS =     -3206.35684261
  atomic energy  EATOM  =      9817.82009049
  ---------------------------------------------------
  free energy    TOTEN  =      -612.77699003 eV

  energy without entropy =     -612.76838587  energy(sigma->0) =     -612.77268795
  exchange ACFDT corr.  =        -0.00714079  see jH, gK, PRB 81, 115126


--------------------------------------------------------------------------------------------------------




--------------------------------------- Iteration      1(   2)  ---------------------------------------


    POTLOK:  cpu time    1.0337: real time    1.0384
    SETDIJ:  cpu time    1.2187: real time    1.2231
    TRIAL :  cpu time  192.5103: real time  193.0577
    CORREC:  cpu time    0.0010: real time    0.0010
    CHARGE:  cpu time    0.9245: real time    0.9270
    --------------------------------------------
      LOOP:  cpu time  195.6905: real time  196.2539

 eigenvalue-minimisations  :     0
 total energy-change (2. order) :-0.3546774E+00  (-0.3764958E+00)
 number of electron     245.0000016 magnetization       1.0403528
 augmentation part       12.8966212 magnetization       0.6923909

 DIPCOR: dipole corrections for dipol
 direction  3 min pos     1,
 dipolmoment           0.000001      0.000000      0.001873 electrons x Angstroem
 Tr[quadrupol]     -6556.598454

 energy correction for charged system         0.000000 eV
 dipol+quadrupol energy correction            0.000000 eV
 added-field ion interaction          0.000000 eV  (added to PSCEN)


 Free energy of the ion-electron system (eV)
  ---------------------------------------------------
  alpha Z        PSCENC =       101.21381162
  Ewald energy   TEWEN  =     39069.79433235
  -Hartree energ DENC   =    -47530.67217938
  -exchange      EXHF   =       559.56616820
  -V(xc)+E(xc)   XCENC  =       614.74003364
  PAW double counting   =     26464.30347812   -26488.62127064
  entropy T*S    EENTRO =        -0.00640486
  eigenvalues    EBANDS =     -3221.26752771
  atomic energy  EATOM  =      9817.82009049
  ---------------------------------------------------
  free energy    TOTEN  =      -613.13166748 eV

  energy without entropy =     -613.12526261  energy(sigma->0) =     -613.12846504
  exchange ACFDT corr.  =        -0.00716348  see jH, gK, PRB 81, 115126


--------------------------------------------------------------------------------------------------------




--------------------------------------- Iteration      1(   3)  ---------------------------------------


    POTLOK:  cpu time    1.0473: real time    1.0533
    SETDIJ:  cpu time    1.2283: real time    1.2317
    TRIAL :  cpu time  191.8039: real time  192.3106
    CORREC:  cpu time    0.0009: real time    0.0009
    CHARGE:  cpu time    0.9045: real time    0.9068
    --------------------------------------------
      LOOP:  cpu time  194.9865: real time  195.5102

 eigenvalue-minimisations  :     0
 total energy-change (2. order) :-0.2921999E+00  (-0.2150758E+00)
 number of electron     245.0000016 magnetization       1.0262097
 augmentation part       12.8850357 magnetization       0.6909128

 DIPCOR: dipole corrections for dipol
 direction  3 min pos     1,
 dipolmoment           0.000001      0.000000      0.001789 electrons x Angstroem
 Tr[quadrupol]     -6556.435744

 energy correction for charged system         0.000000 eV
 dipol+quadrupol energy correction            0.000000 eV
 added-field ion interaction          0.000000 eV  (added to PSCEN)


 Free energy of the ion-electron system (eV)
  ---------------------------------------------------
  alpha Z        PSCENC =       101.21381161
  Ewald energy   TEWEN  =     39069.79433235
  -Hartree energ DENC   =    -47515.65848507
  -exchange      EXHF   =       559.49957488
  -V(xc)+E(xc)   XCENC  =       614.37646820
  PAW double counting   =     26633.23366377   -26657.41302724
  entropy T*S    EENTRO =        -0.00443784
  eigenvalues    EBANDS =     -3236.28389147
  atomic energy  EATOM  =      9817.82009049
  ---------------------------------------------------
  free energy    TOTEN  =      -613.42386735 eV

  energy without entropy =     -613.41942951  energy(sigma->0) =     -613.42164843
  exchange ACFDT corr.  =        -0.00493152  see jH, gK, PRB 81, 115126


--------------------------------------------------------------------------------------------------------




--------------------------------------- Iteration      1(   4)  ---------------------------------------


    POTLOK:  cpu time    1.0473: real time    1.0510
    SETDIJ:  cpu time    1.2468: real time    1.2502
    TRIAL :  cpu time  192.4217: real time  192.9393
    CORREC:  cpu time    0.0009: real time    0.0009
    CHARGE:  cpu time    0.9009: real time    0.9037
    --------------------------------------------
      LOOP:  cpu time  195.6195: real time  196.1517

 eigenvalue-minimisations  :     0
 total energy-change (2. order) :-0.1667499E+00  (-0.1248123E+00)
 number of electron     245.0000016 magnetization       1.0163576
 augmentation part       12.8840593 magnetization       0.6924474

 DIPCOR: dipole corrections for dipol
 direction  3 min pos     1,
 dipolmoment           0.000001      0.000000      0.001969 electrons x Angstroem
 Tr[quadrupol]     -6556.375355

 energy correction for charged system         0.000000 eV
 dipol+quadrupol energy correction            0.000000 eV
 added-field ion interaction          0.000000 eV  (added to PSCEN)


 Free energy of the ion-electron system (eV)
  ---------------------------------------------------
  alpha Z        PSCENC =       101.21381163
  Ewald energy   TEWEN  =     39069.79433235
  -Hartree energ DENC   =    -47508.97006836
  -exchange      EXHF   =       559.62552936
  -V(xc)+E(xc)   XCENC  =       614.22988337
  PAW double counting   =     26775.27281562   -26799.37789031
  entropy T*S    EENTRO =        -0.00295127
  eigenvalues    EBANDS =     -3243.19468351
  atomic energy  EATOM  =      9817.82009049
  ---------------------------------------------------
  free energy    TOTEN  =      -613.59061721 eV

  energy without entropy =     -613.58766594  energy(sigma->0) =     -613.58914157
  exchange ACFDT corr.  =        -0.00316741  see jH, gK, PRB 81, 115126


--------------------------------------------------------------------------------------------------------




--------------------------------------- Iteration      1(   5)  ---------------------------------------


    POTLOK:  cpu time    1.0452: real time    1.0510
    SETDIJ:  cpu time    1.2503: real time    1.2536
    TRIAL :  cpu time  192.3878: real time  192.8996
    CORREC:  cpu time    0.0009: real time    0.0009
    CHARGE:  cpu time    0.9003: real time    0.9026
    --------------------------------------------
      LOOP:  cpu time  195.5868: real time  196.1145

 eigenvalue-minimisations  :     0
 total energy-change (2. order) :-0.1013080E+00  (-0.7992704E-01)
 number of electron     245.0000016 magnetization       1.0101738
 augmentation part       12.8894918 magnetization       0.6970371

 DIPCOR: dipole corrections for dipol
 direction  3 min pos     1,
 dipolmoment           0.000001      0.000000      0.002244 electrons x Angstroem
 Tr[quadrupol]     -6556.406857

 energy correction for charged system         0.000000 eV
 dipol+quadrupol energy correction            0.000000 eV
 added-field ion interaction          0.000000 eV  (added to PSCEN)


 Free energy of the ion-electron system (eV)
  ---------------------------------------------------
  alpha Z        PSCENC =       101.21381166
  Ewald energy   TEWEN  =     39069.79433235
  -Hartree energ DENC   =    -47509.98251850
  -exchange      EXHF   =       559.89311603
  -V(xc)+E(xc)   XCENC  =       614.28320821
  PAW double counting   =     26875.35390046   -26899.44945317
  entropy T*S    EENTRO =        -0.00194514
  eigenvalues    EBANDS =     -3242.61546150
  atomic energy  EATOM  =      9817.82009049
  ---------------------------------------------------
  free energy    TOTEN  =      -613.69192524 eV

  energy without entropy =     -613.68998010  energy(sigma->0) =     -613.69095267
  exchange ACFDT corr.  =        -0.00196355  see jH, gK, PRB 81, 115126


--------------------------------------------------------------------------------------------------------




--------------------------------------- Iteration      1(   6)  ---------------------------------------


    POTLOK:  cpu time    1.0444: real time    1.0476
    SETDIJ:  cpu time    1.2247: real time    1.2280
    TRIAL :  cpu time  191.9211: real time  192.4483
    CORREC:  cpu time    0.0009: real time    0.0009
    CHARGE:  cpu time    0.9011: real time    0.9034
    --------------------------------------------
      LOOP:  cpu time  195.0941: real time  195.6345

 eigenvalue-minimisations  :     0
 total energy-change (2. order) :-0.6675734E-01  (-0.5170145E-01)
 number of electron     245.0000016 magnetization       1.0064744
 augmentation part       12.8967342 magnetization       0.7030838

 DIPCOR: dipole corrections for dipol
 direction  3 min pos     1,
 dipolmoment           0.000001      0.000000      0.002460 electrons x Angstroem
 Tr[quadrupol]     -6556.470202

 energy correction for charged system         0.000000 eV
 dipol+quadrupol energy correction            0.000000 eV
 added-field ion interaction          0.000000 eV  (added to PSCEN)


 Free energy of the ion-electron system (eV)
  ---------------------------------------------------
  alpha Z        PSCENC =       101.21381169
  Ewald energy   TEWEN  =     39069.79433235
  -Hartree energ DENC   =    -47514.14982671
  -exchange      EXHF   =       560.18531284
  -V(xc)+E(xc)   XCENC  =       614.41948655
  PAW double counting   =     26939.14297052   -26963.27183276
  entropy T*S    EENTRO =        -0.00130211
  eigenvalues    EBANDS =     -3238.91108240
  atomic energy  EATOM  =      9817.82009049
  ---------------------------------------------------
  free energy    TOTEN  =      -613.75868257 eV

  energy without entropy =     -613.75738047  energy(sigma->0) =     -613.75803152
  exchange ACFDT corr.  =        -0.00121539  see jH, gK, PRB 81, 115126


--------------------------------------------------------------------------------------------------------




--------------------------------------- Iteration      1(   7)  ---------------------------------------


    POTLOK:  cpu time    1.0406: real time    1.0443
    SETDIJ:  cpu time    1.2513: real time    1.2544
    TRIAL :  cpu time  192.2718: real time  192.7866
    CORREC:  cpu time    0.0010: real time    0.0010
    CHARGE:  cpu time    0.9009: real time    0.9032
    --------------------------------------------
      LOOP:  cpu time  195.4679: real time  195.9962

 eigenvalue-minimisations  :     0
 total energy-change (2. order) :-0.4402601E-01  (-0.3375606E-01)
 number of electron     245.0000016 magnetization       1.0042724
 augmentation part       12.9031444 magnetization       0.7093007

 DIPCOR: dipole corrections for dipol
 direction  3 min pos     1,
 dipolmoment           0.000001      0.000000      0.002578 electrons x Angstroem
 Tr[quadrupol]     -6556.523849

 energy correction for charged system         0.000000 eV
 dipol+quadrupol energy correction            0.000000 eV
 added-field ion interaction          0.000000 eV  (added to PSCEN)


 Free energy of the ion-electron system (eV)
  ---------------------------------------------------
  alpha Z        PSCENC =       101.21381171
  Ewald energy   TEWEN  =     39069.79433235
  -Hartree energ DENC   =    -47518.11631171
  -exchange      EXHF   =       560.42612153
  -V(xc)+E(xc)   XCENC  =       614.55047723
  PAW double counting   =     26977.09386987   -27001.27459900
  entropy T*S    EENTRO =        -0.00089716
  eigenvalues    EBANDS =     -3235.30919895
  atomic energy  EATOM  =      9817.82009049
  ---------------------------------------------------
  free energy    TOTEN  =      -613.80270859 eV

  energy without entropy =     -613.80181143  energy(sigma->0) =     -613.80226001
  exchange ACFDT corr.  =        -0.00077033  see jH, gK, PRB 81, 115126


--------------------------------------------------------------------------------------------------------




--------------------------------------- Iteration      1(   8)  ---------------------------------------


    POTLOK:  cpu time    1.0413: real time    1.0461
    SETDIJ:  cpu time    1.2366: real time    1.2405
    TRIAL :  cpu time  191.7892: real time  192.2990
    CORREC:  cpu time    0.0009: real time    0.0009
    CHARGE:  cpu time    0.9019: real time    0.9041
    --------------------------------------------
      LOOP:  cpu time  194.9721: real time  195.4980

 eigenvalue-minimisations  :     0
 total energy-change (2. order) :-0.2930461E-01  (-0.2265661E-01)
 number of electron     245.0000016 magnetization       1.0029341
 augmentation part       12.9078706 magnetization       0.7151251

 DIPCOR: dipole corrections for dipol
 direction  3 min pos     1,
 dipolmoment           0.000001      0.000000      0.002619 electrons x Angstroem
 Tr[quadrupol]     -6556.554947

 energy correction for charged system         0.000000 eV
 dipol+quadrupol energy correction            0.000000 eV
 added-field ion interaction          0.000000 eV  (added to PSCEN)


 Free energy of the ion-electron system (eV)
  ---------------------------------------------------
  alpha Z        PSCENC =       101.21381171
  Ewald energy   TEWEN  =     39069.79433235
  -Hartree energ DENC   =    -47520.62361226
  -exchange      EXHF   =       560.59425621
  -V(xc)+E(xc)   XCENC  =       614.64134130
  PAW double counting   =     26998.32801216   -27022.55982025
  entropy T*S    EENTRO =        -0.00063906
  eigenvalues    EBANDS =     -3233.03952776
  atomic energy  EATOM  =      9817.82009049
  ---------------------------------------------------
  free energy    TOTEN  =      -613.83201320 eV

  energy without entropy =     -613.83137414  energy(sigma->0) =     -613.83169367
  exchange ACFDT corr.  =        -0.00050649  see jH, gK, PRB 81, 115126


--------------------------------------------------------------------------------------------------------




--------------------------------------- Iteration      1(   9)  ---------------------------------------


    POTLOK:  cpu time    1.0377: real time    1.0414
    SETDIJ:  cpu time    1.2262: real time    1.2299
    TRIAL :  cpu time  191.6728: real time  192.1810
    CORREC:  cpu time    0.0011: real time    0.0011
    CHARGE:  cpu time    0.9021: real time    0.9044
    --------------------------------------------
      LOOP:  cpu time  194.8418: real time  195.3641

 eigenvalue-minimisations  :     0
 total energy-change (2. order) :-0.1997627E-01  (-0.1558491E-01)
 number of electron     245.0000016 magnetization       1.0020944
 augmentation part       12.9110641 magnetization       0.7203869

 DIPCOR: dipole corrections for dipol
 direction  3 min pos     1,
 dipolmoment           0.000001      0.000000      0.002632 electrons x Angstroem
 Tr[quadrupol]     -6556.567735

 energy correction for charged system         0.000000 eV
 dipol+quadrupol energy correction            0.000000 eV
 added-field ion interaction          0.000000 eV  (added to PSCEN)


 Free energy of the ion-electron system (eV)
  ---------------------------------------------------
  alpha Z        PSCENC =       101.21381171
  Ewald energy   TEWEN  =     39069.79433235
  -Hartree energ DENC   =    -47521.77615128
  -exchange      EXHF   =       560.70148950
  -V(xc)+E(xc)   XCENC  =       614.69309349
  PAW double counting   =     27009.55685412   -27033.82926402
  entropy T*S    EENTRO =        -0.00047052
  eigenvalues    EBANDS =     -3232.02560678
  atomic energy  EATOM  =      9817.82009049
  ---------------------------------------------------
  free energy    TOTEN  =      -613.85198947 eV

  energy without entropy =     -613.85151895  energy(sigma->0) =     -613.85175421
  exchange ACFDT corr.  =        -0.00034670  see jH, gK, PRB 81, 115126


--------------------------------------------------------------------------------------------------------




--------------------------------------- Iteration      1(  10)  ---------------------------------------


    POTLOK:  cpu time    1.0363: real time    1.0388
    SETDIJ:  cpu time    1.2189: real time    1.2220
    TRIAL :  cpu time  191.9951: real time  192.5154
    CORREC:  cpu time    0.0009: real time    0.0009
    CHARGE:  cpu time    0.9018: real time    0.9042
    --------------------------------------------
      LOOP:  cpu time  195.1549: real time  195.6883

 eigenvalue-minimisations  :     0
 total energy-change (2. order) :-0.1390162E-01  (-0.1090648E-01)
 number of electron     245.0000016 magnetization       1.0015499
 augmentation part       12.9133011 magnetization       0.7250573

 DIPCOR: dipole corrections for dipol
 direction  3 min pos     1,
 dipolmoment           0.000001      0.000000      0.002652 electrons x Angstroem
 Tr[quadrupol]     -6556.571155

 energy correction for charged system         0.000000 eV
 dipol+quadrupol energy correction            0.000000 eV
 added-field ion interaction          0.000000 eV  (added to PSCEN)


 Free energy of the ion-electron system (eV)
  ---------------------------------------------------
  alpha Z        PSCENC =       101.21381172
  Ewald energy   TEWEN  =     39069.79433235
  -Hartree energ DENC   =    -47522.14479069
  -exchange      EXHF   =       560.76968528
  -V(xc)+E(xc)   XCENC  =       614.71980617
  PAW double counting   =     27015.13506792   -27039.43667062
  entropy T*S    EENTRO =        -0.00035747
  eigenvalues    EBANDS =     -3231.73675319
  atomic energy  EATOM  =      9817.82009049
  ---------------------------------------------------
  free energy    TOTEN  =      -613.86589110 eV

  energy without entropy =     -613.86553362  energy(sigma->0) =     -613.86571236
  exchange ACFDT corr.  =        -0.00024677  see jH, gK, PRB 81, 115126


--------------------------------------------------------------------------------------------------------




--------------------------------------- Iteration      1(  11)  ---------------------------------------


    POTLOK:  cpu time    1.0318: real time    1.0352
    SETDIJ:  cpu time    1.2250: real time    1.2281
    TRIAL :  cpu time  192.1362: real time  192.6643
    CORREC:  cpu time    0.0009: real time    0.0009
    CHARGE:  cpu time    0.9023: real time    0.9046
    --------------------------------------------
      LOOP:  cpu time  195.2983: real time  195.8401

 eigenvalue-minimisations  :     0
 total energy-change (2. order) :-0.9825418E-02  (-0.7762204E-02)
 number of electron     245.0000016 magnetization       1.0011857
 augmentation part       12.9151110 magnetization       0.7291934

 DIPCOR: dipole corrections for dipol
 direction  3 min pos     1,
 dipolmoment           0.000001      0.000000      0.002685 electrons x Angstroem
 Tr[quadrupol]     -6556.572200

 energy correction for charged system         0.000000 eV
 dipol+quadrupol energy correction            0.000000 eV
 added-field ion interaction          0.000000 eV  (added to PSCEN)


 Free energy of the ion-electron system (eV)
  ---------------------------------------------------
  alpha Z        PSCENC =       101.21381172
  Ewald energy   TEWEN  =     39069.79433235
  -Hartree energ DENC   =    -47522.24704871
  -exchange      EXHF   =       560.81745267
  -V(xc)+E(xc)   XCENC  =       614.73509018
  PAW double counting   =     27017.78699389   -27042.11051120
  entropy T*S    EENTRO =        -0.00027969
  eigenvalues    EBANDS =     -3231.68557043
  atomic energy  EATOM  =      9817.82009049
  ---------------------------------------------------
  free energy    TOTEN  =      -613.87571651 eV

  energy without entropy =     -613.87543683  energy(sigma->0) =     -613.87557667
  exchange ACFDT corr.  =        -0.00018214  see jH, gK, PRB 81, 115126


--------------------------------------------------------------------------------------------------------




--------------------------------------- Iteration      1(  12)  ---------------------------------------


    POTLOK:  cpu time    1.0295: real time    1.0369
    SETDIJ:  cpu time    1.2508: real time    1.2547
    TRIAL :  cpu time  192.0566: real time  192.5670
    CORREC:  cpu time    0.0009: real time    0.0009
    CHARGE:  cpu time    0.9046: real time    0.9069
    --------------------------------------------
      LOOP:  cpu time  195.2443: real time  195.7724

 eigenvalue-minimisations  :     0
 total energy-change (2. order) :-0.7059314E-02  (-0.5631168E-02)
 number of electron     245.0000016 magnetization       1.0009353
 augmentation part       12.9167084 magnetization       0.7328978

 DIPCOR: dipole corrections for dipol
 direction  3 min pos     1,
 dipolmoment           0.000001      0.000000      0.002717 electrons x Angstroem
 Tr[quadrupol]     -6556.574013

 energy correction for charged system         0.000000 eV
 dipol+quadrupol energy correction            0.000000 eV
 added-field ion interaction          0.000000 eV  (added to PSCEN)


 Free energy of the ion-electron system (eV)
  ---------------------------------------------------
  alpha Z        PSCENC =       101.21381173
  Ewald energy   TEWEN  =     39069.79433235
  -Hartree energ DENC   =    -47522.35633689
  -exchange      EXHF   =       560.85561078
  -V(xc)+E(xc)   XCENC  =       614.74682689
  PAW double counting   =     27019.26252719   -27043.60487416
  entropy T*S    EENTRO =        -0.00022489
  eigenvalues    EBANDS =     -3231.61448453
  atomic energy  EATOM  =      9817.82009049
  ---------------------------------------------------
  free energy    TOTEN  =      -613.88277583 eV

  energy without entropy =     -613.88255094  energy(sigma->0) =     -613.88266339
  exchange ACFDT corr.  =        -0.00013903  see jH, gK, PRB 81, 115126


--------------------------------------------------------------------------------------------------------




--------------------------------------- Iteration      1(  13)  ---------------------------------------


    POTLOK:  cpu time    1.0263: real time    1.0308
    SETDIJ:  cpu time    1.2222: real time    1.2256
    TRIAL :  cpu time  191.6288: real time  192.1476
    CORREC:  cpu time    0.0008: real time    0.0008
    CHARGE:  cpu time    0.9050: real time    0.9073
    --------------------------------------------
      LOOP:  cpu time  194.7855: real time  195.3184

 eigenvalue-minimisations  :     0
 total energy-change (2. order) :-0.5166126E-02  (-0.4164260E-02)
 number of electron     245.0000016 magnetization       1.0007586
 augmentation part       12.9180845 magnetization       0.7362514

 DIPCOR: dipole corrections for dipol
 direction  3 min pos     1,
 dipolmoment           0.000001      0.000000      0.002742 electrons x Angstroem
 Tr[quadrupol]     -6556.576884

 energy correction for charged system         0.000000 eV
 dipol+quadrupol energy correction            0.000000 eV
 added-field ion interaction          0.000000 eV  (added to PSCEN)


 Free energy of the ion-electron system (eV)
  ---------------------------------------------------
  alpha Z        PSCENC =       101.21381173
  Ewald energy   TEWEN  =     39069.79433235
  -Hartree energ DENC   =    -47522.53166679
  -exchange      EXHF   =       560.88840738
  -V(xc)+E(xc)   XCENC  =       614.75754283
  PAW double counting   =     27020.56825037   -27044.92758287
  entropy T*S    EENTRO =        -0.00018541
  eigenvalues    EBANDS =     -3231.47090257
  atomic energy  EATOM  =      9817.82009049
  ---------------------------------------------------
  free energy    TOTEN  =      -613.88794196 eV

  energy without entropy =     -613.88775654  energy(sigma->0) =     -613.88784925
  exchange ACFDT corr.  =        -0.00010945  see jH, gK, PRB 81, 115126


--------------------------------------------------------------------------------------------------------




--------------------------------------- Iteration      1(  14)  ---------------------------------------


    POTLOK:  cpu time    1.0244: real time    1.0286
    SETDIJ:  cpu time    1.2345: real time    1.2375
    TRIAL :  cpu time  191.7724: real time  192.2818
    CORREC:  cpu time    0.0008: real time    0.0008
    CHARGE:  cpu time    0.9017: real time    0.9040
    --------------------------------------------
      LOOP:  cpu time  194.9359: real time  195.4591

 eigenvalue-minimisations  :     0
 total energy-change (2. order) :-0.3848472E-02  (-0.3130975E-02)
 number of electron     245.0000016 magnetization       1.0006309
 augmentation part       12.9191961 magnetization       0.7393125

 DIPCOR: dipole corrections for dipol
 direction  3 min pos     1,
 dipolmoment           0.000001      0.000000      0.002761 electrons x Angstroem
 Tr[quadrupol]     -6556.580035

 energy correction for charged system         0.000000 eV
 dipol+quadrupol energy correction            0.000000 eV
 added-field ion interaction          0.000000 eV  (added to PSCEN)


 Free energy of the ion-electron system (eV)
  ---------------------------------------------------
  alpha Z        PSCENC =       101.21381173
  Ewald energy   TEWEN  =     39069.79433235
  -Hartree energ DENC   =    -47522.73274600
  -exchange      EXHF   =       560.91676254
  -V(xc)+E(xc)   XCENC  =       614.76706434
  PAW double counting   =     27022.08847393   -27046.46211734
  entropy T*S    EENTRO =        -0.00015638
  eigenvalues    EBANDS =     -3231.29727705
  atomic energy  EATOM  =      9817.82009049
  ---------------------------------------------------
  free energy    TOTEN  =      -613.89179043 eV

  energy without entropy =     -613.89163405  energy(sigma->0) =     -613.89171224
  exchange ACFDT corr.  =        -0.00008861  see jH, gK, PRB 81, 115126


--------------------------------------------------------------------------------------------------------




--------------------------------------- Iteration      1(  15)  ---------------------------------------


    POTLOK:  cpu time    1.0249: real time    1.0289
    SETDIJ:  cpu time    1.2321: real time    1.2352
    TRIAL :  cpu time  192.0714: real time  192.5820
    CORREC:  cpu time    0.0008: real time    0.0008
    CHARGE:  cpu time    0.9035: real time    0.9058
    --------------------------------------------
      LOOP:  cpu time  195.2344: real time  195.7591

 eigenvalue-minimisations  :     0
 total energy-change (2. order) :-0.2911444E-02  (-0.2392458E-02)
 number of electron     245.0000016 magnetization       1.0005365
 augmentation part       12.9200772 magnetization       0.7421227

 DIPCOR: dipole corrections for dipol
 direction  3 min pos     1,
 dipolmoment           0.000001      0.000000      0.002779 electrons x Angstroem
 Tr[quadrupol]     -6556.582812

 energy correction for charged system         0.000000 eV
 dipol+quadrupol energy correction            0.000000 eV
 added-field ion interaction          0.000000 eV  (added to PSCEN)


 Free energy of the ion-electron system (eV)
  ---------------------------------------------------
  alpha Z        PSCENC =       101.21381174
  Ewald energy   TEWEN  =     39069.79433235
  -Hartree energ DENC   =    -47522.91440863
  -exchange      EXHF   =       560.94089554
  -V(xc)+E(xc)   XCENC  =       614.77484913
  PAW double counting   =     27023.84182091   -27048.22635106
  entropy T*S    EENTRO =        -0.00013459
  eigenvalues    EBANDS =     -3231.13958597
  atomic energy  EATOM  =      9817.82009049
  ---------------------------------------------------
  free energy    TOTEN  =      -613.89470187 eV

  energy without entropy =     -613.89456728  energy(sigma->0) =     -613.89463458
  exchange ACFDT corr.  =        -0.00007358  see jH, gK, PRB 81, 115126


--------------------------------------------------------------------------------------------------------




--------------------------------------- Iteration      1(  16)  ---------------------------------------


    POTLOK:  cpu time    1.0219: real time    1.0334
    SETDIJ:  cpu time    1.2200: real time    1.2231
    TRIAL :  cpu time  191.7875: real time  192.9370
    CORREC:  cpu time    0.0008: real time    0.0008
    CHARGE:  cpu time    0.9019: real time    0.9041
    --------------------------------------------
      LOOP:  cpu time  194.9329: real time  196.1039

 eigenvalue-minimisations  :     0
 total energy-change (2. order) :-0.2236819E-02  (-0.1860549E-02)
 number of electron     245.0000016 magnetization       1.0004652
 augmentation part       12.9208057 magnetization       0.7447004

 DIPCOR: dipole corrections for dipol
 direction  3 min pos     1,
 dipolmoment           0.000001      0.000000      0.002796 electrons x Angstroem
 Tr[quadrupol]     -6556.585025

 energy correction for charged system         0.000000 eV
 dipol+quadrupol energy correction            0.000000 eV
 added-field ion interaction          0.000000 eV  (added to PSCEN)


 Free energy of the ion-electron system (eV)
  ---------------------------------------------------
  alpha Z        PSCENC =       101.21381174
  Ewald energy   TEWEN  =     39069.79433235
  -Hartree energ DENC   =    -47523.06227167
  -exchange      EXHF   =       560.96136356
  -V(xc)+E(xc)   XCENC  =       614.78093963
  PAW double counting   =     27025.67777036   -27050.07035235
  entropy T*S    EENTRO =        -0.00011792
  eigenvalues    EBANDS =     -3231.01248821
  atomic energy  EATOM  =      9817.82009049
  ---------------------------------------------------
  free energy    TOTEN  =      -613.89693869 eV

  energy without entropy =     -613.89682077  energy(sigma->0) =     -613.89687973
  exchange ACFDT corr.  =        -0.00006248  see jH, gK, PRB 81, 115126


--------------------------------------------------------------------------------------------------------




--------------------------------------- Iteration      1(  17)  ---------------------------------------


    POTLOK:  cpu time    1.0245: real time    1.0287
    SETDIJ:  cpu time    1.2295: real time    1.2327
    TRIAL :  cpu time  191.8836: real time  193.0557
    CORREC:  cpu time    0.0009: real time    0.0009
    CHARGE:  cpu time    0.9034: real time    0.9058
    --------------------------------------------
      LOOP:  cpu time  195.0440: real time  196.2305

 eigenvalue-minimisations  :     0
 total energy-change (2. order) :-0.1747912E-02  (-0.1471670E-02)
 number of electron     245.0000016 magnetization       1.0004103
 augmentation part       12.9214300 magnetization       0.7470536

 DIPCOR: dipole corrections for dipol
 direction  3 min pos     1,
 dipolmoment           0.000001      0.000000      0.002811 electrons x Angstroem
 Tr[quadrupol]     -6556.586755

 energy correction for charged system         0.000000 eV
 dipol+quadrupol energy correction            0.000000 eV
 added-field ion interaction          0.000000 eV  (added to PSCEN)


 Free energy of the ion-electron system (eV)
  ---------------------------------------------------
  alpha Z        PSCENC =       101.21381174
  Ewald energy   TEWEN  =     39069.79433235
  -Hartree energ DENC   =    -47523.18256116
  -exchange      EXHF   =       560.97892298
  -V(xc)+E(xc)   XCENC  =       614.78578338
  PAW double counting   =     27027.43764107   -27051.83658491
  entropy T*S    EENTRO =        -0.00010494
  eigenvalues    EBANDS =     -3230.91000460
  atomic energy  EATOM  =      9817.82009049
  ---------------------------------------------------
  free energy    TOTEN  =      -613.89868660 eV

  energy without entropy =     -613.89858166  energy(sigma->0) =     -613.89863413
  exchange ACFDT corr.  =        -0.00005410  see jH, gK, PRB 81, 115126


--------------------------------------------------------------------------------------------------------




[...]
  augment    47.55974    47.81178    52.03295    -0.35546     0.01568    -0.01950
  Kinetic  3695.46604  3668.35934  4209.82719     2.66339     0.03924     0.11466
  Fock     -316.73181  -316.97934  -295.83243    -0.07075    -0.00406     0.05253
  -------------------------------------------------------------------------------------
  Total     -44.54317   -43.08379    -0.47520     0.25149     0.00999     0.02191
  in kB     -22.46433   -21.72832    -0.23966     0.12684     0.00504     0.01105
  external pressure =      -14.81 kB  Pullay stress =        0.00 kB


 VOLUME and BASIS-vectors are now :
 -----------------------------------------------------------------------------
  energy-cutoff  :      500.00
  volume of cell :     3176.86
      direct lattice vectors                 reciprocal lattice vectors
    13.035000000  0.000000000  0.000000000     0.076716532  0.000087166 -0.000023042
    -0.013944808 12.273092078  0.000000000     0.000000000  0.081479060 -0.000010978
     0.005961275  0.002675485 19.857898925     0.000000000  0.000000000  0.050357795

  length of vectors
    13.035000000 12.273100000 19.857900000     0.076716585  0.081479060  0.050357795


 FORCES acting on ions:
    Electron-Ion                     Ewald-Force                    Non-Local-Force
 -----------------------------------------------------------------------------------------------
   -.185E+01 0.294E+01 -.256E+00   0.201E+01 -.300E+01 0.260E+00   -.120E+00 0.555E-01 -.616E-02
   0.246E+01 0.958E+01 -.591E+00   -.230E+01 -.986E+01 0.589E+00   -.172E+00 0.266E+00 -.621E-03
   -.119E+02 0.254E+01 -.476E+00   0.120E+02 -.253E+01 0.474E+00   -.130E+00 -.151E-01 -.222E-02
   0.393E+01 0.139E+02 0.865E+00   -.415E+01 -.140E+02 -.870E+00   0.160E+00 -.444E-02 0.705E-02
   0.876E+01 0.486E+02 0.806E+00   -.101E+02 -.518E+02 -.789E+00   0.134E+01 0.331E+01 -.132E-01
   0.919E+01 0.157E+02 -.106E+01   -.946E+01 -.159E+02 0.106E+01   0.254E+00 0.250E+00 0.699E-02
   -.147E+00 0.145E+02 -.441E+00   -.208E-01 -.148E+02 0.444E+00   0.139E+00 0.268E+00 -.470E-02
   0.288E+02 -.115E+02 -.106E+01   -.305E+02 0.145E+02 0.109E+01   0.157E+01 -.330E+01 -.350E-01
   0.634E+01 -.241E+01 -.273E+01   -.645E+01 0.241E+01 0.273E+01   0.967E-01 0.412E-02 -.429E-02
   0.177E+02 -.129E+01 -.239E+01   -.181E+02 0.154E+01 0.240E+01   0.505E+00 -.234E+00 -.157E-01
   0.303E+02 -.216E+02 0.306E+00   -.306E+02 0.215E+02 -.324E+00   0.113E+01 0.130E+00 0.317E-03
   0.943E+01 0.604E+01 -.193E+01   -.113E+02 -.895E+01 0.194E+01   0.171E+01 0.321E+01 -.242E-01
   0.596E+01 -.147E+02 -.129E+01   -.622E+01 0.149E+02 0.129E+01   0.241E+00 -.205E+00 0.274E-02
   0.144E+02 -.282E+01 -.284E+01   -.147E+02 0.253E+01 0.285E+01   0.393E+00 0.286E+00 -.143E-01
   -.313E+01 -.449E+02 -.964E+00   0.173E+01 0.481E+02 0.970E+00   0.136E+01 -.333E+01 -.148E-01
   0.333E+00 -.839E+01 -.479E+00   -.210E+00 0.870E+01 0.481E+00   -.129E+00 -.287E+00 -.161E-02
   -.319E+01 -.118E+02 -.945E+00   0.304E+01 0.121E+02 0.944E+00   0.123E+00 -.313E+00 0.286E-02
   -.929E+00 -.252E+00 -.531E+00   0.750E+00 0.247E+00 0.525E+00   0.109E+00 0.626E-01 0.236E-02
   0.237E+01 0.538E+01 -.156E+01   -.233E+01 -.543E+01 0.155E+01   -.966E-01 0.489E-01 0.509E-02
   0.313E+02 0.302E+02 0.571E+00   -.336E+02 -.327E+02 -.555E+00   0.245E+01 0.272E+01 -.143E-01
   0.140E+02 0.529E+01 -.111E+01   -.144E+02 -.532E+01 0.112E+01   0.439E+00 0.167E-01 -.109E-01
   -.105E+02 0.981E+01 -.151E+01   0.112E+02 -.975E+01 0.152E+01   -.672E+00 0.106E-01 -.140E-01
   -.321E+02 0.957E+01 -.151E-02   0.353E+02 -.975E+01 0.244E-01   -.327E+01 0.366E-01 -.267E-01
   -.201E+02 0.190E+02 0.419E+00   0.219E+02 -.212E+02 -.400E+00   -.167E+01 0.234E+01 -.173E-01
   -.551E+01 -.349E+01 0.537E+00   0.869E+01 0.334E+01 -.504E+00   -.336E+01 0.155E+00 -.359E-01
   0.190E+00 -.218E+02 -.599E+00   0.191E+01 0.242E+02 0.622E+00   -.193E+01 -.248E+01 -.280E-01
   -.205E+02 0.773E+01 -.126E+01   0.237E+02 -.734E+01 0.127E+01   -.333E+01 -.207E+00 -.150E-01
   0.320E+02 -.138E+02 -.925E+00   -.344E+02 0.164E+02 0.920E+00   0.249E+01 -.272E+01 -.251E-02
   -.689E+01 -.278E+01 -.183E+01   0.763E+01 0.266E+01 0.184E+01   -.687E+00 0.564E-01 -.126E-01
   0.138E-01 0.832E+00 -.523E+00   0.605E-01 -.825E+00 0.523E+00   -.114E+00 -.499E-02 0.251E-02
   0.796E-02 0.625E+01 -.145E+01   0.450E+00 -.626E+01 0.145E+01   -.397E+00 0.491E-01 -.621E-03
   -.757E+01 0.174E+01 -.109E+01   0.772E+01 -.175E+01 0.109E+01   -.128E+00 -.421E-02 -.218E-02
   -.969E+01 0.301E+01 -.781E+00   0.981E+01 -.304E+01 0.784E+00   -.129E+00 0.250E-01 -.359E-02
   0.121E+01 0.833E+01 -.994E+00   -.114E+01 -.842E+01 0.992E+00   -.538E-01 0.113E+00 0.136E-02
   -.108E+02 0.745E+01 -.751E+00   0.109E+02 -.793E+01 0.752E+00   -.350E+00 0.388E+00 -.377E-02
   -.734E+01 -.112E-01 -.124E+01   0.749E+01 -.374E+00 0.124E+01   -.147E+00 0.291E+00 -.375E-02
   0.246E+01 0.123E+01 -.110E+01   -.258E+01 -.133E+01 0.110E+01   0.147E+00 0.594E-01 0.341E-03
   0.655E+00 0.425E+01 -.125E+01   -.471E+00 -.436E+01 0.125E+01   -.217E+00 0.130E+00 -.186E-02
   -.506E+01 -.352E+01 -.104E+01   0.575E+01 0.352E+01 0.105E+01   -.487E+00 0.696E-02 -.163E-01
   -.592E+01 -.659E+00 -.893E+00   0.629E+01 0.625E+00 0.887E+00   -.313E+00 0.112E+00 0.475E-02
   0.647E+01 -.173E+01 -.156E+01   -.640E+01 0.175E+01 0.156E+01   -.527E-01 -.221E-01 0.258E-02
   0.502E+00 -.644E+01 -.850E+00   -.359E+00 0.656E+01 0.852E+00   -.158E+00 -.136E+00 0.160E-02
   -.677E+01 -.841E+01 -.775E+00   0.696E+01 0.890E+01 0.773E+00   -.331E+00 -.398E+00 -.119E-02
   -.273E+01 -.193E+01 -.787E+00   0.307E+01 0.197E+01 0.782E+00   -.304E+00 -.115E+00 0.203E-02
   0.233E+01 -.102E+01 -.443E+00   -.246E+01 0.109E+01 0.443E+00   0.157E+00 -.433E-01 0.693E-02
   0.142E+01 -.754E+01 -.635E-01   -.134E+01 0.761E+01 0.644E-01   -.698E-01 -.808E-01 0.509E-02
   0.176E+01 -.234E+01 -.115E+01   -.130E+01 0.235E+01 0.114E+01   -.395E+00 -.261E-01 0.360E-02
   -.442E+01 0.136E+01 -.623E+00   0.459E+01 -.978E+00 0.624E+00   -.158E+00 -.301E+00 -.913E-04
   -.864E+01 -.844E+00 -.150E+00   0.876E+01 0.883E+00 0.152E+00   -.115E+00 -.392E-01 0.263E-02
   -.254E+02 0.374E+02 0.301E+01   0.449E+02 -.359E+02 -.325E+01   -.187E+02 -.145E+01 0.235E+00
   -.720E+02 -.257E+02 0.177E+00   0.933E+02 0.246E+02 -.327E+00   -.204E+02 0.106E+01 0.136E+00
   0.339E+02 -.690E+00 0.309E+01   -.441E+02 0.179E+02 -.332E+01   0.968E+01 -.165E+02 0.230E+00
   0.365E+02 -.291E+02 0.316E+01   -.575E+02 0.290E+02 -.337E+01   0.200E+02 0.215E+00 0.207E+00
   -.899E+02 -.500E+02 0.961E+01   0.110E+03 0.508E+02 -.100E+02   -.201E+02 -.711E+00 0.394E+00
   0.680E+02 0.543E+00 0.206E+01   -.893E+02 -.398E+00 -.222E+01   0.204E+02 -.299E+00 0.154E+00
   0.462E+02 0.456E+02 -.800E+00   -.575E+02 -.637E+02 0.753E+00   0.107E+02 0.173E+02 0.443E-01
   -.311E+02 0.130E+01 0.117E+02   0.296E+02 0.863E+00 -.116E+02   0.175E+01 -.242E+01 -.597E-01
   -.141E+02 -.180E+02 0.766E+01   0.132E+02 0.160E+02 -.760E+01   0.954E+00 0.225E+01 -.570E-01
 -----------------------------------------------------------------------------------------------
   0.571E+00 0.499E+00 -.110E+01   -.160E-13 0.568E-13 -.888E-15   -.451E+00 -.426E+00 0.997E+00
 
 
 POSITION                                       TOTAL-FORCE (eV/Angst)
 -----------------------------------------------------------------------------------
      2.97444      0.00741      9.92554         0.030751     -0.008933     -0.003187
      0.76205      1.22654      9.92873        -0.008586     -0.000821     -0.002655
      1.51043      0.00629      9.92808        -0.067221     -0.001720     -0.005201
      3.68587      1.29117      9.92022        -0.053560     -0.048920      0.002252
      2.90468      2.52429      9.91926         0.033775      0.360772      0.003468
      0.66210      3.66554      9.93018        -0.004794      0.019320      0.001848
      1.45354      2.46941      9.92654        -0.030982     -0.025638     -0.002224
      2.71778      4.90935      9.92234         0.044436     -0.468852     -0.008689
      0.61519      6.13659      9.93527        -0.021420      0.003234     -0.006258
      1.32157      4.90756      9.93169         0.086070     -0.007081     -0.006364
      3.41638      6.13154      9.91599         0.898547     -0.055754     -0.018025
      2.71702      7.37345      9.92724        -0.016814      0.477551     -0.012829
      0.65381      8.61051      9.93217        -0.009485     -0.013662      0.002006
      1.32132      7.36746      9.93427         0.091313      0.018695     -0.007345
      2.87851      9.76503      9.92766         0.034086     -0.375413     -0.009382
      0.74316     11.05760      9.92935        -0.004981      0.001046      0.000562
      1.43119      9.81650      9.93018        -0.028039      0.006002      0.001234
      3.66966     11.00144      9.92674        -0.068307      0.067637     -0.002745
      7.26819     12.27426      9.93029        -0.062059      0.002801     -0.006467
      5.15090      1.28663      9.91965         0.258386      0.335992      0.000776
      5.84292      0.01296      9.92709         0.080189     -0.023187     -0.006300
      8.01407      1.22411      9.92928         0.024334      0.069812     -0.007815
      7.28935      2.44425      9.92097        -0.285659     -0.140297     -0.005242
      8.00314      3.70037      9.91984         0.062309      0.245196      0.000938
      7.95174      6.12241      9.91860        -0.343785      0.019037     -0.005062
      8.00051      8.56309      9.92513         0.082440     -0.274230     -0.005826
      7.27514      9.82986      9.92831        -0.299164      0.177894     -0.005494
      5.13639     11.01398      9.92709         0.280668     -0.298253     -0.007429
      8.00358     11.04894      9.93189         0.008698     -0.065106     -0.005315
     11.61865      0.00255      9.93058        -0.036004      0.001197      0.003009
      9.44822      1.21816      9.93172         0.049572      0.047436     -0.002747
     10.16631     12.27404      9.93193         0.009180     -0.013499      0.000025
     12.34451      1.22587      9.93074        -0.024808     -0.011150     -0.000348
     11.58714      2.43659      9.93153         0.021302      0.033800     -0.000610
      9.42020      3.66813      9.92735        -0.176400     -0.073849     -0.003045
     10.15439      2.44011      9.93108        -0.012169     -0.087013     -0.004527
     12.27722      3.66915      9.93176         0.034737     -0.051347      0.001536
     11.54498      4.89969      9.93215        -0.045065      0.039579      0.000980
      9.39577      6.12634      9.92725         0.174962      0.007282     -0.008562
     10.12380      4.90363      9.92915         0.042114      0.081485     -0.001168
     12.24108      6.13613      9.93358         0.016379     -0.002954      0.002933
     11.53724      7.36955      9.93138        -0.024419     -0.027662      0.003739
      9.41442      8.60066      9.92872        -0.156889      0.065115     -0.003021
     10.11722      7.36060      9.92931         0.021933     -0.079532     -0.003121
     12.26854      8.60415      9.93062         0.029496      0.037873      0.006720
     11.57807      9.83655      9.92942         0.012585     -0.020380      0.006443
      9.43717     11.05338      9.93173         0.052992     -0.020313     -0.000625
     10.14554      9.83165      9.93016        -0.003799      0.077577      0.001759
     12.32997     11.05315      9.92941        -0.018289      0.002270      0.005297
      3.50927      3.77209      9.91272        -0.829618     -0.071912      0.013575
      3.47286      8.52783      9.92288        -0.922835      0.067474     -0.001246
      5.90228      2.46185      9.91279         0.308091     -0.720973      0.019043
      7.27006      4.89702      9.91177         0.781829      0.172855      0.015698
      4.76419      6.08516      9.89610        -1.294674     -0.025314      0.024064
      7.30024      7.34327      9.91629         0.889653     -0.175535      0.010691
      5.88833      9.84662      9.92536         0.378302      0.779073      0.001625
      5.35762      4.32854      9.89884         0.031041     -0.193896      0.027325
      5.37707      7.90052      9.90419        -0.020343      0.165193      0.011327
 -----------------------------------------------------------------------------------
    total drift:                               -0.003246      0.001795     -0.002258


--------------------------------------------------------------------------------------------------------



  FREE ENERGIE OF THE ION-ELECTRON SYSTEM (eV)
  ---------------------------------------------------
  free  energy   TOTEN  =      -613.90777991 eV

  energy  without entropy=     -613.90774203  energy(sigma->0) =     -613.90776097
 


--------------------------------------------------------------------------------------------------------


    POTLOK:  cpu time    2.3105: real time    2.3192


--------------------------------------------------------------------------------------------------------


 stress matrix after NEB project (eV)
    -44.54317      0.25196      0.02191
      0.25149    -43.08379      0.01002
      0.02196      0.00999     -0.47520
  FORCES: max atom, RMS     1.295146    0.387362
  FORCE total and by dimension    2.950058    1.294674
  Stress total and by dimension   61.973062   44.543172
 writing wavefunctions
     LOOP+:  cpu time10393.0720: real time10429.9481
    4ORBIT:  cpu time    0.0000: real time    0.0000
 


 total charge     
 
# of ion       s       p       d       tot
------------------------------------------
    1        0.849   1.683   0.000   2.532
    2        0.863   1.750   0.000   2.613
    3        0.855   1.748   0.000   2.603
    4        0.841   1.725   0.000   2.566
    5        0.850   1.691   0.000   2.541
    6        0.872   1.779   0.000   2.651
    7        0.860   1.765   0.000   2.626
    8        0.876   1.780   0.000   2.655
    9        0.870   1.804   0.000   2.673
   10        0.877   1.821   0.000   2.698
   11        0.879   1.792   0.000   2.671
   12        0.872   1.772   0.000   2.644
   13        0.871   1.774   0.000   2.645
   14        0.876   1.818   0.000   2.694
   15        0.852   1.695   0.000   2.547
   16        0.863   1.752   0.000   2.616
   17        0.862   1.769   0.000   2.632
   18        0.841   1.724   0.000   2.564
   19        0.868   1.749   0.000   2.617
   20        0.847   1.682   0.000   2.529
   21        0.858   1.748   0.000   2.606
   22        0.866   1.783   0.000   2.649
   23        0.861   1.733   0.000   2.594
   24        0.856   1.729   0.000   2.585
   25        0.843   1.667   0.000   2.509
   26        0.852   1.721   0.000   2.573
   27        0.857   1.723   0.000   2.580
   28        0.848   1.682   0.000   2.530
   29        0.865   1.780   0.000   2.645
   30        0.867   1.768   0.000   2.635
   31        0.868   1.785   0.000   2.653
   32        0.866   1.773   0.000   2.639
   33        0.862   1.761   0.000   2.623
   34        0.869   1.773   0.000   2.642
   35        0.868   1.782   0.000   2.651
   36        0.866   1.780   0.000   2.646
   37        0.868   1.789   0.000   2.657
   38        0.867   1.781   0.000   2.648
   39        0.864   1.772   0.000   2.636
   40        0.870   1.779   0.000   2.649
   41        0.874   1.789   0.000   2.663
   42        0.867   1.779   0.000   2.646
   43        0.869   1.780   0.000   2.649
   44        0.868   1.774   0.000   2.642
   45        0.867   1.787   0.000   2.655
   46        0.868   1.772   0.000   2.640
   47        0.867   1.783   0.000   2.651
   48        0.865   1.779   0.000   2.645
   49        0.863   1.763   0.000   2.626
   50        1.231   2.660   0.000   3.891
   51        1.235   2.683   0.000   3.918
   52        1.228   2.656   0.000   3.884
   53        1.222   2.640   0.000   3.862
   54        1.258   2.592   0.000   3.850
   55        1.225   2.670   0.000   3.895
   56        1.230   2.670   0.000   3.900
   57        0.444   0.601   6.246   7.291
   58        0.445   0.632   4.358   5.435
--------------------------------------------------
tot         51.811 105.992  10.604 168.407
 


 magnetization (x)
 
# of ion       s       p       d       tot
------------------------------------------
    1        0.001   0.004   0.000   0.005
    2        0.001   0.005   0.000   0.006
    3       -0.002  -0.022   0.000  -0.024
    4       -0.001  -0.009   0.000  -0.009
    5        0.001   0.015   0.000   0.016
    6        0.000   0.002   0.000   0.003
    7       -0.001  -0.008   0.000  -0.008
    8       -0.003  -0.040   0.000  -0.043
    9       -0.002  -0.026   0.000  -0.028
   10        0.001   0.011   0.000   0.012
   11        0.007   0.034   0.000   0.041
   12        0.000  -0.023   0.000  -0.023
   13        0.001   0.006   0.000   0.006
   14        0.001   0.004   0.000   0.005
   15        0.002   0.024   0.000   0.026
   16        0.001   0.009   0.000   0.009
   17       -0.001  -0.014   0.000  -0.015
   18       -0.001  -0.009   0.000  -0.010
   19        0.000   0.002   0.000   0.002
   20        0.001   0.010   0.000   0.011
   21       -0.001  -0.015   0.000  -0.016
   22       -0.000  -0.003   0.000  -0.003
   23        0.000   0.000   0.000   0.001
   24       -0.001  -0.017   0.000  -0.018
   25        0.002   0.011   0.000   0.012
   26        0.002  -0.005   0.000  -0.003
   27        0.003   0.010   0.000   0.013
   28        0.002   0.025   0.000   0.027
   29        0.000  -0.004   0.000  -0.004
   30        0.000   0.004   0.000   0.004
   31        0.001   0.006   0.000   0.007
   32       -0.001  -0.011   0.000  -0.012
   33       -0.000  -0.005   0.000  -0.005
   34        0.001   0.006   0.000   0.007
   35        0.001   0.005   0.000   0.006
   36       -0.000  -0.005   0.000  -0.006
   37       -0.001  -0.011   0.000  -0.012
   38       -0.000  -0.006   0.000  -0.006
   39       -0.001  -0.011   0.000  -0.011
   40       -0.000  -0.006   0.000  -0.006
   41        0.001   0.005   0.000   0.006
   42       -0.000  -0.004   0.000  -0.004
   43        0.001   0.002   0.000   0.003
   44       -0.000  -0.004   0.000  -0.004
   45       -0.001  -0.012   0.000  -0.013
   46        0.001   0.008   0.000   0.009
   47        0.001   0.006   0.000   0.007
   48       -0.000  -0.005   0.000  -0.005
   49       -0.001  -0.006   0.000  -0.007
   50        0.004   0.004   0.000   0.008
   51       -0.008  -0.058   0.000  -0.067
   52        0.003   0.004   0.000   0.007
   53        0.004   0.007   0.000   0.011
   54       -0.010  -0.187   0.000  -0.197
   55       -0.008  -0.057   0.000  -0.065
   56       -0.007  -0.050   0.000  -0.057
   57       -0.039  -0.021  -2.028  -2.087
   58        0.078   0.034   3.469   3.582
--------------------------------------------------
tot          0.030  -0.390   1.441   1.081
 

 total amount of memory used by VASP MPI-rank0   159140. kBytes
=======================================================================

   base      :      30000. kBytes
   nonl-proj :       4274. kBytes
   fftplans  :      11188. kBytes
   grid      :      29312. kBytes
   one-center:         62. kBytes
   HF        :         23. kBytes
   nonlr-proj:      21953. kBytes
   wavefun   :      62328. kBytes
 
  
  
 General timing and accounting informations for this job:
 ========================================================
  
                  Total CPU time used (sec):    10435.454
                            User time (sec):    10403.414
                          System time (sec):       32.040
                         Elapsed time (sec):    10478.783
  
                   Maximum memory used (kb):      390744.
                   Average memory used (kb):           0.
  
                          Minor page faults:      1091346
                          Major page faults:          194
                 Voluntary context switches:       163660
