 vasp.5.4.4.18Apr17-6-g9f103f2a35 (build Feb 25 2019 10:51:38) complex          
  
 executed on             LinuxIFC date 2021.06.19  03:04:43
 running on   80 total cores
 distrk:  each k-point on   40 cores,    2 groups
 distr:  one band on NCORES_PER_BAND=  40 cores,    1 groups


--------------------------------------------------------------------------------------------------------


 INCAR:
 POTCAR:    PAW_PBE C 08Apr2002                   
 POTCAR:    PAW_PBE N 08Apr2002                   
 POTCAR:    PAW_PBE Fe 06Sep2000                  
 POTCAR:    PAW_PBE Cr 06Sep2000                  

 ----------------------------------------------------------------------------- 
|                                                                             |
|           W    W    AA    RRRRR   N    N  II  N    N   GGGG   !!!           |
|           W    W   A  A   R    R  NN   N  II  NN   N  G    G  !!!           |
|           W    W  A    A  R    R  N N  N  II  N N  N  G       !!!           |
|           W WW W  AAAAAA  RRRRR   N  N N  II  N  N N  G  GGG   !            |
|           WW  WW  A    A  R   R   N   NN  II  N   NN  G    G                |
|           W    W  A    A  R    R  N    N  II  N    N   GGGG   !!!           |
|                                                                             |
|      For optimal performance we recommend to set                            |
|        NCORE= 4 - approx SQRT( number of cores)                             |
|      NCORE specifies how many cores store one orbital (NPAR=cpu/NCORE).     |
|      This setting can  greatly improve the performance of VASP for DFT.     |
|      The default,   NCORE=1            might be grossly inefficient         |
|      on modern multi-core architectures or massively parallel machines.     |
|      Do your own testing !!!!                                               |
|      Unfortunately you need to use the default for GW and RPA calculations. |
|      (for HF NCORE is supported but not extensively tested yet)             |
|                                                                             |
 ----------------------------------------------------------------------------- 


 ----------------------------------------------------------------------------- 
|                                                                             |
|           W    W    AA    RRRRR   N    N  II  N    N   GGGG   !!!           |
|           W    W   A  A   R    R  NN   N  II  NN   N  G    G  !!!           |
|           W    W  A    A  R    R  N N  N  II  N N  N  G       !!!           |
|           W WW W  AAAAAA  RRRRR   N  N N  II  N  N N  G  GGG   !            |
|           WW  WW  A    A  R   R   N   NN  II  N   NN  G    G                |
|           W    W  A    A  R    R  N    N  II  N    N   GGGG   !!!           |
|                                                                             |
|      You have enabled k-point parallelism (KPAR>1).                         |
|      This developmental code was originally  written by Paul Kent at ORNL,  |
|      and carefully double checked in Vienna.                                |
|      GW as well as linear response parallelism added by Martijn Marsman     |
|      and Georg Kresse.                                                      |
|      Carefully verify results versus KPAR=1.                                |
|      Report problems to Paul Kent and Vienna.                               |
|                                                                             |
 ----------------------------------------------------------------------------- 

 POTCAR:    PAW_PBE C 08Apr2002                   
   VRHFIN =C: s2p2                                                              
   LEXCH  = PE                                                                  
   EATOM  =   147.1560 eV,   10.8157 Ry                                         
                                                                                
   TITEL  = PAW_PBE C 08Apr2002                                                 
   LULTRA =        F    use ultrasoft PP ?                                      
   IUNSCR =        1    unscreen: 0-lin 1-nonlin 2-no                           
   RPACOR =    1.200    partial core radius                                     
   POMASS =   12.011; ZVAL   =    4.000    mass and valenz                      
   RCORE  =    1.500    outmost cutoff radius                                   
   RWIGS  =    1.630; RWIGS  =    0.863    wigner-seitz radius (au A)           
   ENMAX  =  400.000; ENMIN  =  300.000 eV                                      
   ICORE  =        2    local potential                                         
   LCOR   =        T    correct aug charges                                     
   LPAW   =        T    paw PP                                                  
   EAUG   =  644.873                                                            
   DEXC   =    0.000                                                            
   RMAX   =    1.529    core radius for proj-oper                               
   RAUG   =    1.300    factor for augmentation sphere                          
   RDEP   =    1.501    radius for radial grids                                 
   RDEPT  =    1.300    core radius for aug-charge                              
                                                                                
   Atomic configuration                                                         
    4 entries                                                                   
     n  l   j            E        occ.                                          
     1  0  0.50      -273.3789   2.0000                                         
     2  0  0.50       -13.7508   2.0000                                         
     2  1  0.50        -5.2854   2.0000                                         
     3  2  1.50        -5.4423   0.0000                                         
   Description                                                                  
     l       E           TYP  RCUT    TYP  RCUT                                 
     0    -13.7508458     23  1.200                                             
     0     -8.2022199     23  1.200                                             
     1     -5.2854383     23  1.500                                             
     1     34.0145650     23  1.500                                             
     2     -5.4423304      7  1.500                                             
  local pseudopotential read in
  partial core-charges read in
  partial kinetic energy density read in
  atomic valenz-charges read in
  non local Contribution for L=           0  read in
    real space projection operators read in
  non local Contribution for L=           0  read in
    real space projection operators read in
  non local Contribution for L=           1  read in
    real space projection operators read in
  non local Contribution for L=           1  read in
    real space projection operators read in
    PAW grid and wavefunctions read in
 
   number of l-projection  operators is LMAX  =           4
   number of lm-projection operators is LMMAX =           8
 
 POTCAR:    PAW_PBE N 08Apr2002                   
   VRHFIN =N: s2p3                                                              
   LEXCH  = PE                                                                  
   EATOM  =   264.5486 eV,   19.4438 Ry                                         
                                                                                
   TITEL  = PAW_PBE N 08Apr2002                                                 
   LULTRA =        F    use ultrasoft PP ?                                      
   IUNSCR =        1    unscreen: 0-lin 1-nonlin 2-no                           
   RPACOR =    1.200    partial core radius                                     
   POMASS =   14.001; ZVAL   =    5.000    mass and valenz                      
   RCORE  =    1.500    outmost cutoff radius                                   
   RWIGS  =    1.400; RWIGS  =    0.741    wigner-seitz radius (au A)           
   ENMAX  =  400.000; ENMIN  =  300.000 eV                                      
   ICORE  =        2    local potential                                         
   LCOR   =        T    correct aug charges                                     
   LPAW   =        T    paw PP                                                  
   EAUG   =  627.112                                                            
   DEXC   =    0.000                                                            
   RMAX   =    1.529    core radius for proj-oper                               
   RAUG   =    1.300    factor for augmentation sphere                          
   RDEP   =    1.514    radius for radial grids                                 
   RDEPT  =    1.338    core radius for aug-charge                              
                                                                                
   Atomic configuration                                                         
    4 entries                                                                   
     n  l   j            E        occ.                                          
     1  0  0.50      -384.7179   2.0000                                         
     2  0  0.50       -18.5828   2.0000                                         
     2  1  0.50        -7.0898   3.0000                                         
     3  2  1.50        -6.8029   0.0000                                         
   Description                                                                  
     l       E           TYP  RCUT    TYP  RCUT                                 
     0    -18.5828119     23  1.200                                             
     0    -13.5018863     23  1.200                                             
     1     -7.0897853     23  1.500                                             
     1      9.5240782     23  1.500                                             
     2     -6.8029130      7  1.500                                             
  local pseudopotential read in
  partial core-charges read in
  partial kinetic energy density read in
  atomic valenz-charges read in
  non local Contribution for L=           0  read in
    real space projection operators read in
  non local Contribution for L=           0  read in
    real space projection operators read in
  non local Contribution for L=           1  read in
    real space projection operators read in
  non local Contribution for L=           1  read in
    real space projection operators read in
    PAW grid and wavefunctions read in
 
   number of l-projection  operators is LMAX  =           4
   number of lm-projection operators is LMMAX =           8
 
 POTCAR:    PAW_PBE Fe 06Sep2000                  
   VRHFIN =Fe:  d7 s1                                                           
   LEXCH  = PE                                                                  
   EATOM  =   594.3153 eV,   43.6809 Ry                                         
                                                                                
   TITEL  = PAW_PBE Fe 06Sep2000                                                
   LULTRA =        F    use ultrasoft PP ?                                      
   IUNSCR =        1    unscreen: 0-lin 1-nonlin 2-no                           
   RPACOR =    2.000    partial core radius                                     
   POMASS =   55.847; ZVAL   =    8.000    mass and valenz                      
   RCORE  =    2.300    outmost cutoff radius                                   
   RWIGS  =    2.460; RWIGS  =    1.302    wigner-seitz radius (au A)           
   ENMAX  =  267.882; ENMIN  =  200.911 eV                                      
   RCLOC  =    1.701    cutoff for local pot                                    
   LCOR   =        T    correct aug charges                                     
   LPAW   =        T    paw PP                                                  
   EAUG   =  511.368                                                            
   DEXC   =    0.000                                                            
   RMAX   =    2.356    core radius for proj-oper                               
   RAUG   =    1.300    factor for augmentation sphere                          
   RDEP   =    2.442    radius for radial grids                                 
   RDEPT  =    1.890    core radius for aug-charge                              
                                                                                
   Atomic configuration                                                         
    9 entries                                                                   
     n  l   j            E        occ.                                          
     1  0  0.50     -6993.8440   2.0000                                         
     2  0  0.50      -814.6047   2.0000                                         
     2  1  1.50      -693.3689   6.0000                                         
     3  0  0.50       -89.4732   2.0000                                         
     3  1  1.50       -55.6373   6.0000                                         
     3  2  2.50        -3.8151   7.0000                                         
     4  0  0.50        -4.2551   1.0000                                         
     4  1  1.50        -3.4015   0.0000                                         
     4  3  2.50        -1.3606   0.0000                                         
   Description                                                                  
     l       E           TYP  RCUT    TYP  RCUT                                 
     2     -3.8151135     23  2.300                                             
     2     -5.1756961     23  2.300                                             
     0     -4.2550963     23  2.300                                             
     0      7.2035603     23  2.300                                             
     1     -2.7211652     23  2.300                                             
     1     18.4316424     23  2.300                                             
  local pseudopotential read in
  partial core-charges read in
  partial kinetic energy density read in
  atomic valenz-charges read in
  non local Contribution for L=           2  read in
    real space projection operators read in
  non local Contribution for L=           2  read in
    real space projection operators read in
  non local Contribution for L=           0  read in
    real space projection operators read in
  non local Contribution for L=           0  read in
    real space projection operators read in
  non local Contribution for L=           1  read in
    real space projection operators read in
  non local Contribution for L=           1  read in
    real space projection operators read in
    PAW grid and wavefunctions read in
 
   number of l-projection  operators is LMAX  =           6
   number of lm-projection operators is LMMAX =          18
 
 POTCAR:    PAW_PBE Cr 06Sep2000                  
   VRHFIN =Cr : d5 s1                                                           
   LEXCH  = PE                                                                  
   EATOM  =   276.8859 eV,   20.3505 Ry                                         
                                                                                
   TITEL  = PAW_PBE Cr 06Sep2000                                                
   LULTRA =        F    use ultrasoft PP ?                                      
   IUNSCR =        1    unscreen: 0-lin 1-nonlin 2-no                           
   RPACOR =    2.080    partial core radius                                     
   POMASS =   51.996; ZVAL   =    6.000    mass and valenz                      
   RCORE  =    2.500    outmost cutoff radius                                   
   RWIGS  =    2.500; RWIGS  =    1.323    wigner-seitz radius (au A)           
   ENMAX  =  227.080; ENMIN  =  170.310 eV                                      
   RCLOC  =    1.721    cutoff for local pot                                    
   LCOR   =        T    correct aug charges                                     
   LPAW   =        T    paw PP                                                  
   EAUG   =  402.108                                                            
   DEXC   =    0.000                                                            
   RMAX   =    2.552    core radius for proj-oper                               
   RAUG   =    1.300    factor for augmentation sphere                          
   RDEP   =    2.609    radius for radial grids                                 
   RDEPT  =    2.065    core radius for aug-charge                              
                                                                                
   Atomic configuration                                                         
    9 entries                                                                   
     n  l   j            E        occ.                                          
     1  0  0.50     -5880.4963   2.0000                                         
     2  0  0.50      -667.0865   2.0000                                         
     2  1  1.50      -560.6250   6.0000                                         
     3  0  0.50       -73.9860   2.0000                                         
     3  1  1.50       -45.4378   6.0000                                         
     3  2  2.50        -2.9137   5.0000                                         
     4  0  0.50        -4.0071   1.0000                                         
     4  1  0.50        -1.2789   0.0000                                         
     4  3  2.50        -1.3606   0.0000                                         
   Description                                                                  
     l       E           TYP  RCUT    TYP  RCUT                                 
     2     -2.9136677     23  2.500                                             
     2     -4.2742503     23  2.500                                             
     0     -4.0071322     23  2.500                                             
     0      9.4498801     23  2.500                                             
     1     -5.4423304     23  2.500                                             
     1     27.2116520     23  2.500                                             
  local pseudopotential read in
  partial core-charges read in
  partial kinetic energy density read in
  atomic valenz-charges read in
  non local Contribution for L=           2  read in
    real space projection operators read in
  non local Contribution for L=           2  read in
    real space projection operators read in
  non local Contribution for L=           0  read in
    real space projection operators read in
  non local Contribution for L=           0  read in
    real space projection operators read in
  non local Contribution for L=           1  read in
    real space projection operators read in
  non local Contribution for L=           1  read in
    real space projection operators read in
    PAW grid and wavefunctions read in
 
   number of l-projection  operators is LMAX  =           6
   number of lm-projection operators is LMMAX =          18
 

 ----------------------------------------------------------------------------- 
|                                                                             |
|  ADVICE TO THIS USER RUNNING 'VASP/VAMP'   (HEAR YOUR MASTER'S VOICE ...):  |
|                                                                             |
|      You have a (more or less) 'large supercell' and for larger cells       |
|      it might be more efficient to use real space projection opertators     |
|      So try LREAL= Auto  in the INCAR   file.                               |
|      Mind:          For very  accurate calculation you might also keep the  |
|      reciprocal projection scheme          (i.e. LREAL=.FALSE.)             |
|                                                                             |
 ----------------------------------------------------------------------------- 

  PAW_PBE C 08Apr2002                   :
 energy of atom  1       EATOM= -147.1560
 kinetic energy error for atom=    0.0076 (will be added to EATOM!!)
  PAW_PBE N 08Apr2002                   :
 energy of atom  2       EATOM= -264.5486
 kinetic energy error for atom=    0.0138 (will be added to EATOM!!)
  PAW_PBE Fe 06Sep2000                  :
 energy of atom  3       EATOM= -594.3153
 kinetic energy error for atom=    0.0026 (will be added to EATOM!!)
  PAW_PBE Cr 06Sep2000                  :
 energy of atom  4       EATOM= -276.8859
 kinetic energy error for atom=    0.0012 (will be added to EATOM!!)
 
 
 POSCAR:  C  N Fe Cr                             
  positions in cartesian coordinates
  No initial velocities read in
 exchange correlation table for  LEXCH =        8
   RHO(1)=    0.500       N(1)  =     2000
   RHO(2)=  100.500       N(2)  =     4000

 VTST: version 3.2, (02/03/18)

 CHAIN: initializing optimizer
 
 OPT: Using VASP Conjugate-Gradient optimizer
 CHAIN: Read ICHAIN            0
 
 POSCAR:  C  N Fe Cr                             
  positions in cartesian coordinates
  No initial velocities read in
 


--------------------------------------------------------------------------------------------------------


 ion  position               nearest neighbor table
   1  0.221  1.000  0.500-   3 1.42  20 1.43   4 1.43
   2  0.055  0.101  0.500-  34 1.42   3 1.43   7 1.44
   3  0.110  1.000  0.500-   1 1.42  18 1.43   2 1.43
   4  0.277  0.099  0.500-  22 1.42   5 1.42   1 1.43
   5  0.224  0.200  0.500-   4 1.42   7 1.43   8 1.44
   6  0.056  0.301  0.500-   7 1.43  38 1.43  11 1.44
   7  0.111  0.201  0.500-   6 1.43   5 1.43   2 1.44
   8  0.284  0.298  0.500-  51 1.39   5 1.44   9 1.45
   9  0.227  0.399  0.500-  12 1.44  11 1.44   8 1.45
  10  0.056  0.500  0.500-  11 1.44  15 1.44  42 1.45
  11  0.113  0.400  0.500-   6 1.44   9 1.44  10 1.44
  12  0.282  0.499  0.500-  53 1.34   9 1.44  13 1.45
  13  0.227  0.601  0.500-  15 1.44  16 1.45  12 1.45
  14  0.056  0.699  0.500-  19 1.43  46 1.43  15 1.44
  15  0.113  0.600  0.500-  14 1.44  13 1.44  10 1.44
  16  0.283  0.702  0.500-  55 1.39  17 1.44  13 1.45
  17  0.224  0.800  0.500-  20 1.43  19 1.43  16 1.44
  18  0.055  0.899  0.500-  50 1.42   3 1.43  19 1.44
  19  0.111  0.799  0.500-  17 1.43  14 1.43  18 1.44
  20  0.277  0.901  0.500-  28 1.42   1 1.43  17 1.43
  21  0.555  0.000  0.500-  23 1.41  24 1.42  30 1.42
  22  0.388  0.099  0.500-  26 1.41   4 1.42  23 1.42
  23  0.444  0.000  0.500-  21 1.41  22 1.42  28 1.42
  24  0.610  0.099  0.500-  25 1.41  32 1.42  21 1.42
  25  0.555  0.197  0.500-  52 1.38  24 1.41  26 1.42
  26  0.443  0.197  0.500-  51 1.38  22 1.41  25 1.42
  27  0.555  0.804  0.500-  56 1.38  30 1.41  29 1.43
  28  0.388  0.902  0.500-  29 1.41  20 1.42  23 1.42
  29  0.443  0.804  0.500-  55 1.38  28 1.41  27 1.43
  30  0.610  0.902  0.500-  27 1.41  48 1.42  21 1.42
  31  0.889  1.000  0.500-  33 1.42  50 1.43  34 1.43
  32  0.722  0.099  0.500-  24 1.42  37 1.42  33 1.43
  33  0.777  1.000  0.500-  31 1.42  48 1.43  32 1.43
  34  0.943  0.101  0.500-   2 1.42  31 1.43  35 1.44
  35  0.887  0.201  0.500-  38 1.43  37 1.43  34 1.44
  36  0.715  0.298  0.500-  52 1.39  37 1.44  41 1.45
  37  0.774  0.200  0.500-  32 1.42  35 1.43  36 1.44
  38  0.943  0.301  0.500-  35 1.43   6 1.43  39 1.44
  39  0.885  0.400  0.500-  38 1.44  41 1.44  42 1.44
  40  0.716  0.499  0.500-  54 1.34  41 1.44  45 1.45
  41  0.772  0.399  0.500-  40 1.44  39 1.44  36 1.45
  42  0.942  0.500  0.500-  39 1.44  43 1.44  10 1.45
  43  0.885  0.600  0.500-  46 1.44  45 1.44  42 1.44
  44  0.715  0.702  0.500-  56 1.39  49 1.44  45 1.45
  45  0.771  0.601  0.500-  43 1.44  44 1.45  40 1.45
  46  0.943  0.699  0.500-  47 1.43  14 1.43  43 1.44
  47  0.887  0.799  0.500-  49 1.43  46 1.43  50 1.44
  48  0.722  0.901  0.500-  30 1.42  33 1.43  49 1.43
  49  0.775  0.800  0.500-  48 1.43  47 1.43  44 1.44
  50  0.943  0.899  0.500-  18 1.42  31 1.43  47 1.44
  51  0.394  0.295  0.500-  26 1.38   8 1.39  57 1.93
  52  0.605  0.295  0.500-  25 1.38  36 1.39  57 1.93
  53  0.388  0.500  0.500-  12 1.34  58 1.80  57 1.83
  54  0.611  0.500  0.500-  40 1.34  58 1.80  57 1.83
  55  0.393  0.706  0.500-  29 1.38  16 1.39  58 1.99
  56  0.605  0.706  0.500-  27 1.38  44 1.39  58 1.99
  57  0.499  0.406  0.500-  54 1.83  53 1.83  51 1.93  52 1.93  58 2.27
  58  0.499  0.588  0.500-  53 1.80  54 1.80  56 1.99  55 1.99  57 2.27
 
  LATTYP: Found a triclinic cell.
 ALAT       =    12.4809000000
 B/A-ratio  =     1.4269824655
 C/A-ratio  =     1.6050204713
 COS(alpha) =     0.0000229877
 COS(beta)  =     0.0002495821
 COS(gamma) =     0.7007097277
  
  Lattice vectors:
  
 A1 = (  -0.0012198637,  12.4808999404,   0.0000000000)
 A2 = (  12.7052801363,  12.4808999404,   0.0000000000)
 A3 = (  -0.0042654384,   0.0049992363, -20.0320989221)


Analysis of symmetry for initial positions (statically):
=====================================================================
 Subroutine PRICEL returns:
 Original cell was already a primitive cell.
 

 Routine SETGRP: Setting up the symmetry group for a 
 triclinic supercell.


 Subroutine GETGRP returns: Found  1 space group operations
 (whereof  1 operations were pure point group operations)
 out of a pool of  2 trial point group operations.


The static configuration has the point symmetry C_1 .


Analysis of symmetry for dynamics (positions and initial velocities):
=====================================================================
 Subroutine PRICEL returns:
 Original cell was already a primitive cell.
 

 Routine SETGRP: Setting up the symmetry group for a 
 triclinic supercell.


 Subroutine GETGRP returns: Found  1 space group operations
 (whereof  1 operations were pure point group operations)
 out of a pool of  2 trial point group operations.


The dynamic configuration has the point symmetry C_1 .


Analysis of structural, dynamic, and magnetic symmetry:
=====================================================================
 Subroutine PRICEL returns:
 Original cell was already a primitive cell.
 

 Routine SETGRP: Setting up the symmetry group for a 
 triclinic supercell.


 Subroutine GETGRP returns: Found  1 space group operations
 (whereof  1 operations were pure point group operations)
 out of a pool of  2 trial point group operations.


The magnetic configuration has the point symmetry C_1 .


 Subroutine INISYM returns: Found  1 space group operations
 (whereof  1 operations are pure point group operations),
 and found     1 'primitive' translations

 
 
 KPOINTS: KPOINTS created by Atomic Simulation Env

Automatic generation of k-mesh.
Space group operators:
 irot       det(A)        alpha          n_x          n_y          n_z        tau_x        tau_y        tau_z
    1     1.000000     0.000001     1.000000     0.000000     0.000000     0.000000     0.000000     0.000000
 
 Subroutine IBZKPT returns following result:
 ===========================================
 
 Found      2 irreducible k-points:
 
 Following reciprocal coordinates:
            Coordinates               Weight
  0.250000  0.250000  0.000000      2.000000
 -0.250000  0.250000  0.000000      2.000000
 
 Following cartesian coordinates:
            Coordinates               Weight
  0.019675  0.020033  0.000001      2.000000
 -0.019675  0.020029  0.000009      2.000000
 
 
 Subroutine IBZKPT_HF returns following result:
 ==============================================
 
 Found      4 k-points in 1st BZ
 the following      4 k-points will be used (e.g. in the exchange kernel)
 Following reciprocal coordinates:   # in IRBZ
  0.250000  0.250000  0.000000    0.25000000   1 t-inv F
 -0.250000  0.250000  0.000000    0.25000000   2 t-inv F
 -0.250000 -0.250000 -0.000000    0.25000000   1 t-inv T
  0.250000 -0.250000  0.000000    0.25000000   2 t-inv T


--------------------------------------------------------------------------------------------------------




 Dimension of arrays:
   k-points           NKPTS =      2   k-points in BZ     NKDIM =      4   number of bands    NBANDS=    156
   number of dos      NEDOS =    301   number of ions     NIONS =     58
   non local maximal  LDIM  =      6   non local SUM 2l+1 LMDIM =     18
   total plane-waves  NPLWV = ******
   max r-space proj   IRMAX =      1   max aug-charges    IRDMAX=  22427
   dimension x,y,z NGX =    96 NGY =   96 NGZ =  150
   dimension x,y,z NGXF=   192 NGYF=  192 NGZF=  300
   support grid    NGXF=   192 NGYF=  192 NGZF=  300
   ions per type =              50   6   1   1
   NGX,Y,Z   is equivalent  to a cutoff of  12.56, 12.79, 12.45 a.u.
   NGXF,Y,Z  is equivalent  to a cutoff of  25.12, 25.57, 24.90 a.u.

 SYSTEM =  unknown system                          
 POSCAR =   C  N Fe Cr                             

 Startparameter for this run:
   NWRITE =      2    write-flag & timer
   PREC   = accura    normal or accurate (medium, high low for compatibility)
   ISTART =      1    job   : 0-new  1-cont  2-samecut
   ICHARG =      0    charge: 1-file 2-atom 10-const
   ISPIN  =      2    spin polarized calculation?
   LNONCOLLINEAR =      F non collinear calculations
   LSORBIT =      F    spin-orbit coupling
   INIWAV =      1    electr: 0-lowe 1-rand  2-diag
   LASPH  =      T    aspherical Exc in radial PAW
   METAGGA=      F    non-selfconsistent MetaGGA calc.

 Electronic Relaxation 1
   ENCUT  =  500.0 eV  36.75 Ry    6.06 a.u.  23.17 22.76 36.52*2*pi/ulx,y,z
   ENINI  =  500.0     initial cutoff
   ENAUG  =  644.9 eV  augmentation charge cutoff
   NELM   =    250;   NELMIN=  2; NELMDL=  0     # of ELM steps 
   EDIFF  = 0.1E-03   stopping-criterion for ELM
   LREAL  =      F    real-space projection
   NLSPLINE    = F    spline interpolate recip. space projectors
   LCOMPAT=      F    compatible to vasp.4.4
   GGA_COMPAT  = T    GGA compatible to vasp.4.4-vasp.4.6
   LMAXPAW     = -100 max onsite density
   LMAXMIX     =    2 max onsite mixed and CHGCAR
   VOSKOWN=      0    Vosko Wilk Nusair interpolation
   ROPT   =    0.00000   0.00000   0.00000   0.00000
 Ionic relaxation
   EDIFFG = -.3E-01   stopping-criterion for IOM
   NSW    =      0    number of steps for IOM
   NBLOCK =      1;   KBLOCK =      1    inner block; outer block 
   IBRION =     -1    ionic relax: 0-MD 1-quasi-New 2-CG
   NFREE  =      1    steps in history (QN), initial steepest desc. (CG)
   ISIF   =      2    stress and relaxation
   IWAVPR =     10    prediction:  0-non 1-charg 2-wave 3-comb
   ISYM   =      3    0-nonsym 1-usesym 2-fastsym
   LCORR  =      T    Harris-Foulkes like correction to forces

   POTIM  = 0.5000    time-step for ionic-motion
   TEIN   =    0.0    initial temperature
   TEBEG  =    0.0;   TEEND  =   0.0 temperature during run
   SMASS  =  -3.00    Nose mass-parameter (am)
   estimated Nose-frequenzy (Omega)   =  0.10E-29 period in steps =****** mass=  -0.369E-26a.u.
   SCALEE = 1.0000    scale energy and forces
   NPACO  =    256;   APACO  = 16.0  distance and # of slots for P.C.
   PSTRESS=    0.0 pullay stress

  Mass of Ions in am
   POMASS =  12.01 14.00 55.85 52.00
  Ionic Valenz
   ZVAL   =   4.00  5.00  8.00  6.00
  Atomic Wigner-Seitz radii
   RWIGS  =  -1.00 -1.00 -1.00 -1.00
  virtual crystal weights 
   VCA    =   1.00  1.00  1.00  1.00
   NELECT =     244.0000    total number of electrons
   NUPDOWN=      -1.0000    fix difference up-down

 DOS related values:
   EMIN   =  10.00;   EMAX   =-10.00  energy-range for DOS
   EFERMI =   0.00
   ISMEAR =     0;   SIGMA  =   0.10  broadening in eV -4-tet -1-fermi 0-gaus

 Electronic relaxation 2 (details)
   IALGO  =     53    algorithm
   LDIAG  =      T    sub-space diagonalisation (order eigenvalues)
   LSUBROT=      F    optimize rotation matrix (better conditioning)
   TURBO    =      0    0=normal 1=particle mesh
   IRESTART =      0    0=no restart 2=restart with 2 vectors
   NREBOOT  =      0    no. of reboots
   NMIN     =      0    reboot dimension
   EREF     =   0.00    reference energy to select bands
   IMIX   =      4    mixing-type and parameters
     AMIX     =   0.40;   BMIX     =  1.00
     AMIX_MAG =   1.60;   BMIX_MAG =  1.00
     AMIN     =   0.10
     WC   =   100.;   INIMIX=   1;  MIXPRE=   1;  MAXMIX= -45

 Intra band minimization:
   WEIMIN = 0.0000     energy-eigenvalue tresh-hold
   EBREAK =  0.16E-06  absolut break condition
   DEPER  =   0.30     relativ break condition  

   TIME   =   0.20     timestep for ELM

  volume/ion in A,a.u.               =      54.77       369.63
  Fermi-wavevector in a.u.,A,eV,Ry     =   0.695887  1.315036  6.588738  0.484259
  Thomas-Fermi vector in A             =   1.778784
 
 Write flags
   LWAVE        =      T    write WAVECAR
   LDOWNSAMPLE  =      F    k-point downsampling of WAVECAR
   LCHARG       =      T    write CHGCAR
   LVTOT        =      F    write LOCPOT, total local potential
   LVHAR        =      F    write LOCPOT, Hartree potential only
   LELF         =      F    write electronic localiz. function (ELF)
   LORBIT       =     11    0 simple, 1 ext, 2 COOP (PROOUT), +10 PAW based schemes


 Dipole corrections
   LMONO  =      F    monopole corrections only (constant potential shift)
   LDIPOL =      T    correct potential (dipole corrections)
   IDIPOL =      3    1-x, 2-y, 3-z, 4-all directions 
   EPSILON=  1.0000000 bulk dielectric constant

 Exchange correlation treatment:
   GGA     =    PE    GGA type
   LEXCH   =     8    internal setting for exchange type
   VOSKOWN=      0    Vosko Wilk Nusair interpolation
   EXXOEP  =     0    0=HF, 1=EXX-LHF (local Hartree Fock) 2=EXX OEP
   LHFCALC =     T    Hartree Fock is set to
   LSYMGRAD=     F    symmetrize gradient (conserves proper symmetry)
   PRECFOCK=normal    Normal, Fast or Accurate (Low or Medium for compatibility)
   LRHFCALC=     F    long range Hartree Fock
   LRSCOR  =     F    long range correlation only (use DFT for short range part)
   LTHOMAS =     F    Thomas Fermi screening in HF
   LMODELHF=     F    short range full HF, long range fraction AEXX
   ENCUT4O =  -1.0   cutoff for four orbital integrals eV
   LMAXFOCK=     4    L truncation for augmentation on plane wave grid
   LMAXFOCKAE=  -1    L truncation for all-electron charge restoration on plane wave grid
   NMAXFOCKAE=   1    number of basis functions for all-electron charge restoration
   LFOCKAEDFT=     F  apply the AE augmentation even for DFT
   NKREDX  =     1    reduce k-point grid by
   NKREDY  =     1    reduce k-point grid by
   NKREDZ  =     1    reduce k-point grid by
   SHIFTRED=     F    shift reduced grid of Gamma
   HFKIDENT=     F    idential grid for each k-point
   ODDONLY =     F    use only odd q-grid points
   EVENONLY=     F    use only even q-grid points
   HFALPHA =   -1.0000 decay constant for conv. correction
   MCALPHA =    0.0000 extent of test-charge in conv. correction in multipole expansion
   AEXX    =    0.2500 exact exchange contribution
   HFSCREEN=    0.2000 screening length (either q_TF or 0.3 A-1)
   HFSCREENC=   0.2000 screening length for correlation (either q_TF or 0.3 A-1)
   HFRCUT  =    0.0000 spherical cutoff for potential kernel
   ALDAX   =    0.7500 LDA exchange part
   AGGAX   =    0.7500 GGA exchange part
   ALDAC   =    1.0000 LDA correlation
   AGGAC   =    1.0000 GGA correlation
   ENCUTFOCK=  -1.0 apply spherical cutoff to Coloumb kernel
   NBANDSGWLOW=     1    first orbital included in HF term
   NBLOCK_FOCK=    64    blocking factor in FOCK_ACC
 Linear response parameters
   LEPSILON=     F    determine dielectric tensor
   LRPA    =     F    only Hartree local field effects (RPA)
   LNABLA  =     F    use nabla operator in PAW spheres
   LVEL    =     F    velocity operator in full k-point grid
   LINTERFAST=   F  fast interpolation
   KINTER  =     0    interpolate to denser k-point grid
   CSHIFT  =0.1000    complex shift for real part using Kramers Kronig
   OMEGAMAX=  -1.0    maximum frequency
   DEG_THRESHOLD= 0.2000000E-02 threshold for treating states as degnerate
   RTIME   =   -0.100 relaxation time in fs
  (WPLASMAI=    0.000 imaginary part of plasma frequency in eV, 0.658/RTIME)
   DFIELD  = 0.0000000 0.0000000 0.0000000 field for delta impulse in time
 
 Orbital magnetization related:
   ORBITALMAG=     F  switch on orbital magnetization
   LCHIMAG   =     F  perturbation theory with respect to B field
   DQ        =  0.001000  dq finite difference perturbation B field
   LLRAUG    =     F  two centre corrections for induced B field



--------------------------------------------------------------------------------------------------------


 Static calculation
 charge density and potential will be updated during run
 spin polarized calculation
 Conjugate gradient for all bands (Freysoldt, et al. PRB 79, 241103 (2009))
 perform sub-space diagonalisation
    before iterative eigenvector-optimisation
 modified Broyden-mixing scheme, WC =      100.0
 initial mixing is a Kerker type mixing with AMIX =  0.4000 and BMIX =      1.0000
 Hartree-type preconditioning will be used
 using additional bands           34
 reciprocal scheme for non local part
 use partial core corrections
 no Harris-corrections to forces 
 use gradient corrections 
 use of overlap-Matrix (Vanderbilt PP)
 Gauss-broadening in eV      SIGMA  =   0.10


--------------------------------------------------------------------------------------------------------


  energy-cutoff  :      500.00
  volume of cell :     3176.86
      direct lattice vectors                 reciprocal lattice vectors
    12.706500000  0.000000000  0.000000000     0.078699878  0.000007692 -0.000016756
    -0.001219864 12.480899940  0.000000000     0.000000000  0.080122427  0.000019995
     0.004265438 -0.004999236 20.032098922     0.000000000  0.000000000  0.049919881

  length of vectors
    12.706500000 12.480900000 20.032100000     0.078699880  0.080122430  0.049919881


 
 old parameters found on file WAVECAR:
  energy-cutoff  :      500.00
  volume of cell :     3176.86
      direct lattice vectors                 reciprocal lattice vectors
    12.706500000  0.000000000  0.000000000     0.078699878  0.000007692 -0.000016756
    -0.001219864 12.480899940  0.000000000     0.000000000  0.080122427  0.000019995
     0.004265438 -0.004999236 20.032098922     0.000000000  0.000000000  0.049919881

  length of vectors

 
 k-points in units of 2pi/SCALE and weight: KPOINTS created by Atomic Simulation Env
   0.01967497  0.02003253  0.00000081       0.500
  -0.01967497  0.02002868  0.00000919       0.500
 
 k-points in reciprocal lattice and weights: KPOINTS created by Atomic Simulation Env
   0.25000000  0.25000000  0.00000000       0.500
  -0.25000000  0.25000000  0.00000000       0.500
 
 position of ions in fractional coordinates (direct lattice) 
   0.22108173  0.99995547  0.50001276
   0.05527989  0.10078416  0.50001782
   0.10954052  0.99997177  0.50000278
   0.27666851  0.09940622  0.50000767
   0.22409246  0.20021064  0.49998382
   0.05567124  0.30068789  0.50002487
   0.11134464  0.20094276  0.50001710
   0.28387317  0.29848172  0.49988533
   0.22668202  0.39867777  0.49990507
   0.05622741  0.49981852  0.50002415
   0.11317486  0.39971422  0.50000100
   0.28242343  0.49912830  0.49981502
   0.22696651  0.60079062  0.49996426
   0.05566279  0.69894553  0.50002655
   0.11339407  0.59989538  0.50002120
   0.28333144  0.70154922  0.49999022
   0.22370708  0.79968886  0.50001178
   0.05520392  0.89919730  0.49999442
   0.11108827  0.79891793  0.50000743
   0.27651711  0.90068394  0.50001718
   0.55452635  0.00028933  0.50005128
   0.38814869  0.09877941  0.50000483
   0.44388680  0.00029288  0.50004539
   0.61029148  0.09877012  0.50001099
   0.55524759  0.19665589  0.49989898
   0.44320613  0.19666036  0.49990009
   0.55527688  0.80399299  0.50002893
   0.38813971  0.90169596  0.50004037
   0.44311543  0.80399905  0.50002786
   0.61025546  0.90169148  0.50004299
   0.88887172  0.99996205  0.50000444
   0.72176905  0.09938276  0.50001200
   0.77733301  0.99992908  0.50001694
   0.94315824  0.10077530  0.50001663
   0.88710778  0.20093026  0.50001930
   0.71458482  0.29845867  0.49988769
   0.77435994  0.20018718  0.49998738
   0.94278645  0.30067767  0.50002550
   0.88527717  0.39969675  0.50000357
   0.71602082  0.49909736  0.49983093
   0.77177286  0.39865396  0.49991134
   0.94220783  0.49981155  0.50002586
   0.88503066  0.59988237  0.50002430
   0.71506821  0.70152390  0.49999392
   0.77145610  0.60077439  0.49997216
   0.94274308  0.69894276  0.50002657
   0.88730156  0.79890571  0.50000693
   0.72187733  0.90066084  0.50002000
   0.77468169  0.79966812  0.50001208
   0.94318581  0.89918914  0.49999465
   0.39351903  0.29508476  0.49977754
   0.60493993  0.29507655  0.49977733
   0.38776572  0.49959444  0.49957451
   0.61068050  0.49957330  0.49959976
   0.39291135  0.70564610  0.49996705
   0.60548583  0.70563762  0.49996795
   0.49922115  0.40615238  0.49956794
   0.49922674  0.58837935  0.49968365
 
 position of ions in cartesian coordinates  (Angst):
   2.81008795 12.47784446 10.01630498
   0.70442373  1.25537734 10.01640638
   1.39278951 12.47804798 10.01610515
   3.51749986  1.23817938 10.01620311
   2.84931931  2.49630945 10.01572528
   0.70915258  3.75035574 10.01654768
   1.41668830  2.50544679 10.01639192
   3.60880259  3.72282145 10.01375238
   2.88198112  4.97335826 10.01414780
   0.71597670  6.23568516 10.01653314
   1.43970152  4.98629358 10.01606946
   3.59013636  6.22707167 10.01234389
   2.88534959  7.49590819 10.01533350
   0.70855941  8.72096945 10.01658141
   1.44224279  7.48473447 10.01647410
   3.60142787  8.75346599 10.01585350
   2.84369132  9.97833695 10.01628553
   0.70248436 11.22029191 10.01593765
   1.41270130  9.96871505 10.01619830
   3.51459872 11.23884645 10.01639354
   7.04822168  0.00111123 10.01707669
   4.93402354  1.23035629 10.01614620
   5.64238019  0.00115552 10.01695863
   7.75668099  1.23024032 10.01626952
   7.05714596  2.45194342 10.01402584
   5.63349113  2.45199912 10.01404811
   7.05677780 10.03205636 10.01662892
   4.93293015 11.25147726 10.01685818
   5.63159832 10.03213196 10.01660761
   7.75524397 11.25142137 10.01691063
  11.29536138 12.47792661 10.01613832
   9.17317002  1.23788666 10.01628983
   9.87809491 12.47751509 10.01638876
  11.98624997  1.25526672 10.01638250
  11.27392276  2.50529072 10.01643616
   9.08164016  3.72253378 10.01379956
   9.84129303  2.49601659 10.01579660
  11.98128205  3.75022820 10.01656027
  11.25041958  4.98607551 10.01612101
   9.09964173  6.22668548 10.01266270
   9.80817787  4.97306098 10.01427333
  11.97368690  6.23559817 10.01656744
  11.24704311  7.48457204 10.01653630
   9.08729120  8.75314998 10.01592758
   9.80390671  7.49570555 10.01549182
  11.98024516  8.72093490 10.01658179
  11.27565543  9.96856258 10.01618825
   9.17356846 11.23855812 10.01645010
   9.84465018  9.97807812 10.01629140
  11.98562631 11.22019015 10.01594225
   5.00202139  3.68042485 10.01159320
   7.68844103  3.68032233 10.01158897
   4.92866654  6.23289066 10.00752597
   7.76113343  6.23262676 10.00803172
   4.99379991  8.80459890 10.01538936
   7.69487755  8.80449304 10.01540738
   6.34498900  5.06664975 10.00739432
   6.34483824  7.34100578 10.00971229
 


--------------------------------------------------------------------------------------------------------


 k-point  1 :   0.2500 0.2500 0.0000  plane waves:   80640
 k-point  2 :  -0.2500 0.2500 0.0000  plane waves:   80645

 maximum and minimum number of plane-waves per node :      2041     1990

 maximum number of plane-waves:     80645
 maximum index in each direction: 
   IXMAX=   23   IYMAX=   22   IZMAX=   36
   IXMIN=  -23   IYMIN=  -23   IZMIN=  -36


 parallel 3D FFT for wavefunctions:
    minimum data exchange during FFTs selected (reduces bandwidth)
 parallel 3D FFT for charge:
    minimum data exchange during FFTs selected (reduces bandwidth)


 FFT grid for exact exchange (Hartree Fock) 
  NGX = 70; NGY = 70; NGZ =112

 
 Radii for the augmentation spheres in the non-local exchange
 for species   1 augmentation radius   0.874 (default was   0.699)
       energy cutoff for augmentation   2000.0
 for species   2 augmentation radius   0.886 (default was   0.709)
       energy cutoff for augmentation   2000.0
 for species   3 augmentation radius   1.263 (default was   1.010)
       energy cutoff for augmentation   2000.0
 for species   4 augmentation radius   1.424 (default was   1.139)
       energy cutoff for augmentation   2000.0

 real space projection operators:
  total allocation   :       2565.70 KBytes
  max/ min on nodes  :         87.14         48.52

 Maximum index for augmentation-charges in exchange          117
  SETUP_FOCK is finished

 total amount of memory used by VASP MPI-rank0   141843. kBytes
=======================================================================

   base      :      30000. kBytes
   nonl-proj :       4261. kBytes
   fftplans  :      11851. kBytes
   grid      :      31266. kBytes
   one-center:         62. kBytes
   HF        :         23. kBytes
   nonlr-proj:       2232. kBytes
   wavefun   :      62148. kBytes
 
     INWAV:  cpu time    2.8788: real time    5.5146
 Broyden mixing: mesh for mixing (old mesh)
   NGX = 47   NGY = 45   NGZ = 73
  (NGX  =192   NGY  =192   NGZ  =300)
  gives a total of 154395 points

 charge density for first step will be calculated from the start-wavefunctions


--------------------------------------------------------------------------------------------------------


 Maximum index for augmentation-charges          340 (set IRDMAX)


--------------------------------------------------------------------------------------------------------


 initial charge from wavefunction
 First call to EWALD:  gamma=   0.121
 Maximum number of real-space cells 3x 3x 2
 Maximum number of reciprocal cells 2x 2x 4

    FEWALD:  cpu time    0.0024: real time    0.0024


--------------------------------------- Iteration      1(   1)  ---------------------------------------


    POTLOK:  cpu time    0.9054: real time    0.9109
    SETDIJ:  cpu time    0.9971: real time    0.9997
    TRIAL :  cpu time  161.6912: real time  162.2606
    CORREC:  cpu time    0.0008: real time    0.0008
    CHARGE:  cpu time    0.7423: real time    0.7444
    --------------------------------------------
      LOOP:  cpu time  164.3570: real time  164.9384

 eigenvalue-minimisations  :     0
 total energy-change (2. order) :-0.6120567E+03  (-0.4585423E+00)
 number of electron     244.0000007 magnetization       2.2112862
 augmentation part       12.6180357 magnetization       1.9831428

 DIPCOR: dipole corrections for dipol
 direction  3 min pos     1,
 dipolmoment          -0.000000      0.000000     -0.000478 electrons x Angstroem
 Tr[quadrupol]     -6640.878070

 energy correction for charged system         0.000000 eV
 dipol+quadrupol energy correction            0.000000 eV
 added-field ion interaction          0.000000 eV  (added to PSCEN)


 Free energy of the ion-electron system (eV)
  ---------------------------------------------------
  alpha Z        PSCENC =       100.72293309
  Ewald energy   TEWEN  =     39644.34022674
  -Hartree energ DENC   =    -47991.55945032
  -exchange      EXHF   =       552.30435847
  -V(xc)+E(xc)   XCENC  =       608.17557977
  PAW double counting   =     26315.10995348   -26338.88762757
  entropy T*S    EENTRO =        -0.02582936
  eigenvalues    EBANDS =     -3203.49401616
  atomic energy  EATOM  =      9701.25672048
  ---------------------------------------------------
  free energy    TOTEN  =      -612.05668686 eV

  energy without entropy =     -612.03085751  energy(sigma->0) =     -612.04377218
  exchange ACFDT corr.  =        -0.02792651  see jH, gK, PRB 81, 115126


--------------------------------------------------------------------------------------------------------




--------------------------------------- Iteration      1(   2)  ---------------------------------------


    POTLOK:  cpu time    0.9146: real time    0.9182
    SETDIJ:  cpu time    0.9507: real time    0.9532
    TRIAL :  cpu time  160.9776: real time  161.5087
    CORREC:  cpu time    0.0008: real time    0.0008
    CHARGE:  cpu time    0.7395: real time    0.7416
    --------------------------------------------
      LOOP:  cpu time  163.5843: real time  164.1272

 eigenvalue-minimisations  :     0
 total energy-change (2. order) :-0.3523827E+00  (-0.3829855E+00)
 number of electron     244.0000007 magnetization       2.2348870
 augmentation part       12.5751024 magnetization       2.0543457

 DIPCOR: dipole corrections for dipol
 direction  3 min pos     1,
 dipolmoment          -0.000000      0.000000     -0.000606 electrons x Angstroem
 Tr[quadrupol]     -6640.702414

 energy correction for charged system         0.000000 eV
 dipol+quadrupol energy correction            0.000000 eV
 added-field ion interaction          0.000000 eV  (added to PSCEN)


 Free energy of the ion-electron system (eV)
  ---------------------------------------------------
  alpha Z        PSCENC =       100.72293310
  Ewald energy   TEWEN  =     39644.34022674
  -Hartree energ DENC   =    -47977.18650367
  -exchange      EXHF   =       552.15677358
  -V(xc)+E(xc)   XCENC  =       607.81568262
  PAW double counting   =     26451.16090107   -26474.51744180
  entropy T*S    EENTRO =        -0.02786253
  eigenvalues    EBANDS =     -3218.13253235
  atomic energy  EATOM  =      9701.25672048
  ---------------------------------------------------
  free energy    TOTEN  =      -612.40906959 eV

  energy without entropy =     -612.38120705  energy(sigma->0) =     -612.39513832
  exchange ACFDT corr.  =        -0.02750613  see jH, gK, PRB 81, 115126


--------------------------------------------------------------------------------------------------------




--------------------------------------- Iteration      1(   3)  ---------------------------------------


    POTLOK:  cpu time    0.9241: real time    0.9274
    SETDIJ:  cpu time    0.9543: real time    0.9567
    TRIAL :  cpu time  160.7988: real time  161.3333
    CORREC:  cpu time    0.0008: real time    0.0008
    CHARGE:  cpu time    0.7389: real time    0.7409
    --------------------------------------------
      LOOP:  cpu time  163.4184: real time  163.9649

 eigenvalue-minimisations  :     0
 total energy-change (2. order) :-0.2937591E+00  (-0.2209132E+00)
 number of electron     244.0000007 magnetization       2.2602064
 augmentation part       12.5706756 magnetization       2.1251247

 DIPCOR: dipole corrections for dipol
 direction  3 min pos     1,
 dipolmoment          -0.000000      0.000000     -0.000621 electrons x Angstroem
 Tr[quadrupol]     -6640.528943

 energy correction for charged system         0.000000 eV
 dipol+quadrupol energy correction            0.000000 eV
 added-field ion interaction          0.000000 eV  (added to PSCEN)


 Free energy of the ion-electron system (eV)
  ---------------------------------------------------
  alpha Z        PSCENC =       100.72293310
  Ewald energy   TEWEN  =     39644.34022674
  -Hartree energ DENC   =    -47960.17843214
  -exchange      EXHF   =       552.00264772
  -V(xc)+E(xc)   XCENC  =       607.37668581
  PAW double counting   =     26617.06222179   -26639.86554073
  entropy T*S    EENTRO =        -0.02993301
  eigenvalues    EBANDS =     -3235.39242889
  atomic energy  EATOM  =      9701.25672048
  ---------------------------------------------------
  free energy    TOTEN  =      -612.70282866 eV

  energy without entropy =     -612.67289565  energy(sigma->0) =     -612.68786216
  exchange ACFDT corr.  =        -0.03001969  see jH, gK, PRB 81, 115126


--------------------------------------------------------------------------------------------------------




--------------------------------------- Iteration      1(   4)  ---------------------------------------


    POTLOK:  cpu time    0.9262: real time    0.9300
    SETDIJ:  cpu time    0.9600: real time    0.9625
    TRIAL :  cpu time  160.3402: real time  160.8560
    CORREC:  cpu time    0.0008: real time    0.0008
    CHARGE:  cpu time    0.7389: real time    0.7410
    --------------------------------------------
      LOOP:  cpu time  162.9679: real time  163.4954

 eigenvalue-minimisations  :     0
 total energy-change (2. order) :-0.1707041E+00  (-0.1405221E+00)
 number of electron     244.0000007 magnetization       2.2744617
 augmentation part       12.5810541 magnetization       2.1778414

 DIPCOR: dipole corrections for dipol
 direction  3 min pos     1,
 dipolmoment          -0.000000      0.000000     -0.000601 electrons x Angstroem
 Tr[quadrupol]     -6640.482689

 energy correction for charged system         0.000000 eV
 dipol+quadrupol energy correction            0.000000 eV
 added-field ion interaction          0.000000 eV  (added to PSCEN)


 Free energy of the ion-electron system (eV)
  ---------------------------------------------------
  alpha Z        PSCENC =       100.72293310
  Ewald energy   TEWEN  =     39644.34022674
  -Hartree energ DENC   =    -47953.73881839
  -exchange      EXHF   =       552.09378646
  -V(xc)+E(xc)   XCENC  =       607.20801149
  PAW double counting   =     26758.29780575   -26781.04034916
  entropy T*S    EENTRO =        -0.03105105
  eigenvalues    EBANDS =     -3241.98391625
  atomic energy  EATOM  =      9701.25672048
  ---------------------------------------------------
  free energy    TOTEN  =      -612.87353280 eV

  energy without entropy =     -612.84248175  energy(sigma->0) =     -612.85800727
  exchange ACFDT corr.  =        -0.03854588  see jH, gK, PRB 81, 115126


--------------------------------------------------------------------------------------------------------




--------------------------------------- Iteration      1(   5)  ---------------------------------------


    POTLOK:  cpu time    0.9318: real time    0.9352
    SETDIJ:  cpu time    0.9527: real time    0.9550
    TRIAL :  cpu time  160.7964: real time  161.3324
    CORREC:  cpu time    0.0008: real time    0.0008
    CHARGE:  cpu time    0.7383: real time    0.7404
    --------------------------------------------
      LOOP:  cpu time  163.4219: real time  163.9699

 eigenvalue-minimisations  :     0
 total energy-change (2. order) :-0.1156498E+00  (-0.9732916E-01)
 number of electron     244.0000007 magnetization       2.2846919
 augmentation part       12.5871947 magnetization       2.2193627

 DIPCOR: dipole corrections for dipol
 direction  3 min pos     1,
 dipolmoment          -0.000000      0.000000     -0.000516 electrons x Angstroem
 Tr[quadrupol]     -6640.534135

 energy correction for charged system         0.000000 eV
 dipol+quadrupol energy correction            0.000000 eV
 added-field ion interaction          0.000000 eV  (added to PSCEN)


 Free energy of the ion-electron system (eV)
  ---------------------------------------------------
  alpha Z        PSCENC =       100.72293309
  Ewald energy   TEWEN  =     39644.34022674
  -Hartree energ DENC   =    -47956.30150313
  -exchange      EXHF   =       552.38985956
  -V(xc)+E(xc)   XCENC  =       607.29908602
  PAW double counting   =     26860.03190892   -26882.94459230
  entropy T*S    EENTRO =        -0.03183313
  eigenvalues    EBANDS =     -3239.75277088
  atomic energy  EATOM  =      9701.25672048
  ---------------------------------------------------
  free energy    TOTEN  =      -612.98918255 eV

  energy without entropy =     -612.95734942  energy(sigma->0) =     -612.97326598
  exchange ACFDT corr.  =        -0.04011708  see jH, gK, PRB 81, 115126


--------------------------------------------------------------------------------------------------------




--------------------------------------- Iteration      1(   6)  ---------------------------------------


    POTLOK:  cpu time    0.9247: real time    0.9282
    SETDIJ:  cpu time    0.9517: real time    0.9541
    TRIAL :  cpu time  160.4958: real time  161.0178
    CORREC:  cpu time    0.0008: real time    0.0008
    CHARGE:  cpu time    0.7369: real time    0.7388
    --------------------------------------------
      LOOP:  cpu time  163.1114: real time  163.6444

 eigenvalue-minimisations  :     0
 total energy-change (2. order) :-0.8281336E-01  (-0.7007760E-01)
 number of electron     244.0000007 magnetization       2.3005856
 augmentation part       12.5915581 magnetization       2.2582896

 DIPCOR: dipole corrections for dipol
 direction  3 min pos     1,
 dipolmoment          -0.000000      0.000000     -0.000415 electrons x Angstroem
 Tr[quadrupol]     -6640.606622

 energy correction for charged system         0.000000 eV
 dipol+quadrupol energy correction            0.000000 eV
 added-field ion interaction          0.000000 eV  (added to PSCEN)


 Free energy of the ion-electron system (eV)
  ---------------------------------------------------
  alpha Z        PSCENC =       100.72293309
  Ewald energy   TEWEN  =     39644.34022674
  -Hartree energ DENC   =    -47960.98136576
  -exchange      EXHF   =       552.71479747
  -V(xc)+E(xc)   XCENC  =       607.46945637
  PAW double counting   =     26924.88228960   -26947.86386331
  entropy T*S    EENTRO =        -0.03301575
  eigenvalues    EBANDS =     -3235.58135746
  atomic energy  EATOM  =      9701.25672048
  ---------------------------------------------------
  free energy    TOTEN  =      -613.07199591 eV

  energy without entropy =     -613.03898016  energy(sigma->0) =     -613.05548803
  exchange ACFDT corr.  =        -0.04130264  see jH, gK, PRB 81, 115126


--------------------------------------------------------------------------------------------------------




--------------------------------------- Iteration      1(   7)  ---------------------------------------


    POTLOK:  cpu time    0.9358: real time    0.9387
    SETDIJ:  cpu time    0.9575: real time    0.9599
    TRIAL :  cpu time  160.5826: real time  161.0992
    CORREC:  cpu time    0.0008: real time    0.0008
    CHARGE:  cpu time    0.7363: real time    0.7558
    --------------------------------------------
      LOOP:  cpu time  163.2148: real time  163.7597

 eigenvalue-minimisations  :     0
 total energy-change (2. order) :-0.6120987E-01  (-0.5203348E-01)
 number of electron     244.0000007 magnetization       2.3229940
 augmentation part       12.5989575 magnetization       2.2958990

 DIPCOR: dipole corrections for dipol
 direction  3 min pos     1,
 dipolmoment          -0.000000      0.000000     -0.000355 electrons x Angstroem
 Tr[quadrupol]     -6640.661033

 energy correction for charged system         0.000000 eV
 dipol+quadrupol energy correction            0.000000 eV
 added-field ion interaction          0.000000 eV  (added to PSCEN)


 Free energy of the ion-electron system (eV)
  ---------------------------------------------------
  alpha Z        PSCENC =       100.72293309
  Ewald energy   TEWEN  =     39644.34022674
  -Hartree energ DENC   =    -47964.59219639
  -exchange      EXHF   =       552.97417962
  -V(xc)+E(xc)   XCENC  =       607.61587545
  PAW double counting   =     26963.03471646   -26986.01458095
  entropy T*S    EENTRO =        -0.03461845
  eigenvalues    EBANDS =     -3232.43806453
  atomic energy  EATOM  =      9701.25672048
  ---------------------------------------------------
  free energy    TOTEN  =      -613.13320578 eV

  energy without entropy =     -613.09858733  energy(sigma->0) =     -613.11589656
  exchange ACFDT corr.  =        -0.04339026  see jH, gK, PRB 81, 115126


--------------------------------------------------------------------------------------------------------




--------------------------------------- Iteration      1(   8)  ---------------------------------------


    POTLOK:  cpu time    0.9216: real time    0.9241
    SETDIJ:  cpu time    0.9551: real time    0.9576
    TRIAL :  cpu time  160.4312: real time  160.9474
    CORREC:  cpu time    0.0008: real time    0.0008
    CHARGE:  cpu time    0.7380: real time    0.7399
    --------------------------------------------
      LOOP:  cpu time  163.0484: real time  163.5750

 eigenvalue-minimisations  :     0
 total energy-change (2. order) :-0.4664092E-01  (-0.4076553E-01)
 number of electron     244.0000007 magnetization       2.3491042
 augmentation part       12.6066874 magnetization       2.3312168

 DIPCOR: dipole corrections for dipol
 direction  3 min pos     1,
 dipolmoment          -0.000000      0.000000     -0.000348 electrons x Angstroem
 Tr[quadrupol]     -6640.692654

 energy correction for charged system         0.000000 eV
 dipol+quadrupol energy correction            0.000000 eV
 added-field ion interaction          0.000000 eV  (added to PSCEN)


 Free energy of the ion-electron system (eV)
  ---------------------------------------------------
  alpha Z        PSCENC =       100.72293309
  Ewald energy   TEWEN  =     39644.34022674
  -Hartree energ DENC   =    -47966.95857514
  -exchange      EXHF   =       553.16082276
  -V(xc)+E(xc)   XCENC  =       607.72183206
  PAW double counting   =     26985.13074681   -27008.15571897
  entropy T*S    EENTRO =        -0.03639462
  eigenvalues    EBANDS =     -3230.36421608
  atomic energy  EATOM  =      9701.25672048
  ---------------------------------------------------
  free energy    TOTEN  =      -613.17984670 eV

  energy without entropy =     -613.14345208  energy(sigma->0) =     -613.16164939
  exchange ACFDT corr.  =        -0.04639602  see jH, gK, PRB 81, 115126


--------------------------------------------------------------------------------------------------------




--------------------------------------- Iteration      1(   9)  ---------------------------------------


    POTLOK:  cpu time    0.9180: real time    0.9207
    SETDIJ:  cpu time    0.9509: real time    0.9533
    TRIAL :  cpu time  160.6912: real time  161.2083
    CORREC:  cpu time    0.0008: real time    0.0008
    CHARGE:  cpu time    0.7369: real time    0.7388
    --------------------------------------------
      LOOP:  cpu time  163.2990: real time  163.8276

 eigenvalue-minimisations  :     0
 total energy-change (2. order) :-0.3716911E-01  (-0.3260102E-01)
 number of electron     244.0000007 magnetization       2.3784029
 augmentation part       12.6112684 magnetization       2.3645790

 DIPCOR: dipole corrections for dipol
 direction  3 min pos     1,
 dipolmoment          -0.000000      0.000000     -0.000361 electrons x Angstroem
 Tr[quadrupol]     -6640.706964

 energy correction for charged system         0.000000 eV
 dipol+quadrupol energy correction            0.000000 eV
 added-field ion interaction          0.000000 eV  (added to PSCEN)


 Free energy of the ion-electron system (eV)
  ---------------------------------------------------
  alpha Z        PSCENC =       100.72293309
  Ewald energy   TEWEN  =     39644.34022674
  -Hartree energ DENC   =    -47968.27583691
  -exchange      EXHF   =       553.29183516
  -V(xc)+E(xc)   XCENC  =       607.79432977
  PAW double counting   =     26997.91851090   -27021.01961303
  entropy T*S    EENTRO =        -0.03827632
  eigenvalues    EBANDS =     -3229.20972741
  atomic energy  EATOM  =      9701.25672048
  ---------------------------------------------------
  free energy    TOTEN  =      -613.21701581 eV

  energy without entropy =     -613.17873949  energy(sigma->0) =     -613.19787765
  exchange ACFDT corr.  =        -0.04990808  see jH, gK, PRB 81, 115126


--------------------------------------------------------------------------------------------------------




--------------------------------------- Iteration      1(  10)  ---------------------------------------


    POTLOK:  cpu time    0.9163: real time    0.9200
    SETDIJ:  cpu time    0.9487: real time    0.9510
    TRIAL :  cpu time  160.4576: real time  160.9973
    CORREC:  cpu time    0.0008: real time    0.0008
    CHARGE:  cpu time    0.7372: real time    0.7392
    --------------------------------------------
      LOOP:  cpu time  163.0623: real time  163.6134

 eigenvalue-minimisations  :     0
 total energy-change (2. order) :-0.3020859E-01  (-0.2698825E-01)
 number of electron     244.0000007 magnetization       2.4127188
 augmentation part       12.6132542 magnetization       2.3972031

 DIPCOR: dipole corrections for dipol
 direction  3 min pos     1,
 dipolmoment          -0.000000      0.000000     -0.000360 electrons x Angstroem
 Tr[quadrupol]     -6640.711371

 energy correction for charged system         0.000000 eV
 dipol+quadrupol energy correction            0.000000 eV
 added-field ion interaction          0.000000 eV  (added to PSCEN)


 Free energy of the ion-electron system (eV)
  ---------------------------------------------------
  alpha Z        PSCENC =       100.72293309
  Ewald energy   TEWEN  =     39644.34022674
  -Hartree energ DENC   =    -47968.74037886
  -exchange      EXHF   =       553.38552645
  -V(xc)+E(xc)   XCENC  =       607.84295624
  PAW double counting   =     27005.02321747   -27028.17340791
  entropy T*S    EENTRO =        -0.04033797
  eigenvalues    EBANDS =     -3228.86674179
  atomic energy  EATOM  =      9701.25672048
  ---------------------------------------------------
  free energy    TOTEN  =      -613.24722440 eV

  energy without entropy =     -613.20688643  energy(sigma->0) =     -613.22705542
  exchange ACFDT corr.  =        -0.05388075  see jH, gK, PRB 81, 115126


--------------------------------------------------------------------------------------------------------




--------------------------------------- Iteration      1(  11)  ---------------------------------------


    POTLOK:  cpu time    0.9150: real time    0.9173
    SETDIJ:  cpu time    0.9557: real time    0.9582
    TRIAL :  cpu time  160.4372: real time  160.9638
    CORREC:  cpu time    0.0008: real time    0.0008
    CHARGE:  cpu time    0.7425: real time    0.7445
    --------------------------------------------
      LOOP:  cpu time  163.0532: real time  163.5900

 eigenvalue-minimisations  :     0
 total energy-change (2. order) :-0.2543023E-01  (-0.2316832E-01)
 number of electron     244.0000007 magnetization       2.4541101
 augmentation part       12.6151575 magnetization       2.4299169

 DIPCOR: dipole corrections for dipol
 direction  3 min pos     1,
 dipolmoment          -0.000000      0.000000     -0.000337 electrons x Angstroem
 Tr[quadrupol]     -6640.712866

 energy correction for charged system         0.000000 eV
 dipol+quadrupol energy correction            0.000000 eV
 added-field ion interaction          0.000000 eV  (added to PSCEN)


 Free energy of the ion-electron system (eV)
  ---------------------------------------------------
  alpha Z        PSCENC =       100.72293309
  Ewald energy   TEWEN  =     39644.34022674
  -Hartree energ DENC   =    -47968.77855799
  -exchange      EXHF   =       553.45905450
  -V(xc)+E(xc)   XCENC  =       607.87960972
  PAW double counting   =     27008.96394210   -27032.13211843
  entropy T*S    EENTRO =        -0.04263101
  eigenvalues    EBANDS =     -3228.94412689
  atomic energy  EATOM  =      9701.25672048
  ---------------------------------------------------
  free energy    TOTEN  =      -613.27265464 eV

  energy without entropy =     -613.23002363  energy(sigma->0) =     -613.25133913
  exchange ACFDT corr.  =        -0.04687965  see jH, gK, PRB 81, 115126


--------------------------------------------------------------------------------------------------------




--------------------------------------- Iteration      1(  12)  ---------------------------------------


    POTLOK:  cpu time    0.9141: real time    0.9166
    SETDIJ:  cpu time    0.9520: real time    0.9543
    TRIAL :  cpu time  161.1323: real time  161.7009
    CORREC:  cpu time    0.0008: real time    0.0008
    CHARGE:  cpu time    0.7392: real time    0.7411
    --------------------------------------------
      LOOP:  cpu time  163.7400: real time  164.3189

 eigenvalue-minimisations  :     0
 total energy-change (2. order) :-0.2215080E-01  (-0.2067065E-01)
 number of electron     244.0000007 magnetization       2.5043488
 augmentation part       12.6179397 magnetization       2.4630224

 DIPCOR: dipole corrections for dipol
 direction  3 min pos     1,
 dipolmoment          -0.000000      0.000000     -0.000313 electrons x Angstroem
 Tr[quadrupol]     -6640.715710

 energy correction for charged system         0.000000 eV
 dipol+quadrupol energy correction            0.000000 eV
 added-field ion interaction          0.000000 eV  (added to PSCEN)


 Free energy of the ion-electron system (eV)
  ---------------------------------------------------
  alpha Z        PSCENC =       100.72293309
  Ewald energy   TEWEN  =     39644.34022674
  -Hartree energ DENC   =    -47968.83591036
  -exchange      EXHF   =       553.52505382
  -V(xc)+E(xc)   XCENC  =       607.91464858
  PAW double counting   =     27011.76266169   -27034.95082395
  entropy T*S    EENTRO =        -0.04514497
  eigenvalues    EBANDS =     -3228.98768453
  atomic energy  EATOM  =      9701.25672048
  ---------------------------------------------------
  free energy    TOTEN  =      -613.29480544 eV

  energy without entropy =     -613.24966047  energy(sigma->0) =     -613.27223296
  exchange ACFDT corr.  =        -0.05084712  see jH, gK, PRB 81, 115126


--------------------------------------------------------------------------------------------------------




--------------------------------------- Iteration      1(  13)  ---------------------------------------


    POTLOK:  cpu time    0.9127: real time    0.9162
    SETDIJ:  cpu time    0.9638: real time    0.9663
    TRIAL :  cpu time  159.7681: real time  160.2883
    CORREC:  cpu time    0.0008: real time    0.0008
    CHARGE:  cpu time    0.7389: real time    0.7408
    --------------------------------------------
      LOOP:  cpu time  162.3859: real time  162.9172

 eigenvalue-minimisations  :     0
 total energy-change (2. order) :-0.2008829E-01  (-0.1930458E-01)
 number of electron     244.0000007 magnetization       2.5656195
 augmentation part       12.6209604 magnetization       2.4969276

 DIPCOR: dipole corrections for dipol
 direction  3 min pos     1,
 dipolmoment          -0.000000      0.000000     -0.000297 electrons x Angstroem
 Tr[quadrupol]     -6640.720194

 energy correction for charged system         0.000000 eV
 dipol+quadrupol energy correction            0.000000 eV
 added-field ion interaction          0.000000 eV  (added to PSCEN)


 Free energy of the ion-electron system (eV)
  ---------------------------------------------------
  alpha Z        PSCENC =       100.72293309
  Ewald energy   TEWEN  =     39644.34022674
  -Hartree energ DENC   =    -47969.04179354
  -exchange      EXHF   =       553.58828300
  -V(xc)+E(xc)   XCENC  =       607.95151829
  PAW double counting   =     27014.65529290   -27037.87983354
  entropy T*S    EENTRO =        -0.04783367
  eigenvalues    EBANDS =     -3228.86309618
  atomic energy  EATOM  =      9701.25672048
  ---------------------------------------------------
  free energy    TOTEN  =      -613.31489373 eV

  energy without entropy =     -613.26706006  energy(sigma->0) =     -613.29097690
  exchange ACFDT corr.  =        -0.05546584  see jH, gK, PRB 81, 115126


--------------------------------------------------------------------------------------------------------




--------------------------------------- Iteration      1(  14)  ---------------------------------------


    POTLOK:  cpu time    0.9091: real time    0.9130
    SETDIJ:  cpu time    0.9500: real time    0.9524
    TRIAL :  cpu time  160.4607: real time  160.9964
    CORREC:  cpu time    0.0008: real time    0.0008
    CHARGE:  cpu time    0.7374: real time    0.7394
    --------------------------------------------
      LOOP:  cpu time  163.0597: real time  163.6068

 eigenvalue-minimisations  :     0
 total energy-change (2. order) :-0.1909650E-01  (-0.1898905E-01)
 number of electron     244.0000007 magnetization       2.6408217
 augmentation part       12.6235919 magnetization       2.5324447

 DIPCOR: dipole corrections for dipol
 direction  3 min pos     1,
 dipolmoment          -0.000000      0.000000     -0.000281 electrons x Angstroem
 Tr[quadrupol]     -6640.724854

 energy correction for charged system         0.000000 eV
 dipol+quadrupol energy correction            0.000000 eV
 added-field ion interaction          0.000000 eV  (added to PSCEN)


 Free energy of the ion-electron system (eV)
  ---------------------------------------------------
  alpha Z        PSCENC =       100.72293309
  Ewald energy   TEWEN  =     39644.34022674
  -Hartree energ DENC   =    -47969.28629292
  -exchange      EXHF   =       553.64888909
  -V(xc)+E(xc)   XCENC  =       607.98888566
  PAW double counting   =     27018.06429187   -27041.33115996
  entropy T*S    EENTRO =        -0.05059875
  eigenvalues    EBANDS =     -3228.69065061
  atomic energy  EATOM  =      9701.25672048
  ---------------------------------------------------
  free energy    TOTEN  =      -613.33399023 eV

  energy without entropy =     -613.28339148  energy(sigma->0) =     -613.30869086
  exchange ACFDT corr.  =        -0.06073212  see jH, gK, PRB 81, 115126


--------------------------------------------------------------------------------------------------------




--------------------------------------- Iteration      1(  15)  ---------------------------------------


    POTLOK:  cpu time    0.9075: real time    0.9121
    SETDIJ:  cpu time    0.9569: real time    0.9593
    TRIAL :  cpu time  159.9530: real time  160.4689
    CORREC:  cpu time    0.0008: real time    0.0008
    CHARGE:  cpu time    0.7375: real time    0.7395
    --------------------------------------------
      LOOP:  cpu time  162.5574: real time  163.0858

 eigenvalue-minimisations  :     0
 total energy-change (2. order) :-0.1916305E-01  (-0.1984767E-01)
 number of electron     244.0000007 magnetization       2.7332623
 augmentation part       12.6259355 magnetization       2.5706307

 DIPCOR: dipole corrections for dipol
 direction  3 min pos     1,
 dipolmoment          -0.000000      0.000000     -0.000264 electrons x Angstroem
 Tr[quadrupol]     -6640.728818

 energy correction for charged system         0.000000 eV
 dipol+quadrupol energy correction            0.000000 eV
 added-field ion interaction          0.000000 eV  (added to PSCEN)


 Free energy of the ion-electron system (eV)
  ---------------------------------------------------
  alpha Z        PSCENC =       100.72293309
  Ewald energy   TEWEN  =     39644.34022674
  -Hartree energ DENC   =    -47969.46629263
  -exchange      EXHF   =       553.70739660
  -V(xc)+E(xc)   XCENC  =       608.02569579
  PAW double counting   =     27021.98429408   -27045.28830970
  entropy T*S    EENTRO =        -0.05323369
  eigenvalues    EBANDS =     -3228.58521899
  atomic energy  EATOM  =      9701.25672048
  ---------------------------------------------------
  free energy    TOTEN  =      -613.35315328 eV

  energy without entropy =     -613.29991959  energy(sigma->0) =     -613.32653643
  exchange ACFDT corr.  =        -0.06655748  see jH, gK, PRB 81, 115126


--------------------------------------------------------------------------------------------------------




--------------------------------------- Iteration      1(  16)  ---------------------------------------


    POTLOK:  cpu time    0.9087: real time    0.9125
    SETDIJ:  cpu time    0.9572: real time    0.9597
    TRIAL :  cpu time  159.6653: real time  160.1989
    CORREC:  cpu time    0.0008: real time    0.0008
    CHARGE:  cpu time    0.7372: real time    0.7391
    --------------------------------------------
      LOOP:  cpu time  162.2704: real time  162.8158

 eigenvalue-minimisations  :     0
 total energy-change (2. order) :-0.2044139E-01  (-0.2212989E-01)
 number of electron     244.0000007 magnetization       2.8463118
 augmentation part       12.6283902 magnetization       2.6125694

 DIPCOR: dipole corrections for dipol
 direction  3 min pos     1,
 dipolmoment          -0.000000      0.000000     -0.000240 electrons x Angstroem
 Tr[quadrupol]     -6640.732188

 energy correction for charged system         0.000000 eV
 dipol+quadrupol energy correction            0.000000 eV
 added-field ion interaction          0.000000 eV  (added to PSCEN)


 Free energy of the ion-electron system (eV)
  ---------------------------------------------------
  alpha Z        PSCENC =       100.72293309
  Ewald energy   TEWEN  =     39644.34022674
  -Hartree energ DENC   =    -47969.58044883
  -exchange      EXHF   =       553.76630278
  -V(xc)+E(xc)   XCENC  =       608.06302211
  PAW double counting   =     27026.27204640   -27049.60892653
  entropy T*S    EENTRO =        -0.05536659
  eigenvalues    EBANDS =     -3228.55223722
  atomic energy  EATOM  =      9701.25672048
  ---------------------------------------------------
  free energy    TOTEN  =      -613.37359467 eV

  energy without entropy =     -613.31822808  energy(sigma->0) =     -613.34591137
  exchange ACFDT corr.  =        -0.07263923  see jH, gK, PRB 81, 115126


--------------------------------------------------------------------------------------------------------




--------------------------------------- Iteration      1(  17)  ---------------------------------------


    POTLOK:  cpu time    0.9074: real time    0.9124
    SETDIJ:  cpu time    0.9551: real time    0.9576
    TRIAL :  cpu time  160.3964: real time  160.9167
    CORREC:  cpu time    0.0008: real time    0.0008
    CHARGE:  cpu time    0.7378: real time    0.7397
    --------------------------------------------
      LOOP:  cpu time  162.9991: real time  163.5322

 eigenvalue-minimisations  :     0
 total energy-change (2. order) :-0.2321517E-01  (-0.2621355E-01)
 number of electron     244.0000007 magnetization       2.9829903
 augmentation part       12.6311789 magnetization       2.6592431

 DIPCOR: dipole corrections for dipol
 direction  3 min pos     1,
 dipolmoment          -0.000000      0.000000     -0.000215 electrons x Angstroem
 Tr[quadrupol]     -6640.735348

 energy correction for charged system         0.000000 eV
 dipol+quadrupol energy correction            0.000000 eV
 added-field ion interaction          0.000000 eV  (added to PSCEN)


 Free energy of the ion-electron system (eV)
  ---------------------------------------------------
  alpha Z        PSCENC =       100.72293309
  Ewald energy   TEWEN  =     39644.34022674
  -Hartree energ DENC   =    -47969.67184262
  -exchange      EXHF   =       553.82916957
  -V(xc)+E(xc)   XCENC  =       608.10292457
  PAW double counting   =     27030.80654802   -27054.17851722
  entropy T*S    EENTRO =        -0.05640393
  eigenvalues    EBANDS =     -3228.54960586
  atomic energy  EATOM  =      9701.25672048
  ---------------------------------------------------
  free energy    TOTEN  =      -613.39680984 eV

  energy without entropy =     -613.34040591  energy(sigma->0) =     -613.36860787
  exchange ACFDT corr.  =        -0.07830725  see jH, gK, PRB 81, 115126


--------------------------------------------------------------------------------------------------------




[...]
  augment    43.25410    44.11139    54.06270    -0.00254    -0.00256    -0.00179
  Kinetic  3619.16757  3673.43348  4177.28825     0.10313     0.04729     0.00040
  Fock     -305.39600  -307.05168  -292.30841     0.00424     0.01133     0.00284
  -------------------------------------------------------------------------------------
  Total     -42.56257   -37.84596    -0.38538     0.12553     0.01033     0.00050
  in kB     -21.46546   -19.08674    -0.19436     0.06331     0.00521     0.00025
  external pressure =      -13.58 kB  Pullay stress =        0.00 kB


 VOLUME and BASIS-vectors are now :
 -----------------------------------------------------------------------------
  energy-cutoff  :      500.00
  volume of cell :     3176.86
      direct lattice vectors                 reciprocal lattice vectors
    12.706500000  0.000000000  0.000000000     0.078699878  0.000007692 -0.000016756
    -0.001219864 12.480899940  0.000000000     0.000000000  0.080122427  0.000019995
     0.004265438 -0.004999236 20.032098922     0.000000000  0.000000000  0.049919881

  length of vectors
    12.706500000 12.480900000 20.032100000     0.078699880  0.080122430  0.049919881


 FORCES acting on ions:
    Electron-Ion                     Ewald-Force                    Non-Local-Force
 -----------------------------------------------------------------------------------------------
   0.674E+01 0.113E+01 -.164E+00   -.712E+01 -.107E+01 0.165E+00   0.392E+00 0.352E-01 -.198E-03
   -.268E+00 -.134E+01 -.192E+00   0.219E+00 0.136E+01 0.193E+00   0.256E-01 -.932E-01 -.118E-02
   0.103E+02 0.859E+00 -.502E-01   -.106E+02 -.851E+00 0.497E-01   0.164E+00 -.232E-02 0.128E-02
   0.169E+02 0.678E+01 -.281E+00   -.173E+02 -.699E+01 0.279E+00   0.385E+00 0.172E+00 -.861E-04
   0.178E+02 -.134E+01 -.246E+00   -.183E+02 0.138E+01 0.246E+00   0.398E+00 -.712E-01 -.208E-02
   0.377E+01 -.318E+01 -.337E+00   -.386E+01 0.342E+01 0.337E+00   0.129E+00 -.258E+00 0.132E-04
   0.785E+01 -.178E-01 -.280E+00   -.822E+01 0.353E+00 0.279E+00   0.354E+00 -.246E+00 0.269E-03
   0.449E+02 -.494E+01 0.775E-01   -.482E+02 0.559E+01 -.724E-01   0.351E+01 -.520E+00 -.633E-02
   0.210E+02 0.860E-01 -.125E-01   -.213E+02 0.193E+00 0.128E-01   0.795E-01 -.400E+00 -.936E-03
   0.447E+01 -.136E+01 -.345E+00   -.473E+01 0.138E+01 0.343E+00   0.977E-01 0.255E-02 0.119E-02
   0.744E+01 -.399E+01 -.322E+00   -.742E+01 0.408E+01 0.322E+00   0.817E-01 -.141E+00 -.170E-02
   0.555E+02 -.747E+01 0.249E+00   -.585E+02 0.739E+01 -.234E+00   0.357E+01 -.135E-01 -.165E-01
   0.142E+02 -.259E+01 -.294E+00   -.144E+02 0.225E+01 0.297E+00   0.650E-01 0.276E+00 -.520E-02
   0.284E+01 0.330E+01 -.272E+00   -.293E+01 -.353E+01 0.273E+00   0.130E+00 0.266E+00 -.300E-03
   0.600E+01 0.182E+01 -.379E+00   -.597E+01 -.194E+01 0.379E+00   0.652E-01 0.129E+00 -.105E-02
   0.356E+02 0.820E+01 -.315E+00   -.388E+02 -.882E+01 0.313E+00   0.356E+01 0.543E+00 -.193E-02
   0.141E+02 0.295E+01 -.213E+00   -.145E+02 -.294E+01 0.213E+00   0.389E+00 0.152E+00 -.338E-03
   -.888E+00 0.267E+01 0.193E-01   0.840E+00 -.269E+01 -.186E-01   0.359E-01 0.699E-01 0.690E-03
   0.711E+01 0.116E+01 -.102E+00   -.750E+01 -.147E+01 0.101E+00   0.364E+00 0.240E+00 0.149E-02
   0.148E+02 -.187E+01 -.162E+00   -.151E+02 0.194E+01 0.162E+00   0.393E+00 -.201E+00 0.216E-02
   -.665E+01 0.337E+01 -.506E+00   0.634E+01 -.338E+01 0.507E+00   0.354E+00 -.247E-02 -.143E-02
   0.935E+01 0.141E+02 -.395E+00   -.926E+01 -.148E+02 0.396E+00   0.559E-01 0.556E+00 -.307E-02
   0.665E+01 0.336E+01 -.455E+00   -.635E+01 -.337E+01 0.454E+00   -.352E+00 -.132E-02 0.434E-03
   -.934E+01 0.141E+02 -.438E+00   0.925E+01 -.148E+02 0.439E+00   -.586E-01 0.556E+00 -.402E-02
   0.342E+00 0.382E+02 -.208E-01   -.135E+01 -.408E+02 0.269E-01   0.136E+01 0.283E+01 -.684E-02
   -.340E+00 0.381E+02 -.460E-01   0.135E+01 -.407E+02 0.527E-01   -.136E+01 0.283E+01 -.858E-02
   0.573E+01 -.216E+02 -.478E+00   -.654E+01 0.241E+02 0.483E+00   0.140E+01 -.289E+01 -.601E-02
   0.797E+01 -.799E+01 -.375E+00   -.791E+01 0.865E+01 0.376E+00   0.176E-02 -.490E+00 -.824E-04
   -.573E+01 -.217E+02 -.476E+00   0.655E+01 0.241E+02 0.480E+00   -.140E+01 -.289E+01 -.576E-02
   -.796E+01 -.802E+01 -.382E+00   0.791E+01 0.868E+01 0.383E+00   0.161E-02 -.492E+00 0.642E-03
   -.103E+02 0.833E+00 -.562E-01   0.106E+02 -.824E+00 0.558E-01   -.163E+00 -.349E-02 0.945E-03
   -.169E+02 0.679E+01 -.295E+00   0.173E+02 -.700E+01 0.293E+00   -.386E+00 0.174E+00 0.422E-03
   -.673E+01 0.113E+01 -.185E+00   0.712E+01 -.107E+01 0.185E+00   -.392E+00 0.389E-01 -.464E-03
   0.266E+00 -.132E+01 -.171E+00   -.216E+00 0.135E+01 0.172E+00   -.278E-01 -.924E-01 0.110E-03
   -.785E+01 -.121E-01 -.289E+00   0.822E+01 0.346E+00 0.289E+00   -.356E+00 -.245E+00 -.367E-03
   -.449E+02 -.489E+01 0.828E-01   0.482E+02 0.554E+01 -.775E-01   -.351E+01 -.520E+00 -.613E-02
   -.178E+02 -.136E+01 -.258E+00   0.183E+02 0.140E+01 0.258E+00   -.400E+00 -.693E-01 -.236E-02
   -.378E+01 -.320E+01 -.333E+00   0.386E+01 0.344E+01 0.333E+00   -.131E+00 -.256E+00 0.323E-03
   -.745E+01 -.396E+01 -.324E+00   0.743E+01 0.404E+01 0.324E+00   -.829E-01 -.140E+00 -.171E-02
   -.555E+02 -.743E+01 0.173E+00   0.585E+02 0.734E+01 -.160E+00   -.357E+01 -.130E-01 -.160E-01
   -.210E+02 0.320E-01 -.251E-01   0.213E+02 0.247E+00 0.252E-01   -.808E-01 -.398E+00 -.663E-03
   -.447E+01 -.141E+01 -.350E+00   0.472E+01 0.142E+01 0.348E+00   -.973E-01 0.380E-02 0.115E-02
   -.600E+01 0.187E+01 -.385E+00   0.597E+01 -.198E+01 0.385E+00   -.670E-01 0.130E+00 -.111E-02
   -.356E+02 0.827E+01 -.324E+00   0.388E+02 -.889E+01 0.323E+00   -.356E+01 0.544E+00 -.240E-02
   -.142E+02 -.266E+01 -.322E+00   0.144E+02 0.232E+01 0.324E+00   -.660E-01 0.276E+00 -.485E-02
   -.285E+01 0.325E+01 -.265E+00   0.293E+01 -.348E+01 0.265E+00   -.129E+00 0.265E+00 -.120E-03
   -.711E+01 0.119E+01 -.894E-01   0.750E+01 -.151E+01 0.887E-01   -.360E+00 0.240E+00 0.152E-02
   -.148E+02 -.185E+01 -.171E+00   0.151E+02 0.192E+01 0.170E+00   -.390E+00 -.199E+00 0.202E-02
   -.141E+02 0.292E+01 -.198E+00   0.145E+02 -.290E+01 0.198E+00   -.386E+00 0.154E+00 0.148E-03
   0.877E+00 0.267E+01 0.208E-01   -.829E+00 -.269E+01 -.202E-01   -.315E-01 0.710E-01 0.712E-03
   0.228E+02 -.251E+02 0.843E+00   -.133E+02 0.421E+02 -.902E+00   -.942E+01 -.165E+02 0.620E-01
   -.227E+02 -.252E+02 0.865E+00   0.133E+02 0.421E+02 -.926E+00   0.942E+01 -.165E+02 0.630E-01
   0.240E+02 -.263E+02 0.249E+01   -.116E+02 0.286E+02 -.259E+01   -.126E+02 -.181E+01 0.939E-01
   -.240E+02 -.263E+02 0.226E+01   0.116E+02 0.287E+02 -.235E+01   0.126E+02 -.182E+01 0.867E-01
   -.838E+01 0.487E+02 -.348E+00   0.186E+02 -.664E+02 0.337E+00   -.101E+02 0.176E+02 0.132E-01
   0.835E+01 0.486E+02 -.335E+00   -.185E+02 -.663E+02 0.323E+00   0.101E+02 0.176E+02 0.144E-01
   0.877E-02 0.247E+02 0.339E+01   -.105E-01 -.288E+02 -.337E+01   0.172E-02 0.971E+00 -.212E-01
   0.259E-01 -.710E+02 0.157E+01   -.229E-01 0.743E+02 -.154E+01   -.368E-02 -.887E+00 -.197E-01
 -----------------------------------------------------------------------------------------------
   0.453E-02 0.124E+01 -.220E+00   0.128E-12 -.156E-12 -.178E-14   -.228E-02 -.136E+01 0.198E+00
 
 
 POSITION                                       TOTAL-FORCE (eV/Angst)
 -----------------------------------------------------------------------------------
      2.81009     12.47784     10.01630         0.018832      0.100045      0.000518
      0.70442      1.25538     10.01641        -0.029982     -0.077610     -0.000504
      1.39279     12.47805     10.01611        -0.058597      0.005696      0.000833
      3.51750      1.23818     10.01620        -0.014746     -0.024551     -0.001817
      2.84932      2.49631     10.01573        -0.070771     -0.045028     -0.001737
      0.70915      3.75036     10.01655         0.051236     -0.032881     -0.000356
      1.41669      2.50545     10.01639         0.000956      0.078794     -0.000570
      3.60880      3.72282     10.01375         0.316344      0.095732     -0.001561
      2.88198      4.97336     10.01415        -0.237176     -0.134782     -0.000760
      0.71598      6.23569     10.01653        -0.150993      0.015091     -0.000711
      1.43970      4.98629     10.01607         0.099199     -0.067116     -0.001419
      3.59014      6.22707     10.01234         0.810279     -0.107712     -0.003047
      2.88535      7.49591     10.01533        -0.163664     -0.052833     -0.003068
      0.70856      8.72097     10.01658         0.054802      0.046777     -0.000002
      1.44224      7.48473     10.01647         0.098882      0.020227     -0.001586
      3.60143      8.75347     10.01585         0.568431     -0.038604     -0.003498
      2.84369      9.97834     10.01629        -0.053422      0.179690      0.000259
      0.70248     11.22029     10.01594        -0.018373      0.047711      0.001382
      1.41270      9.96872     10.01620        -0.003555     -0.062497      0.000670
      3.51460     11.23885     10.01639         0.075023     -0.141979      0.001326
      7.04822      0.00111     10.01708         0.059629     -0.012670     -0.000974
      4.93402      1.23036     10.01615         0.149180     -0.086873     -0.001914
      5.64238      0.00116     10.01696        -0.058216     -0.013269      0.000355
      7.75668      1.23024     10.01627        -0.153110     -0.086360     -0.002621
      7.05715      2.45194     10.01403         0.422493      0.382620     -0.001120
      5.63349      2.45200     10.01405        -0.424721      0.383407     -0.002360
      7.05678     10.03206     10.01663         0.667563     -0.606654     -0.002010
      4.93293     11.25148     10.01686         0.054784      0.145030      0.001045
      5.63160     10.03213     10.01661        -0.664884     -0.607885     -0.001812
      7.75524     11.25142     10.01691        -0.052057      0.142534      0.001628
     11.29536     12.47793     10.01614         0.060164      0.005463      0.000568
      9.17317      1.23789     10.01629         0.013705     -0.022321     -0.001512
      9.87809     12.47752     10.01639        -0.018869      0.102985      0.000269
     11.98625      1.25527     10.01638         0.027508     -0.076762      0.000559
     11.27392      2.50529     10.01644        -0.002517      0.077964     -0.000953
      9.08164      3.72253     10.01380        -0.317054      0.095487     -0.001172
      9.84129      2.49602     10.01580         0.068484     -0.043097     -0.002004
     11.98128      3.75023     10.01656        -0.053030     -0.029946     -0.000170
     11.25042      4.98608     10.01612        -0.100177     -0.066567     -0.001355
      9.09964      6.22669     10.01266        -0.810946     -0.106878     -0.003660
      9.80818      4.97306     10.01427         0.235917     -0.132696     -0.000617
     11.97369      6.23560     10.01657         0.151649      0.016095     -0.000661
     11.24704      7.48457     10.01654        -0.101534      0.020770     -0.001611
      9.08729      8.75315     10.01593        -0.567812     -0.037466     -0.003674
      9.80391      7.49571     10.01549         0.162943     -0.053977     -0.002960
     11.98025      8.72093     10.01658        -0.054116      0.046144      0.000151
     11.27566      9.96856     10.01619         0.006126     -0.063446      0.000930
      9.17357     11.23856     10.01645        -0.071702     -0.139386      0.001266
      9.84465      9.97808     10.01629         0.056641      0.180598      0.000635
     11.98563     11.22019     10.01594         0.023178      0.049382      0.001375
      5.00202      3.68042     10.01159        -0.777420     -0.959168      0.008124
      7.68844      3.68032     10.01159         0.777223     -0.958563      0.007913
      4.92867      6.23289     10.00753        -1.246245      0.331739      0.007174
      7.76113      6.23263     10.00803         1.244137      0.336617      0.006704
      4.99380      8.80460     10.01539        -0.845122      1.427374      0.002527
      7.69488      8.80449     10.01541         0.845861      1.429683      0.002677
      6.34499      5.06665     10.00739         0.000108     -2.135732      0.003859
      6.34484      7.34101     10.00971        -0.000465      1.261657      0.001046
 -----------------------------------------------------------------------------------
    total drift:                                0.002075     -0.014258      0.000452


--------------------------------------------------------------------------------------------------------



  FREE ENERGIE OF THE ION-ELECTRON SYSTEM (eV)
  ---------------------------------------------------
  free  energy   TOTEN  =      -613.90168972 eV

  energy  without entropy=     -613.90159574  energy(sigma->0) =     -613.90164273
 


--------------------------------------------------------------------------------------------------------


    POTLOK:  cpu time    1.8831: real time    1.9045


--------------------------------------------------------------------------------------------------------


 stress matrix after NEB project (eV)
    -42.56257      0.12553      0.00050
      0.12553    -37.84596      0.01017
      0.00048      0.01033     -0.38538
  FORCES: max atom, RMS     2.135736    0.631884
  FORCE total and by dimension    4.812287    2.135732
  Stress total and by dimension   56.956731   42.562573
 writing wavefunctions
     LOOP+:  cpu time10010.1152: real time10050.8928
    4ORBIT:  cpu time    0.0000: real time    0.0000
 


 total charge     
 
# of ion       s       p       d       tot
------------------------------------------
    1        0.866   1.787   0.000   2.653
    2        0.864   1.761   0.000   2.624
    3        0.866   1.767   0.000   2.633
    4        0.871   1.772   0.000   2.642
    5        0.864   1.766   0.000   2.629
    6        0.862   1.760   0.000   2.622
    7        0.863   1.755   0.000   2.617
    8        0.852   1.702   0.000   2.554
    9        0.856   1.759   0.000   2.615
   10        0.855   1.737   0.000   2.593
   11        0.860   1.739   0.000   2.599
   12        0.862   1.731   0.000   2.593
   13        0.854   1.751   0.000   2.604
   14        0.861   1.758   0.000   2.619
   15        0.859   1.737   0.000   2.595
   16        0.852   1.702   0.000   2.555
   17        0.864   1.766   0.000   2.630
   18        0.864   1.762   0.000   2.625
   19        0.863   1.755   0.000   2.618
   20        0.870   1.770   0.000   2.640
   21        0.870   1.805   0.000   2.674
   22        0.873   1.802   0.000   2.675
   23        0.870   1.805   0.000   2.674
   24        0.873   1.802   0.000   2.675
   25        0.868   1.764   0.000   2.633
   26        0.868   1.764   0.000   2.633
   27        0.868   1.764   0.000   2.632
   28        0.873   1.802   0.000   2.675
   29        0.868   1.764   0.000   2.632
   30        0.873   1.802   0.000   2.675
   31        0.866   1.767   0.000   2.633
   32        0.871   1.772   0.000   2.642
   33        0.866   1.787   0.000   2.653
   34        0.864   1.761   0.000   2.624
   35        0.863   1.755   0.000   2.618
   36        0.852   1.702   0.000   2.554
   37        0.863   1.766   0.000   2.629
   38        0.862   1.760   0.000   2.622
   39        0.860   1.739   0.000   2.599
   40        0.862   1.731   0.000   2.593
   41        0.856   1.759   0.000   2.615
   42        0.855   1.737   0.000   2.593
   43        0.859   1.737   0.000   2.595
   44        0.852   1.702   0.000   2.554
   45        0.854   1.750   0.000   2.604
   46        0.861   1.758   0.000   2.619
   47        0.863   1.755   0.000   2.618
   48        0.870   1.770   0.000   2.640
   49        0.864   1.766   0.000   2.630
   50        0.864   1.762   0.000   2.625
   51        1.229   2.659   0.000   3.888
   52        1.229   2.659   0.000   3.888
   53        1.255   2.622   0.000   3.878
   54        1.255   2.622   0.000   3.878
   55        1.233   2.660   0.000   3.893
   56        1.233   2.660   0.000   3.893
   57        0.511   0.723   6.350   7.584
   58        0.516   0.877   4.594   5.987
--------------------------------------------------
tot         51.620 105.425  10.944 167.989
 


 magnetization (x)
 
# of ion       s       p       d       tot
------------------------------------------
    1       -0.001  -0.008   0.000  -0.009
    2       -0.000  -0.003   0.000  -0.004
    3        0.000  -0.000   0.000  -0.000
    4        0.000   0.002   0.000   0.003
    5       -0.001  -0.010   0.000  -0.011
    6       -0.001  -0.010   0.000  -0.011
    7        0.000   0.003   0.000   0.003
    8        0.001   0.017   0.000   0.019
    9       -0.003  -0.023   0.000  -0.026
   10       -0.000  -0.006   0.000  -0.006
   11        0.000  -0.002   0.000  -0.002
   12        0.004   0.041   0.000   0.045
   13       -0.003  -0.024   0.000  -0.027
   14       -0.001  -0.009   0.000  -0.009
   15       -0.000  -0.004   0.000  -0.004
   16        0.002   0.024   0.000   0.026
   17       -0.001  -0.010   0.000  -0.011
   18       -0.000  -0.004   0.000  -0.004
   19        0.000   0.000   0.000   0.000
   20        0.001   0.007   0.000   0.007
   21        0.000   0.002   0.000   0.002
   22       -0.000  -0.003   0.000  -0.003
   23        0.000   0.002   0.000   0.002
   24       -0.000  -0.003   0.000  -0.003
   25        0.000  -0.002   0.000  -0.002
   26        0.000  -0.002   0.000  -0.002
   27        0.001   0.011   0.000   0.012
   28       -0.001  -0.007   0.000  -0.008
   29        0.001   0.011   0.000   0.012
   30       -0.001  -0.007   0.000  -0.008
   31        0.000  -0.000   0.000  -0.000
   32        0.000   0.002   0.000   0.003
   33       -0.001  -0.008   0.000  -0.009
   34       -0.000  -0.003   0.000  -0.004
   35        0.000   0.003   0.000   0.003
   36        0.001   0.017   0.000   0.019
   37       -0.001  -0.010   0.000  -0.011
   38       -0.001  -0.010   0.000  -0.011
   39        0.000  -0.002   0.000  -0.002
   40        0.004   0.041   0.000   0.045
   41       -0.003  -0.023   0.000  -0.026
   42       -0.000  -0.006   0.000  -0.006
   43       -0.000  -0.004   0.000  -0.004
   44        0.002   0.024   0.000   0.026
   45       -0.003  -0.024   0.000  -0.027
   46       -0.001  -0.009   0.000  -0.009
   47        0.000   0.000   0.000   0.000
   48        0.001   0.007   0.000   0.007
   49       -0.001  -0.010   0.000  -0.011
   50       -0.000  -0.004   0.000  -0.004
   51       -0.007  -0.059   0.000  -0.066
   52       -0.007  -0.059   0.000  -0.066
   53       -0.016  -0.198   0.000  -0.213
   54       -0.016  -0.198   0.000  -0.213
   55       -0.009  -0.059   0.000  -0.067
   56       -0.009  -0.059   0.000  -0.068
   57        0.005   0.016   1.822   1.842
   58        0.063   0.032   2.719   2.815
--------------------------------------------------
tot          0.003  -0.624   4.541   3.920
 

 total amount of memory used by VASP MPI-rank0   160968. kBytes
=======================================================================

   base      :      30000. kBytes
   nonl-proj :       4261. kBytes
   fftplans  :      11851. kBytes
   grid      :      31266. kBytes
   one-center:         62. kBytes
   HF        :         23. kBytes
   nonlr-proj:      21357. kBytes
   wavefun   :      62148. kBytes
 
  
  
 General timing and accounting informations for this job:
 ========================================================
  
                  Total CPU time used (sec):    10045.376
                            User time (sec):    10032.372
                          System time (sec):       13.004
                         Elapsed time (sec):    10092.922
  
                   Maximum memory used (kb):      384168.
                   Average memory used (kb):           0.
  
                          Minor page faults:      1171476
                          Major page faults:          195
                 Voluntary context switches:       161585
