 vasp.5.4.4.18Apr17-6-g9f103f2a35 (build Feb 25 2019 10:51:38) complex          
  
 executed on             LinuxIFC date 2021.08.09  11:46:11
 running on   32 total cores
 distrk:  each k-point on   32 cores,    1 groups
 distr:  one band on NCORES_PER_BAND=  32 cores,    1 groups


--------------------------------------------------------------------------------------------------------


 INCAR:
 POTCAR:    PAW_PBE C 08Apr2002                   
 POTCAR:    PAW_PBE N 08Apr2002                   
 POTCAR:    PAW_PBE Fe 06Sep2000                  
 POTCAR:    PAW_PBE Co 02Aug2007                  

 ----------------------------------------------------------------------------- 
|                                                                             |
|           W    W    AA    RRRRR   N    N  II  N    N   GGGG   !!!           |
|           W    W   A  A   R    R  NN   N  II  NN   N  G    G  !!!           |
|           W    W  A    A  R    R  N N  N  II  N N  N  G       !!!           |
|           W WW W  AAAAAA  RRRRR   N  N N  II  N  N N  G  GGG   !            |
|           WW  WW  A    A  R   R   N   NN  II  N   NN  G    G                |
|           W    W  A    A  R    R  N    N  II  N    N   GGGG   !!!           |
|                                                                             |
|      For optimal performance we recommend to set                            |
|        NCORE= 4 - approx SQRT( number of cores)                             |
|      NCORE specifies how many cores store one orbital (NPAR=cpu/NCORE).     |
|      This setting can  greatly improve the performance of VASP for DFT.     |
|      The default,   NCORE=1            might be grossly inefficient         |
|      on modern multi-core architectures or massively parallel machines.     |
|      Do your own testing !!!!                                               |
|      Unfortunately you need to use the default for GW and RPA calculations. |
|      (for HF NCORE is supported but not extensively tested yet)             |
|                                                                             |
 ----------------------------------------------------------------------------- 

 POTCAR:    PAW_PBE C 08Apr2002                   
   VRHFIN =C: s2p2                                                              
   LEXCH  = PE                                                                  
   EATOM  =   147.1560 eV,   10.8157 Ry                                         
                                                                                
   TITEL  = PAW_PBE C 08Apr2002                                                 
   LULTRA =        F    use ultrasoft PP ?                                      
   IUNSCR =        1    unscreen: 0-lin 1-nonlin 2-no                           
   RPACOR =    1.200    partial core radius                                     
   POMASS =   12.011; ZVAL   =    4.000    mass and valenz                      
   RCORE  =    1.500    outmost cutoff radius                                   
   RWIGS  =    1.630; RWIGS  =    0.863    wigner-seitz radius (au A)           
   ENMAX  =  400.000; ENMIN  =  300.000 eV                                      
   ICORE  =        2    local potential                                         
   LCOR   =        T    correct aug charges                                     
   LPAW   =        T    paw PP                                                  
   EAUG   =  644.873                                                            
   DEXC   =    0.000                                                            
   RMAX   =    1.529    core radius for proj-oper                               
   RAUG   =    1.300    factor for augmentation sphere                          
   RDEP   =    1.501    radius for radial grids                                 
   RDEPT  =    1.300    core radius for aug-charge                              
                                                                                
   Atomic configuration                                                         
    4 entries                                                                   
     n  l   j            E        occ.                                          
     1  0  0.50      -273.3789   2.0000                                         
     2  0  0.50       -13.7508   2.0000                                         
     2  1  0.50        -5.2854   2.0000                                         
     3  2  1.50        -5.4423   0.0000                                         
   Description                                                                  
     l       E           TYP  RCUT    TYP  RCUT                                 
     0    -13.7508458     23  1.200                                             
     0     -8.2022199     23  1.200                                             
     1     -5.2854383     23  1.500                                             
     1     34.0145650     23  1.500                                             
     2     -5.4423304      7  1.500                                             
  local pseudopotential read in
  partial core-charges read in
  partial kinetic energy density read in
  atomic valenz-charges read in
  non local Contribution for L=           0  read in
    real space projection operators read in
  non local Contribution for L=           0  read in
    real space projection operators read in
  non local Contribution for L=           1  read in
    real space projection operators read in
  non local Contribution for L=           1  read in
    real space projection operators read in
    PAW grid and wavefunctions read in
 
   number of l-projection  operators is LMAX  =           4
   number of lm-projection operators is LMMAX =           8
 
 POTCAR:    PAW_PBE N 08Apr2002                   
   VRHFIN =N: s2p3                                                              
   LEXCH  = PE                                                                  
   EATOM  =   264.5486 eV,   19.4438 Ry                                         
                                                                                
   TITEL  = PAW_PBE N 08Apr2002                                                 
   LULTRA =        F    use ultrasoft PP ?                                      
   IUNSCR =        1    unscreen: 0-lin 1-nonlin 2-no                           
   RPACOR =    1.200    partial core radius                                     
   POMASS =   14.001; ZVAL   =    5.000    mass and valenz                      
   RCORE  =    1.500    outmost cutoff radius                                   
   RWIGS  =    1.400; RWIGS  =    0.741    wigner-seitz radius (au A)           
   ENMAX  =  400.000; ENMIN  =  300.000 eV                                      
   ICORE  =        2    local potential                                         
   LCOR   =        T    correct aug charges                                     
   LPAW   =        T    paw PP                                                  
   EAUG   =  627.112                                                            
   DEXC   =    0.000                                                            
   RMAX   =    1.529    core radius for proj-oper                               
   RAUG   =    1.300    factor for augmentation sphere                          
   RDEP   =    1.514    radius for radial grids                                 
   RDEPT  =    1.338    core radius for aug-charge                              
                                                                                
   Atomic configuration                                                         
    4 entries                                                                   
     n  l   j            E        occ.                                          
     1  0  0.50      -384.7179   2.0000                                         
     2  0  0.50       -18.5828   2.0000                                         
     2  1  0.50        -7.0898   3.0000                                         
     3  2  1.50        -6.8029   0.0000                                         
   Description                                                                  
     l       E           TYP  RCUT    TYP  RCUT                                 
     0    -18.5828119     23  1.200                                             
     0    -13.5018863     23  1.200                                             
     1     -7.0897853     23  1.500                                             
     1      9.5240782     23  1.500                                             
     2     -6.8029130      7  1.500                                             
  local pseudopotential read in
  partial core-charges read in
  partial kinetic energy density read in
  atomic valenz-charges read in
  non local Contribution for L=           0  read in
    real space projection operators read in
  non local Contribution for L=           0  read in
    real space projection operators read in
  non local Contribution for L=           1  read in
    real space projection operators read in
  non local Contribution for L=           1  read in
    real space projection operators read in
    PAW grid and wavefunctions read in
 
   number of l-projection  operators is LMAX  =           4
   number of lm-projection operators is LMMAX =           8
 
 POTCAR:    PAW_PBE Fe 06Sep2000                  
   VRHFIN =Fe:  d7 s1                                                           
   LEXCH  = PE                                                                  
   EATOM  =   594.3153 eV,   43.6809 Ry                                         
                                                                                
   TITEL  = PAW_PBE Fe 06Sep2000                                                
   LULTRA =        F    use ultrasoft PP ?                                      
   IUNSCR =        1    unscreen: 0-lin 1-nonlin 2-no                           
   RPACOR =    2.000    partial core radius                                     
   POMASS =   55.847; ZVAL   =    8.000    mass and valenz                      
   RCORE  =    2.300    outmost cutoff radius                                   
   RWIGS  =    2.460; RWIGS  =    1.302    wigner-seitz radius (au A)           
   ENMAX  =  267.882; ENMIN  =  200.911 eV                                      
   RCLOC  =    1.701    cutoff for local pot                                    
   LCOR   =        T    correct aug charges                                     
   LPAW   =        T    paw PP                                                  
   EAUG   =  511.368                                                            
   DEXC   =    0.000                                                            
   RMAX   =    2.356    core radius for proj-oper                               
   RAUG   =    1.300    factor for augmentation sphere                          
   RDEP   =    2.442    radius for radial grids                                 
   RDEPT  =    1.890    core radius for aug-charge                              
                                                                                
   Atomic configuration                                                         
    9 entries                                                                   
     n  l   j            E        occ.                                          
     1  0  0.50     -6993.8440   2.0000                                         
     2  0  0.50      -814.6047   2.0000                                         
     2  1  1.50      -693.3689   6.0000                                         
     3  0  0.50       -89.4732   2.0000                                         
     3  1  1.50       -55.6373   6.0000                                         
     3  2  2.50        -3.8151   7.0000                                         
     4  0  0.50        -4.2551   1.0000                                         
     4  1  1.50        -3.4015   0.0000                                         
     4  3  2.50        -1.3606   0.0000                                         
   Description                                                                  
     l       E           TYP  RCUT    TYP  RCUT                                 
     2     -3.8151135     23  2.300                                             
     2     -5.1756961     23  2.300                                             
     0     -4.2550963     23  2.300                                             
     0      7.2035603     23  2.300                                             
     1     -2.7211652     23  2.300                                             
     1     18.4316424     23  2.300                                             
  local pseudopotential read in
  partial core-charges read in
  partial kinetic energy density read in
  atomic valenz-charges read in
  non local Contribution for L=           2  read in
    real space projection operators read in
  non local Contribution for L=           2  read in
    real space projection operators read in
  non local Contribution for L=           0  read in
    real space projection operators read in
  non local Contribution for L=           0  read in
    real space projection operators read in
  non local Contribution for L=           1  read in
    real space projection operators read in
  non local Contribution for L=           1  read in
    real space projection operators read in
    PAW grid and wavefunctions read in
 
   number of l-projection  operators is LMAX  =           6
   number of lm-projection operators is LMMAX =          18
 
 POTCAR:    PAW_PBE Co 02Aug2007                  
   VRHFIN =Co: d8 s1                                                            
   LEXCH  = PE                                                                  
   EATOM  =   813.3670 eV,   59.7808 Ry                                         
                                                                                
   TITEL  = PAW_PBE Co 02Aug2007                                                
   LULTRA =        F    use ultrasoft PP ?                                      
   IUNSCR =        1    unscreen: 0-lin 1-nonlin 2-no                           
   RPACOR =    2.000    partial core radius                                     
   POMASS =   58.933; ZVAL   =    9.000    mass and valenz                      
   RCORE  =    2.300    outmost cutoff radius                                   
   RWIGS  =    2.460; RWIGS  =    1.302    wigner-seitz radius (au A)           
   ENMAX  =  267.968; ENMIN  =  200.976 eV                                      
   RCLOC  =    1.203    cutoff for local pot                                    
   LCOR   =        T    correct aug charges                                     
   LPAW   =        T    paw PP                                                  
   EAUG   =  477.818                                                            
   DEXC   =    0.000                                                            
   RMAX   =    2.360    core radius for proj-oper                               
   RAUG   =    1.300    factor for augmentation sphere                          
   RDEP   =    2.393    radius for radial grids                                 
   RDEPT  =    1.864    core radius for aug-charge                              
                                                                                
   Atomic configuration                                                         
    9 entries                                                                   
     n  l   j            E        occ.                                          
     1  0  0.50     -7587.6674   2.0000                                         
     2  0  0.50      -893.6084   2.0000                                         
     2  1  1.50      -764.5805   6.0000                                         
     3  0  0.50       -97.5973   2.0000                                         
     3  1  1.50       -60.9648   6.0000                                         
     3  2  2.50        -4.2382   8.0000                                         
     4  0  0.50        -4.3746   1.0000                                         
     4  1  1.50        -4.0817   0.0000                                         
     4  3  2.50        -1.3606   0.0000                                         
   Description                                                                  
     l       E           TYP  RCUT    TYP  RCUT                                 
     2     -4.2382362     23  2.300                                             
     2     -5.5988188     23  2.300                                             
     0     -4.3745797     23  2.300                                             
     0      5.7660125     23  2.300                                             
     1     -2.7211652     23  2.300                                             
     1     16.9860234     23  2.300                                             
  local pseudopotential read in
  partial core-charges read in
  partial kinetic energy density read in
  atomic valenz-charges read in
  non local Contribution for L=           2  read in
    real space projection operators read in
  non local Contribution for L=           2  read in
    real space projection operators read in
  non local Contribution for L=           0  read in
    real space projection operators read in
  non local Contribution for L=           0  read in
    real space projection operators read in
  non local Contribution for L=           1  read in
    real space projection operators read in
  non local Contribution for L=           1  read in
    real space projection operators read in
    PAW grid and wavefunctions read in
 
   number of l-projection  operators is LMAX  =           6
   number of lm-projection operators is LMMAX =          18
 

 ----------------------------------------------------------------------------- 
|                                                                             |
|  ADVICE TO THIS USER RUNNING 'VASP/VAMP'   (HEAR YOUR MASTER'S VOICE ...):  |
|                                                                             |
|      You have a (more or less) 'large supercell' and for larger cells       |
|      it might be more efficient to use real space projection opertators     |
|      So try LREAL= Auto  in the INCAR   file.                               |
|      Mind:          For very  accurate calculation you might also keep the  |
|      reciprocal projection scheme          (i.e. LREAL=.FALSE.)             |
|                                                                             |
 ----------------------------------------------------------------------------- 

  PAW_PBE C 08Apr2002                   :
 energy of atom  1       EATOM= -147.1560
 kinetic energy error for atom=    0.0076 (will be added to EATOM!!)
  PAW_PBE N 08Apr2002                   :
 energy of atom  2       EATOM= -264.5486
 kinetic energy error for atom=    0.0138 (will be added to EATOM!!)
  PAW_PBE Fe 06Sep2000                  :
 energy of atom  3       EATOM= -594.3153
 kinetic energy error for atom=    0.0026 (will be added to EATOM!!)
  PAW_PBE Co 02Aug2007                  :
 energy of atom  4       EATOM= -813.3670
 kinetic energy error for atom=    0.0028 (will be added to EATOM!!)
 
 
 POSCAR:  C  N Fe Co                             
  positions in cartesian coordinates
  No initial velocities read in
 exchange correlation table for  LEXCH =        8
   RHO(1)=    0.500       N(1)  =     2000
   RHO(2)=  100.500       N(2)  =     4000

 VTST: version 3.2, (02/03/18)

 CHAIN: initializing optimizer
 
 OPT: Using VASP Conjugate-Gradient optimizer
 CHAIN: Read ICHAIN            0
 
 POSCAR:  C  N Fe Co                             
  positions in cartesian coordinates
  No initial velocities read in
 


--------------------------------------------------------------------------------------------------------


 ion  position               nearest neighbor table
   1  0.221  0.999  0.500-   4 1.42   3 1.43  19 1.43
   2  0.052  0.101  0.500-   7 1.42   3 1.43  34 1.43
   3  0.110  0.001  0.500-  17 1.42   2 1.43   1 1.43
   4  0.275  0.099  0.500-   1 1.42   5 1.42  21 1.43
   5  0.218  0.200  0.500-   8 1.41   4 1.42   7 1.43
   6  0.052  0.301  0.500-   7 1.42  11 1.43  38 1.43
   7  0.107  0.201  0.500-   6 1.42   2 1.42   5 1.43
   8  0.273  0.298  0.500-  51 1.38   5 1.41   9 1.43
   9  0.218  0.400  0.500-  50 1.39  11 1.41   8 1.43
  10  0.055  0.501  0.500-  11 1.41  41 1.42  14 1.44
  11  0.109  0.400  0.500-  10 1.41   9 1.41   6 1.43
  12  0.226  0.595  0.500-  50 1.38  14 1.44  15 1.47
  13  0.058  0.701  0.500-  18 1.42  14 1.43  45 1.43
  14  0.114  0.600  0.500-  13 1.43  10 1.44  12 1.44
  15  0.284  0.697  0.500-  53 1.37  16 1.44  12 1.47
  16  0.224  0.798  0.500-  19 1.43  18 1.44  15 1.44
  17  0.055  0.901  0.500-   3 1.42  18 1.43  49 1.43
  18  0.113  0.800  0.500-  13 1.42  17 1.43  16 1.44
  19  0.278  0.898  0.500-  16 1.43  28 1.43   1 1.43
  20  0.553  0.001  0.500-  22 1.42  30 1.43  23 1.44
  21  0.386  0.101  0.500-   4 1.43  22 1.43  25 1.44
  22  0.443  0.000  0.500-  20 1.42  21 1.43  28 1.44
  23  0.606  0.104  0.500-  32 1.44  24 1.44  20 1.44
  24  0.549  0.206  0.500-  23 1.44  25 1.44  26 1.46
  25  0.438  0.205  0.500-  51 1.38  24 1.44  21 1.44
  26  0.605  0.309  0.500-  52 1.34  36 1.45  24 1.46
  27  0.558  0.795  0.500-  54 1.38  30 1.45  29 1.48
  28  0.389  0.898  0.500-  19 1.43  22 1.44  29 1.45
  29  0.443  0.793  0.500-  53 1.37  28 1.45  27 1.48
  30  0.610  0.900  0.500-  47 1.43  20 1.43  27 1.45
  31  0.886  0.003  0.500-  34 1.42  49 1.43  33 1.44
  32  0.718  0.105  0.500-  33 1.43  23 1.44  37 1.44
  33  0.775  0.004  0.500-  47 1.43  32 1.43  31 1.44
  34  0.941  0.103  0.500-  31 1.42  35 1.43   2 1.43
  35  0.885  0.204  0.500-  38 1.42  34 1.43  37 1.44
  36  0.718  0.309  0.500-  37 1.43  40 1.45  26 1.45
  37  0.773  0.206  0.500-  36 1.43  35 1.44  32 1.44
  38  0.941  0.303  0.500-  39 1.42  35 1.42   6 1.43
  39  0.886  0.405  0.500-  38 1.42  41 1.43  40 1.44
  40  0.775  0.409  0.500-  55 1.38  39 1.44  36 1.45
  41  0.945  0.503  0.500-  42 1.42  10 1.42  39 1.43
  42  0.890  0.604  0.500-  44 1.41  41 1.42  45 1.42
  43  0.723  0.705  0.500-  54 1.39  48 1.42  44 1.43
  44  0.780  0.604  0.500-  55 1.38  42 1.41  43 1.43
  45  0.946  0.703  0.500-  46 1.42  42 1.42  13 1.43
  46  0.890  0.803  0.500-  45 1.42  49 1.42  48 1.43
  47  0.721  0.903  0.500-  48 1.42  33 1.43  30 1.43
  48  0.778  0.803  0.500-  43 1.42  47 1.42  46 1.43
  49  0.944  0.903  0.500-  46 1.42  31 1.43  17 1.43
  50  0.276  0.495  0.499-  12 1.38   9 1.39  56 1.95
  51  0.380  0.300  0.499-  25 1.38   8 1.38  56 1.98
  52  0.554  0.404  0.500-  26 1.34  57 1.78  56 1.78
  53  0.391  0.697  0.500-  29 1.37  15 1.37
  54  0.615  0.700  0.500-  27 1.38  43 1.39  57 1.94
  55  0.725  0.509  0.501-  40 1.38  44 1.38  57 1.91
  56  0.423  0.455  0.499-  52 1.78  50 1.95  51 1.98  57 2.32
  57  0.580  0.546  0.500-  52 1.78  55 1.91  54 1.94  56 2.32
 
  LATTYP: Found a triclinic cell.
 ALAT       =    12.8655359298
 B/A-ratio  =     0.9540047069
 C/A-ratio  =     1.5639308829
 COS(alpha) =     0.0001617441
 COS(beta)  =     0.0012074987
 COS(gamma) =     0.0152622786
  
  Lattice vectors:
  
 A1 = (  12.8651678996,   0.0969974279,   0.0078213011)
 A2 = (   0.0947947099,  12.2734157178,   0.0010478620)
 A3 = (   0.0120533403,   0.0014435786,  20.1208053041)


Analysis of symmetry for initial positions (statically):
=====================================================================
 Subroutine PRICEL returns:
 Original cell was already a primitive cell.
 

 Routine SETGRP: Setting up the symmetry group for a 
 triclinic supercell.


 Subroutine GETGRP returns: Found  1 space group operations
 (whereof  1 operations were pure point group operations)
 out of a pool of  2 trial point group operations.


The static configuration has the point symmetry C_1 .


Analysis of symmetry for dynamics (positions and initial velocities):
=====================================================================
 Subroutine PRICEL returns:
 Original cell was already a primitive cell.
 

 Routine SETGRP: Setting up the symmetry group for a 
 triclinic supercell.


 Subroutine GETGRP returns: Found  1 space group operations
 (whereof  1 operations were pure point group operations)
 out of a pool of  2 trial point group operations.


The dynamic configuration has the point symmetry C_1 .


Analysis of structural, dynamic, and magnetic symmetry:
=====================================================================
 Subroutine PRICEL returns:
 Original cell was already a primitive cell.
 

 Routine SETGRP: Setting up the symmetry group for a 
 triclinic supercell.


 Subroutine GETGRP returns: Found  1 space group operations
 (whereof  1 operations were pure point group operations)
 out of a pool of  2 trial point group operations.


The magnetic configuration has the point symmetry C_1 .


 Subroutine INISYM returns: Found  1 space group operations
 (whereof  1 operations are pure point group operations),
 and found     1 'primitive' translations

 
 
 KPOINTS: KPOINTS created by Atomic Simulation Env

Automatic generation of k-mesh.
Space group operators:
 irot       det(A)        alpha          n_x          n_y          n_z        tau_x        tau_y        tau_z
    1     1.000000     0.000001     1.000000     0.000000     0.000000     0.000000     0.000000     0.000000
 
 Subroutine IBZKPT returns following result:
 ===========================================
 
 Found      2 irreducible k-points:
 
 Following reciprocal coordinates:
            Coordinates               Weight
  0.250000  0.250000  0.000000      2.000000
 -0.250000  0.250000  0.000000      2.000000
 
 Following cartesian coordinates:
            Coordinates               Weight
  0.019280  0.020220 -0.000013      2.000000
 -0.019587  0.020521  0.000010      2.000000
 
 
 Subroutine IBZKPT_HF returns following result:
 ==============================================
 
 Found      4 k-points in 1st BZ
 the following      4 k-points will be used (e.g. in the exchange kernel)
 Following reciprocal coordinates:   # in IRBZ
  0.250000  0.250000  0.000000    0.25000000   1 t-inv F
 -0.250000  0.250000  0.000000    0.25000000   2 t-inv F
 -0.250000 -0.250000  0.000000    0.25000000   1 t-inv T
  0.250000 -0.250000  0.000000    0.25000000   2 t-inv T


--------------------------------------------------------------------------------------------------------




 Dimension of arrays:
   k-points           NKPTS =      2   k-points in BZ     NKDIM =      4   number of bands    NBANDS=    154
   number of dos      NEDOS =    301   number of ions     NIONS =     57
   non local maximal  LDIM  =      6   non local SUM 2l+1 LMDIM =     18
   total plane-waves  NPLWV = ******
   max r-space proj   IRMAX =      1   max aug-charges    IRDMAX=  16287
   dimension x,y,z NGX =    96 NGY =   90 NGZ =  150
   dimension x,y,z NGXF=   192 NGYF=  180 NGZF=  300
   support grid    NGXF=   192 NGYF=  180 NGZF=  300
   ions per type =              49   6   1   1
   NGX,Y,Z   is equivalent  to a cutoff of  12.40, 12.19, 12.39 a.u.
   NGXF,Y,Z  is equivalent  to a cutoff of  24.81, 24.38, 24.79 a.u.

 SYSTEM =  unknown system                          
 POSCAR =   C  N Fe Co                             

 Startparameter for this run:
   NWRITE =      2    write-flag & timer
   PREC   = accura    normal or accurate (medium, high low for compatibility)
   ISTART =      1    job   : 0-new  1-cont  2-samecut
   ICHARG =      0    charge: 1-file 2-atom 10-const
   ISPIN  =      2    spin polarized calculation?
   LNONCOLLINEAR =      F non collinear calculations
   LSORBIT =      F    spin-orbit coupling
   INIWAV =      1    electr: 0-lowe 1-rand  2-diag
   LASPH  =      T    aspherical Exc in radial PAW
   METAGGA=      F    non-selfconsistent MetaGGA calc.

 Electronic Relaxation 1
   ENCUT  =  500.0 eV  36.75 Ry    6.06 a.u.  23.46 22.38 36.68*2*pi/ulx,y,z
   ENINI  =  500.0     initial cutoff
   ENAUG  =  644.9 eV  augmentation charge cutoff
   NELM   =    250;   NELMIN=  2; NELMDL=  0     # of ELM steps 
   EDIFF  = 0.1E-03   stopping-criterion for ELM
   LREAL  =      F    real-space projection
   NLSPLINE    = F    spline interpolate recip. space projectors
   LCOMPAT=      F    compatible to vasp.4.4
   GGA_COMPAT  = T    GGA compatible to vasp.4.4-vasp.4.6
   LMAXPAW     = -100 max onsite density
   LMAXMIX     =    2 max onsite mixed and CHGCAR
   VOSKOWN=      0    Vosko Wilk Nusair interpolation
   ROPT   =    0.00000   0.00000   0.00000   0.00000
 Ionic relaxation
   EDIFFG = -.3E-01   stopping-criterion for IOM
   NSW    =      0    number of steps for IOM
   NBLOCK =      1;   KBLOCK =      1    inner block; outer block 
   IBRION =     -1    ionic relax: 0-MD 1-quasi-New 2-CG
   NFREE  =      1    steps in history (QN), initial steepest desc. (CG)
   ISIF   =      2    stress and relaxation
   IWAVPR =     10    prediction:  0-non 1-charg 2-wave 3-comb
   ISYM   =      3    0-nonsym 1-usesym 2-fastsym
   LCORR  =      T    Harris-Foulkes like correction to forces

   POTIM  = 0.5000    time-step for ionic-motion
   TEIN   =    0.0    initial temperature
   TEBEG  =    0.0;   TEEND  =   0.0 temperature during run
   SMASS  =  -3.00    Nose mass-parameter (am)
   estimated Nose-frequenzy (Omega)   =  0.10E-29 period in steps =****** mass=  -0.378E-26a.u.
   SCALEE = 1.0000    scale energy and forces
   NPACO  =    256;   APACO  = 16.0  distance and # of slots for P.C.
   PSTRESS=    0.0 pullay stress

  Mass of Ions in am
   POMASS =  12.01 14.00 55.85 58.93
  Ionic Valenz
   ZVAL   =   4.00  5.00  8.00  9.00
  Atomic Wigner-Seitz radii
   RWIGS  =  -1.00 -1.00 -1.00 -1.00
  virtual crystal weights 
   VCA    =   1.00  1.00  1.00  1.00
   NELECT =     243.0000    total number of electrons
   NUPDOWN=      -1.0000    fix difference up-down

 DOS related values:
   EMIN   =  10.00;   EMAX   =-10.00  energy-range for DOS
   EFERMI =   0.00
   ISMEAR =     0;   SIGMA  =   0.10  broadening in eV -4-tet -1-fermi 0-gaus

 Electronic relaxation 2 (details)
   IALGO  =     53    algorithm
   LDIAG  =      T    sub-space diagonalisation (order eigenvalues)
   LSUBROT=      F    optimize rotation matrix (better conditioning)
   TURBO    =      0    0=normal 1=particle mesh
   IRESTART =      0    0=no restart 2=restart with 2 vectors
   NREBOOT  =      0    no. of reboots
   NMIN     =      0    reboot dimension
   EREF     =   0.00    reference energy to select bands
   IMIX   =      4    mixing-type and parameters
     AMIX     =   0.40;   BMIX     =  1.00
     AMIX_MAG =   1.60;   BMIX_MAG =  1.00
     AMIN     =   0.10
     WC   =   100.;   INIMIX=   1;  MIXPRE=   1;  MAXMIX= -45

 Intra band minimization:
   WEIMIN = 0.0000     energy-eigenvalue tresh-hold
   EBREAK =  0.16E-06  absolut break condition
   DEPER  =   0.30     relativ break condition  

   TIME   =   0.20     timestep for ELM

  volume/ion in A,a.u.               =      55.73       376.12
  Fermi-wavevector in a.u.,A,eV,Ry     =   0.694934  1.313234  6.570699  0.482933
  Thomas-Fermi vector in A             =   1.777565
 
 Write flags
   LWAVE        =      T    write WAVECAR
   LDOWNSAMPLE  =      F    k-point downsampling of WAVECAR
   LCHARG       =      T    write CHGCAR
   LVTOT        =      F    write LOCPOT, total local potential
   LVHAR        =      F    write LOCPOT, Hartree potential only
   LELF         =      F    write electronic localiz. function (ELF)
   LORBIT       =     11    0 simple, 1 ext, 2 COOP (PROOUT), +10 PAW based schemes


 Dipole corrections
   LMONO  =      F    monopole corrections only (constant potential shift)
   LDIPOL =      T    correct potential (dipole corrections)
   IDIPOL =      3    1-x, 2-y, 3-z, 4-all directions 
   EPSILON=  1.0000000 bulk dielectric constant

 Exchange correlation treatment:
   GGA     =    PE    GGA type
   LEXCH   =     8    internal setting for exchange type
   VOSKOWN=      0    Vosko Wilk Nusair interpolation
   EXXOEP  =     0    0=HF, 1=EXX-LHF (local Hartree Fock) 2=EXX OEP
   LHFCALC =     T    Hartree Fock is set to
   LSYMGRAD=     F    symmetrize gradient (conserves proper symmetry)
   PRECFOCK=normal    Normal, Fast or Accurate (Low or Medium for compatibility)
   LRHFCALC=     F    long range Hartree Fock
   LRSCOR  =     F    long range correlation only (use DFT for short range part)
   LTHOMAS =     F    Thomas Fermi screening in HF
   LMODELHF=     F    short range full HF, long range fraction AEXX
   ENCUT4O =  -1.0   cutoff for four orbital integrals eV
   LMAXFOCK=     4    L truncation for augmentation on plane wave grid
   LMAXFOCKAE=  -1    L truncation for all-electron charge restoration on plane wave grid
   NMAXFOCKAE=   1    number of basis functions for all-electron charge restoration
   LFOCKAEDFT=     F  apply the AE augmentation even for DFT
   NKREDX  =     1    reduce k-point grid by
   NKREDY  =     1    reduce k-point grid by
   NKREDZ  =     1    reduce k-point grid by
   SHIFTRED=     F    shift reduced grid of Gamma
   HFKIDENT=     F    idential grid for each k-point
   ODDONLY =     F    use only odd q-grid points
   EVENONLY=     F    use only even q-grid points
   HFALPHA =   -1.0000 decay constant for conv. correction
   MCALPHA =    0.0000 extent of test-charge in conv. correction in multipole expansion
   AEXX    =    0.2500 exact exchange contribution
   HFSCREEN=    0.2000 screening length (either q_TF or 0.3 A-1)
   HFSCREENC=   0.2000 screening length for correlation (either q_TF or 0.3 A-1)
   HFRCUT  =    0.0000 spherical cutoff for potential kernel
   ALDAX   =    0.7500 LDA exchange part
   AGGAX   =    0.7500 GGA exchange part
   ALDAC   =    1.0000 LDA correlation
   AGGAC   =    1.0000 GGA correlation
   ENCUTFOCK=  -1.0 apply spherical cutoff to Coloumb kernel
   NBANDSGWLOW=     1    first orbital included in HF term
   NBLOCK_FOCK=    64    blocking factor in FOCK_ACC
 Linear response parameters
   LEPSILON=     F    determine dielectric tensor
   LRPA    =     F    only Hartree local field effects (RPA)
   LNABLA  =     F    use nabla operator in PAW spheres
   LVEL    =     F    velocity operator in full k-point grid
   LINTERFAST=   F  fast interpolation
   KINTER  =     0    interpolate to denser k-point grid
   CSHIFT  =0.1000    complex shift for real part using Kramers Kronig
   OMEGAMAX=  -1.0    maximum frequency
   DEG_THRESHOLD= 0.2000000E-02 threshold for treating states as degnerate
   RTIME   =   -0.100 relaxation time in fs
  (WPLASMAI=    0.000 imaginary part of plasma frequency in eV, 0.658/RTIME)
   DFIELD  = 0.0000000 0.0000000 0.0000000 field for delta impulse in time
 
 Orbital magnetization related:
   ORBITALMAG=     F  switch on orbital magnetization
   LCHIMAG   =     F  perturbation theory with respect to B field
   DQ        =  0.001000  dq finite difference perturbation B field
   LLRAUG    =     F  two centre corrections for induced B field



--------------------------------------------------------------------------------------------------------


 Static calculation
 charge density and potential will be updated during run
 spin polarized calculation
 Conjugate gradient for all bands (Freysoldt, et al. PRB 79, 241103 (2009))
 perform sub-space diagonalisation
    before iterative eigenvector-optimisation
 modified Broyden-mixing scheme, WC =      100.0
 initial mixing is a Kerker type mixing with AMIX =  0.4000 and BMIX =      1.0000
 Hartree-type preconditioning will be used
 using additional bands           32
 reciprocal scheme for non local part
 use partial core corrections
 no Harris-corrections to forces 
 use gradient corrections 
 use of overlap-Matrix (Vanderbilt PP)
 Gauss-broadening in eV      SIGMA  =   0.10


--------------------------------------------------------------------------------------------------------


  energy-cutoff  :      500.00
  volume of cell :     3176.88
      direct lattice vectors                 reciprocal lattice vectors
    12.865167900  0.096997428  0.007821301     0.077733816 -0.000600379 -0.000046523
     0.094794710 12.273415718  0.001047862    -0.000614331  0.081481656 -0.000005478
     0.012053340  0.001443579 20.120805304    -0.000030184 -0.000004010  0.049699818

  length of vectors
    12.865535930 12.273781834 20.120808966     0.077736149  0.081483972  0.049699828


 
 old parameters found on file WAVECAR:
  energy-cutoff  :      500.00
  volume of cell :     3176.88
      direct lattice vectors                 reciprocal lattice vectors
    12.810000000  0.000000000  0.000000000     0.078064012  0.000000000  0.000000000
     0.000000000 12.400000000  0.000000000     0.000000000  0.080645161  0.000000000
     0.000000000  0.000000000 20.000000000     0.000000000  0.000000000  0.050000000

  length of vectors

 
 k-points in units of 2pi/SCALE and weight: KPOINTS created by Atomic Simulation Env
   0.01927987  0.02022032 -0.00001300       0.500
  -0.01958704  0.02052051  0.00001026       0.500
 
 k-points in reciprocal lattice and weights: KPOINTS created by Atomic Simulation Env
   0.25000000  0.25000000  0.00000000       0.500
  -0.25000000  0.25000000  0.00000000       0.500
 
 position of ions in fractional coordinates (direct lattice) 
   0.22094353  0.99929387  0.50008562
   0.05237513  0.10090093  0.50009615
   0.10964181  0.00054100  0.50006920
   0.27500828  0.09931622  0.49995777
   0.21795992  0.19954907  0.49992084
   0.05170486  0.30111915  0.50007972
   0.10702002  0.20055248  0.50009477
   0.27317688  0.29809970  0.49954794
   0.21843425  0.39992765  0.49962729
   0.05503402  0.50146461  0.49999461
   0.10851946  0.40006146  0.49994015
   0.22568419  0.59501834  0.49975758
   0.05763278  0.70081051  0.49997802
   0.11401485  0.59985793  0.49993871
   0.28426639  0.69734801  0.49992611
   0.22427314  0.79769851  0.50002692
   0.05535130  0.90079416  0.49999240
   0.11263837  0.80007634  0.49998869
   0.27823636  0.89835280  0.50008890
   0.55343879  0.00142935  0.49994263
   0.38582999  0.10107097  0.49983278
   0.44286050  0.00011261  0.49998147
   0.60645476  0.10431139  0.49990517
   0.54944990  0.20607342  0.49976377
   0.43762496  0.20467842  0.49953894
   0.60532943  0.30858218  0.49999198
   0.55782501  0.79521346  0.50014152
   0.38931331  0.89783060  0.50007657
   0.44310310  0.79336333  0.50007691
   0.60950996  0.89952211  0.50001834
   0.88636026  0.00281620  0.49994254
   0.71807186  0.10530085  0.49999817
   0.77479954  0.00415240  0.49993735
   0.94100961  0.10263237  0.50004678
   0.88471112  0.20366689  0.50013460
   0.71789354  0.30858999  0.50028761
   0.77307428  0.20640577  0.50015588
   0.94054525  0.30299938  0.50014501
   0.88628592  0.40469337  0.50020602
   0.77456165  0.40935598  0.50038711
   0.94464921  0.50282742  0.50012083
   0.89003714  0.60393798  0.50013148
   0.72286829  0.70465860  0.50022646
   0.78036588  0.60408511  0.50032489
   0.94639471  0.70280461  0.49999088
   0.88967168  0.80270082  0.49994059
   0.72083305  0.90317120  0.49996426
   0.77828223  0.80342980  0.50001371
   0.94386192  0.90256544  0.49992530
   0.27589232  0.49502215  0.49943151
   0.38033466  0.30039378  0.49917149
   0.55380646  0.40395155  0.49984706
   0.39081534  0.69702206  0.49998139
   0.61525059  0.69959247  0.50028808
   0.72451705  0.50914668  0.50055108
   0.42327530  0.45479176  0.49893285
   0.57966591  0.54618476  0.50024558
 
 position of ions in cartesian coordinates  (Angst):
   2.94323108 12.28690193 10.06490066
   0.68940749  1.24420128 10.06285259
   1.41663907  0.01799679 10.06265304
   3.55346848  1.24634609 10.06180797
   2.82903287  2.47101186 10.06072375
   0.69976385  3.70149770 10.06272658
   1.40186966  2.47256654 10.06335673
   3.54874588  3.68592019 10.05375586
   2.85412651  4.93038716 10.05503088
   0.76158476  6.16074356 10.06125012
   1.44007067  4.92136845 10.06046643
   2.96589332  7.32551969 10.05791360
   0.81391486  8.60765073 10.06114559
   1.52970944  7.37408656 10.06068979
   3.72926549  8.58713684 10.06187002
   2.96695615  9.81296119 10.06353428
   0.80352081 11.06191197 10.06162655
   1.53098111  9.83131693 10.06189447
   3.67074433 11.05356754 10.06530889
   7.12624441  0.07194684 10.06357838
   4.97937327  1.27863212 10.06016162
   5.70351180  0.04506022 10.06349376
   7.81805605  1.33980321 10.06334720
   7.09432371  2.58324148 10.06016288
   5.65554210  2.55527296 10.05476301
   7.82294325  3.84679454 10.06529915
   7.25792280  9.81481502 10.06844630
   5.09971823 11.05793254 10.06592910
   5.78183004  9.78097977 10.06624703
   7.93274476 11.10005146 10.06648147
  11.40946648  0.12126082 10.06618189
   9.25412360  1.36277407 10.06609252
   9.97434578  0.12683939 10.06520641
  12.12200283  1.35164712 10.06881140
  11.40729199  2.58622515 10.07024394
   9.27110379  3.85780930 10.07212777
   9.97132509  2.60901205 10.06980181
  12.13502365  3.81078980 10.07099411
  11.44660917  5.05365952 10.07190400
  10.00970185  5.10004894 10.07467861
  12.20676419  6.26376044 10.07074906
  11.51375564  7.49943520 10.07064219
   9.37264919  8.71940636 10.07135136
  10.10283279  7.49060344 10.07367619
  12.24817554  8.71833272 10.06835764
  11.52789325  9.93889838 10.06700673
   9.36528031 11.15563633 10.06626781
  10.09491933  9.93704109 10.06760766
  12.23452623 11.16983466 10.06722753
   3.60234635  6.10309445 10.05164071
   4.92756170  3.72446982 10.04702191
   7.16913044  5.01230465 10.06208023
   5.10000547  8.59347141 10.06381518
   7.98764999  8.64678912 10.07174420
   9.37533122  6.31996776 10.07769104
   5.49463348  5.62362521 10.04271789
   7.51530433  6.76050083 10.07045003
 


--------------------------------------------------------------------------------------------------------


 k-point  1 :   0.2500 0.2500 0.0000  plane waves:   80659
 k-point  2 :  -0.2500 0.2500 0.0000  plane waves:   80687

 maximum and minimum number of plane-waves per node :      2547     2499

 maximum number of plane-waves:     80687
 maximum index in each direction: 
   IXMAX=   23   IYMAX=   22   IZMAX=   36
   IXMIN=  -23   IYMIN=  -22   IZMIN=  -36


 parallel 3D FFT for wavefunctions:
    minimum data exchange during FFTs selected (reduces bandwidth)
 parallel 3D FFT for charge:
    minimum data exchange during FFTs selected (reduces bandwidth)


 FFT grid for exact exchange (Hartree Fock) 
  NGX = 72; NGY = 70; NGZ =112

 
 Radii for the augmentation spheres in the non-local exchange
 for species   1 augmentation radius   0.874 (default was   0.699)
       energy cutoff for augmentation   2000.0
 for species   2 augmentation radius   0.886 (default was   0.709)
       energy cutoff for augmentation   2000.0
 for species   3 augmentation radius   1.263 (default was   1.010)
       energy cutoff for augmentation   2000.0
 for species   4 augmentation radius   1.307 (default was   1.045)
       energy cutoff for augmentation   2000.0

 real space projection operators:
  total allocation   :       2526.01 KBytes
  max/ min on nodes  :        111.77         53.81

 Maximum index for augmentation-charges in exchange          148
  SETUP_FOCK is finished

 total amount of memory used by VASP MPI-rank0   161478. kBytes
=======================================================================

   base      :      30000. kBytes
   nonl-proj :       5273. kBytes
   fftplans  :      13453. kBytes
   grid      :      34560. kBytes
   one-center:         62. kBytes
   HF        :         23. kBytes
   nonlr-proj:       1793. kBytes
   wavefun   :      76314. kBytes
 
     INWAV:  cpu time    3.5077: real time    3.5079
 Broyden mixing: mesh for mixing (old mesh)
   NGX = 47   NGY = 45   NGZ = 73
  (NGX  =192   NGY  =180   NGZ  =300)
  gives a total of 154395 points

 charge density for first step will be calculated from the start-wavefunctions


--------------------------------------------------------------------------------------------------------


 Maximum index for augmentation-charges           94 (set IRDMAX)


--------------------------------------------------------------------------------------------------------


 initial charge from wavefunction
 First call to EWALD:  gamma=   0.121
 Maximum number of real-space cells 3x 3x 2
 Maximum number of reciprocal cells 2x 2x 4

    FEWALD:  cpu time    0.0030: real time    0.0030


--------------------------------------- Iteration      1(   1)  ---------------------------------------


    POTLOK:  cpu time    1.3156: real time    1.3200
    SETDIJ:  cpu time    2.0929: real time    2.0937
    TRIAL :  cpu time  518.7459: real time  518.8046
    CORREC:  cpu time    0.0020: real time    0.0023
    CHARGE:  cpu time    1.6585: real time    1.6586
    --------------------------------------------
      LOOP:  cpu time  523.8306: real time  523.8977

 eigenvalue-minimisations  :     0
 total energy-change (2. order) :-0.5965535E+03  (-0.5575250E+00)
 number of electron     242.9999999 magnetization       4.6543663
 augmentation part       15.2290338 magnetization       3.2400806

 DIPCOR: dipole corrections for dipol
 direction  3 min pos     1,
 dipolmoment           0.000002      0.000000      0.003317 electrons x Angstroem
 Tr[quadrupol]     -6428.533908

 energy correction for charged system         0.000000 eV
 dipol+quadrupol energy correction            0.000000 eV
 added-field ion interaction          0.000000 eV  (added to PSCEN)


 Free energy of the ion-electron system (eV)
  ---------------------------------------------------
  alpha Z        PSCENC =        97.06971986
  Ewald energy   TEWEN  =     39579.52360808
  -Hartree energ DENC   =    -48276.47903058
  -exchange      EXHF   =       554.08558656
  -V(xc)+E(xc)   XCENC  =       625.49819731
  PAW double counting   =     26356.68806660   -26444.97556213
  entropy T*S    EENTRO =        -0.03124429
  eigenvalues    EBANDS =     -3180.18266233
  atomic energy  EATOM  =     10092.25328449
  ---------------------------------------------------
  free energy    TOTEN  =      -596.55353119 eV

  energy without entropy =     -596.52228690  energy(sigma->0) =     -596.53790905
  exchange ACFDT corr.  =        -0.06925378  see jH, gK, PRB 81, 115126


--------------------------------------------------------------------------------------------------------




--------------------------------------- Iteration      1(   2)  ---------------------------------------


    POTLOK:  cpu time    1.3263: real time    1.3263
    SETDIJ:  cpu time    2.0866: real time    2.0866
    TRIAL :  cpu time  520.5540: real time  520.5957
    CORREC:  cpu time    0.0023: real time    0.0026
    CHARGE:  cpu time    1.6569: real time    1.6569
    --------------------------------------------
      LOOP:  cpu time  525.6284: real time  525.6703

 eigenvalue-minimisations  :     0
 total energy-change (2. order) :-0.3914460E+00  (-0.5708544E+00)
 number of electron     242.9999998 magnetization       4.7021725
 augmentation part       15.2063539 magnetization       3.3269563

 DIPCOR: dipole corrections for dipol
 direction  3 min pos     1,
 dipolmoment           0.000003      0.000000      0.005731 electrons x Angstroem
 Tr[quadrupol]     -6428.371873

 energy correction for charged system         0.000000 eV
 dipol+quadrupol energy correction            0.000001 eV
 added-field ion interaction          0.000000 eV  (added to PSCEN)


 Free energy of the ion-electron system (eV)
  ---------------------------------------------------
  alpha Z        PSCENC =        97.06972048
  Ewald energy   TEWEN  =     39579.52360808
  -Hartree energ DENC   =    -48262.80473762
  -exchange      EXHF   =       554.08886376
  -V(xc)+E(xc)   XCENC  =       625.21857968
  PAW double counting   =     26481.16990061   -26569.67521334
  entropy T*S    EENTRO =        -0.02879090
  eigenvalues    EBANDS =     -3193.75773905
  atomic energy  EATOM  =     10092.25328449
  ---------------------------------------------------
  free energy    TOTEN  =      -596.94497719 eV

  energy without entropy =     -596.91618629  energy(sigma->0) =     -596.93058174
  exchange ACFDT corr.  =        -0.06684516  see jH, gK, PRB 81, 115126


--------------------------------------------------------------------------------------------------------




--------------------------------------- Iteration      1(   3)  ---------------------------------------


    POTLOK:  cpu time    1.3252: real time    1.3253
    SETDIJ:  cpu time    2.0837: real time    2.0837
    TRIAL :  cpu time  519.5255: real time  519.5559
    CORREC:  cpu time    0.0023: real time    0.0025
    CHARGE:  cpu time    1.6476: real time    1.6476
    --------------------------------------------
      LOOP:  cpu time  524.5865: real time  524.6174

 eigenvalue-minimisations  :     0
 total energy-change (2. order) :-0.3865555E+00  (-0.3361668E+00)
 number of electron     242.9999998 magnetization       4.7873559
 augmentation part       15.1959824 magnetization       3.4077017

 DIPCOR: dipole corrections for dipol
 direction  3 min pos     1,
 dipolmoment           0.000003      0.000000      0.004483 electrons x Angstroem
 Tr[quadrupol]     -6428.197102

 energy correction for charged system         0.000000 eV
 dipol+quadrupol energy correction            0.000001 eV
 added-field ion interaction          0.000000 eV  (added to PSCEN)


 Free energy of the ion-electron system (eV)
  ---------------------------------------------------
  alpha Z        PSCENC =        97.06972012
  Ewald energy   TEWEN  =     39579.52360808
  -Hartree energ DENC   =    -48246.02298476
  -exchange      EXHF   =       554.02575701
  -V(xc)+E(xc)   XCENC  =       624.81295101
  PAW double counting   =     26640.85869155   -26728.43009594
  entropy T*S    EENTRO =        -0.02304876
  eigenvalues    EBANDS =     -3211.39367337
  atomic energy  EATOM  =     10092.25328449
  ---------------------------------------------------
  free energy    TOTEN  =      -597.33153271 eV

  energy without entropy =     -597.30848395  energy(sigma->0) =     -597.32000833
  exchange ACFDT corr.  =        -0.04667566  see jH, gK, PRB 81, 115126


--------------------------------------------------------------------------------------------------------




--------------------------------------- Iteration      1(   4)  ---------------------------------------


    POTLOK:  cpu time    1.3253: real time    1.3253
    SETDIJ:  cpu time    2.0838: real time    2.0838
    TRIAL :  cpu time  519.1885: real time  519.2161
    CORREC:  cpu time    0.0023: real time    0.0025
    CHARGE:  cpu time    1.6507: real time    1.6507
    --------------------------------------------
      LOOP:  cpu time  524.2530: real time  524.2808

 eigenvalue-minimisations  :     0
 total energy-change (2. order) :-0.2534594E+00  (-0.2015455E+00)
 number of electron     242.9999998 magnetization       4.8420657
 augmentation part       15.2000724 magnetization       3.4616234

 DIPCOR: dipole corrections for dipol
 direction  3 min pos     1,
 dipolmoment           0.000003      0.000000      0.005072 electrons x Angstroem
 Tr[quadrupol]     -6428.140482

 energy correction for charged system         0.000000 eV
 dipol+quadrupol energy correction            0.000001 eV
 added-field ion interaction          0.000000 eV  (added to PSCEN)


 Free energy of the ion-electron system (eV)
  ---------------------------------------------------
  alpha Z        PSCENC =        97.06972028
  Ewald energy   TEWEN  =     39579.52360808
  -Hartree energ DENC   =    -48239.86755178
  -exchange      EXHF   =       554.27116113
  -V(xc)+E(xc)   XCENC  =       624.72722984
  PAW double counting   =     26779.89972681   -26867.61762506
  entropy T*S    EENTRO =        -0.01805708
  eigenvalues    EBANDS =     -3217.82149713
  atomic energy  EATOM  =     10092.25328449
  ---------------------------------------------------
  free energy    TOTEN  =      -597.58499212 eV

  energy without entropy =     -597.56693504  energy(sigma->0) =     -597.57596358
  exchange ACFDT corr.  =        -0.02561933  see jH, gK, PRB 81, 115126


--------------------------------------------------------------------------------------------------------




--------------------------------------- Iteration      1(   5)  ---------------------------------------


    POTLOK:  cpu time    1.3251: real time    1.3252
    SETDIJ:  cpu time    2.0853: real time    2.0852
    TRIAL :  cpu time  519.1526: real time  519.1902
    CORREC:  cpu time    0.0022: real time    0.0024
    CHARGE:  cpu time    1.6468: real time    1.6468
    --------------------------------------------
      LOOP:  cpu time  524.2145: real time  524.2524

 eigenvalue-minimisations  :     0
 total energy-change (2. order) :-0.1582012E+00  (-0.1370806E+00)
 number of electron     242.9999998 magnetization       4.8735024
 augmentation part       15.2043536 magnetization       3.4972347

 DIPCOR: dipole corrections for dipol
 direction  3 min pos     1,
 dipolmoment           0.000003      0.000000      0.005239 electrons x Angstroem
 Tr[quadrupol]     -6428.175585

 energy correction for charged system         0.000000 eV
 dipol+quadrupol energy correction            0.000001 eV
 added-field ion interaction          0.000000 eV  (added to PSCEN)


 Free energy of the ion-electron system (eV)
  ---------------------------------------------------
  alpha Z        PSCENC =        97.06972033
  Ewald energy   TEWEN  =     39579.52360808
  -Hartree energ DENC   =    -48241.47511042
  -exchange      EXHF   =       554.62731358
  -V(xc)+E(xc)   XCENC  =       624.82308732
  PAW double counting   =     26880.30828845   -26968.32390777
  entropy T*S    EENTRO =        -0.01498579
  eigenvalues    EBANDS =     -3216.53142026
  atomic energy  EATOM  =     10092.25328449
  ---------------------------------------------------
  free energy    TOTEN  =      -597.74319328 eV

  energy without entropy =     -597.72820749  energy(sigma->0) =     -597.73570039
  exchange ACFDT corr.  =        -0.01342705  see jH, gK, PRB 81, 115126


--------------------------------------------------------------------------------------------------------




--------------------------------------- Iteration      1(   6)  ---------------------------------------


    POTLOK:  cpu time    1.3252: real time    1.3252
    SETDIJ:  cpu time    2.0834: real time    2.0834
    TRIAL :  cpu time  516.7217: real time  516.7402
    CORREC:  cpu time    0.0022: real time    0.0024
    CHARGE:  cpu time    1.6461: real time    1.6461
    --------------------------------------------
      LOOP:  cpu time  521.7808: real time  521.7995

 eigenvalue-minimisations  :     0
 total energy-change (2. order) :-0.1146923E+00  (-0.9758823E-01)
 number of electron     242.9999998 magnetization       4.8946963
 augmentation part       15.2087807 magnetization       3.5208338

 DIPCOR: dipole corrections for dipol
 direction  3 min pos     1,
 dipolmoment           0.000003      0.000000      0.004848 electrons x Angstroem
 Tr[quadrupol]     -6428.236031

 energy correction for charged system         0.000000 eV
 dipol+quadrupol energy correction            0.000001 eV
 added-field ion interaction          0.000000 eV  (added to PSCEN)


 Free energy of the ion-electron system (eV)
  ---------------------------------------------------
  alpha Z        PSCENC =        97.06972022
  Ewald energy   TEWEN  =     39579.52360808
  -Hartree energ DENC   =    -48245.04413995
  -exchange      EXHF   =       554.96586859
  -V(xc)+E(xc)   XCENC  =       624.95800708
  PAW double counting   =     26944.05319838   -27032.05247338
  entropy T*S    EENTRO =        -0.01296540
  eigenvalues    EBANDS =     -3213.56997332
  atomic energy  EATOM  =     10092.25328449
  ---------------------------------------------------
  free energy    TOTEN  =      -597.85788561 eV

  energy without entropy =     -597.84492021  energy(sigma->0) =     -597.85140291
  exchange ACFDT corr.  =        -0.00925280  see jH, gK, PRB 81, 115126


--------------------------------------------------------------------------------------------------------




--------------------------------------- Iteration      1(   7)  ---------------------------------------


    POTLOK:  cpu time    1.3252: real time    1.3252
    SETDIJ:  cpu time    2.0855: real time    2.0854
    TRIAL :  cpu time  516.6944: real time  516.7319
    CORREC:  cpu time    0.0021: real time    0.0023
    CHARGE:  cpu time    1.6461: real time    1.6461
    --------------------------------------------
      LOOP:  cpu time  521.7555: real time  521.7931

 eigenvalue-minimisations  :     0
 total energy-change (2. order) :-0.8421541E-01  (-0.7450317E-01)
 number of electron     242.9999998 magnetization       4.9099232
 augmentation part       15.2138333 magnetization       3.5373557

 DIPCOR: dipole corrections for dipol
 direction  3 min pos     1,
 dipolmoment           0.000003      0.000000      0.004666 electrons x Angstroem
 Tr[quadrupol]     -6428.288342

 energy correction for charged system         0.000000 eV
 dipol+quadrupol energy correction            0.000001 eV
 added-field ion interaction          0.000000 eV  (added to PSCEN)


 Free energy of the ion-electron system (eV)
  ---------------------------------------------------
  alpha Z        PSCENC =        97.06972017
  Ewald energy   TEWEN  =     39579.52360808
  -Hartree energ DENC   =    -48248.47967633
  -exchange      EXHF   =       555.24535365
  -V(xc)+E(xc)   XCENC  =       625.08479428
  PAW double counting   =     26980.99120161   -27068.99734164
  entropy T*S    EENTRO =        -0.01151195
  eigenvalues    EBANDS =     -3210.62007992
  atomic energy  EATOM  =     10092.25328449
  ---------------------------------------------------
  free energy    TOTEN  =      -597.94210102 eV

  energy without entropy =     -597.93058907  energy(sigma->0) =     -597.93634505
  exchange ACFDT corr.  =        -0.00743274  see jH, gK, PRB 81, 115126


--------------------------------------------------------------------------------------------------------




--------------------------------------- Iteration      1(   8)  ---------------------------------------


    POTLOK:  cpu time    1.3292: real time    1.3292
    SETDIJ:  cpu time    2.0849: real time    2.0849
    TRIAL :  cpu time  516.9343: real time  516.9996
    CORREC:  cpu time    0.0022: real time    0.0024
    CHARGE:  cpu time    1.6358: real time    1.6359
    --------------------------------------------
      LOOP:  cpu time  521.9885: real time  522.0541

 eigenvalue-minimisations  :     0
 total energy-change (2. order) :-0.6556636E-01  (-0.5668304E-01)
 number of electron     242.9999998 magnetization       4.9216084
 augmentation part       15.2179743 magnetization       3.5518786

 DIPCOR: dipole corrections for dipol
 direction  3 min pos     1,
 dipolmoment           0.000003      0.000000      0.004742 electrons x Angstroem
 Tr[quadrupol]     -6428.321396

 energy correction for charged system         0.000000 eV
 dipol+quadrupol energy correction            0.000001 eV
 added-field ion interaction          0.000000 eV  (added to PSCEN)


 Free energy of the ion-electron system (eV)
  ---------------------------------------------------
  alpha Z        PSCENC =        97.06972019
  Ewald energy   TEWEN  =     39579.52360808
  -Hartree energ DENC   =    -48250.89061208
  -exchange      EXHF   =       555.45120833
  -V(xc)+E(xc)   XCENC  =       625.17936137
  PAW double counting   =     27000.74643674   -27088.86398422
  entropy T*S    EENTRO =        -0.01036048
  eigenvalues    EBANDS =     -3208.46517832
  atomic energy  EATOM  =     10092.25328449
  ---------------------------------------------------
  free energy    TOTEN  =      -598.00766738 eV

  energy without entropy =     -597.99730690  energy(sigma->0) =     -598.00248714
  exchange ACFDT corr.  =        -0.00635607  see jH, gK, PRB 81, 115126


--------------------------------------------------------------------------------------------------------




--------------------------------------- Iteration      1(   9)  ---------------------------------------


    POTLOK:  cpu time    1.3196: real time    1.3199
    SETDIJ:  cpu time    2.0831: real time    2.0835
    TRIAL :  cpu time  517.3144: real time  517.4104
    CORREC:  cpu time    0.0019: real time    0.0022
    CHARGE:  cpu time    1.6380: real time    1.6382
    --------------------------------------------
      LOOP:  cpu time  522.3593: real time  522.4565

 eigenvalue-minimisations  :     0
 total energy-change (2. order) :-0.5096997E-01  (-0.4499604E-01)
 number of electron     242.9999998 magnetization       4.9309935
 augmentation part       15.2208106 magnetization       3.5663795

 DIPCOR: dipole corrections for dipol
 direction  3 min pos     1,
 dipolmoment           0.000003      0.000000      0.004812 electrons x Angstroem
 Tr[quadrupol]     -6428.337071

 energy correction for charged system         0.000000 eV
 dipol+quadrupol energy correction            0.000001 eV
 added-field ion interaction          0.000000 eV  (added to PSCEN)


 Free energy of the ion-electron system (eV)
  ---------------------------------------------------
  alpha Z        PSCENC =        97.06972021
  Ewald energy   TEWEN  =     39579.52360808
  -Hartree energ DENC   =    -48252.02657995
  -exchange      EXHF   =       555.59522780
  -V(xc)+E(xc)   XCENC  =       625.23646820
  PAW double counting   =     27010.76214790   -27098.97351029
  entropy T*S    EENTRO =        -0.00939689
  eigenvalues    EBANDS =     -3207.48864330
  atomic energy  EATOM  =     10092.25328449
  ---------------------------------------------------
  free energy    TOTEN  =      -598.05863736 eV

  energy without entropy =     -598.04924047  energy(sigma->0) =     -598.05393891
  exchange ACFDT corr.  =        -0.00556974  see jH, gK, PRB 81, 115126


--------------------------------------------------------------------------------------------------------




--------------------------------------- Iteration      1(  10)  ---------------------------------------


    POTLOK:  cpu time    1.3195: real time    1.3198
    SETDIJ:  cpu time    2.0826: real time    2.0827
    TRIAL :  cpu time  516.8503: real time  516.9417
    CORREC:  cpu time    0.0022: real time    0.0024
    CHARGE:  cpu time    1.6381: real time    1.6384
    --------------------------------------------
      LOOP:  cpu time  521.8949: real time  521.9873

 eigenvalue-minimisations  :     0
 total energy-change (2. order) :-0.4117658E-01  (-0.3654531E-01)
 number of electron     242.9999998 magnetization       4.9385419
 augmentation part       15.2228413 magnetization       3.5803044

 DIPCOR: dipole corrections for dipol
 direction  3 min pos     1,
 dipolmoment           0.000003      0.000000      0.004787 electrons x Angstroem
 Tr[quadrupol]     -6428.343428

 energy correction for charged system         0.000000 eV
 dipol+quadrupol energy correction            0.000001 eV
 added-field ion interaction          0.000000 eV  (added to PSCEN)


 Free energy of the ion-electron system (eV)
  ---------------------------------------------------
  alpha Z        PSCENC =        97.06972020
  Ewald energy   TEWEN  =     39579.52360808
  -Hartree energ DENC   =    -48252.34033729
  -exchange      EXHF   =       555.70113154
  -V(xc)+E(xc)   XCENC  =       625.26884263
  PAW double counting   =     27015.76715191   -27104.01957879
  entropy T*S    EENTRO =        -0.00859188
  eigenvalues    EBANDS =     -3207.31423980
  atomic energy  EATOM  =     10092.25328449
  ---------------------------------------------------
  free energy    TOTEN  =      -598.09981393 eV

  energy without entropy =     -598.09122205  energy(sigma->0) =     -598.09551799
  exchange ACFDT corr.  =        -0.00494102  see jH, gK, PRB 81, 115126


--------------------------------------------------------------------------------------------------------




--------------------------------------- Iteration      1(  11)  ---------------------------------------


    POTLOK:  cpu time    1.3161: real time    1.3162
    SETDIJ:  cpu time    2.0798: real time    2.0801
    TRIAL :  cpu time  516.6529: real time  516.7264
    CORREC:  cpu time    0.0022: real time    0.0024
    CHARGE:  cpu time    1.6382: real time    1.6383
    --------------------------------------------
      LOOP:  cpu time  521.6914: real time  521.7655

 eigenvalue-minimisations  :     0
 total energy-change (2. order) :-0.3378802E-01  (-0.3029240E-01)
 number of electron     242.9999998 magnetization       4.9445533
 augmentation part       15.2244263 magnetization       3.5929853

 DIPCOR: dipole corrections for dipol
 direction  3 min pos     1,
 dipolmoment           0.000003      0.000000      0.004743 electrons x Angstroem
 Tr[quadrupol]     -6428.347130

 energy correction for charged system         0.000000 eV
 dipol+quadrupol energy correction            0.000001 eV
 added-field ion interaction          0.000000 eV  (added to PSCEN)


 Free energy of the ion-electron system (eV)
  ---------------------------------------------------
  alpha Z        PSCENC =        97.06972019
  Ewald energy   TEWEN  =     39579.52360808
  -Hartree energ DENC   =    -48252.40866446
  -exchange      EXHF   =       555.78699604
  -V(xc)+E(xc)   XCENC  =       625.29136361
  PAW double counting   =     27018.35335740   -27106.63912894
  entropy T*S    EENTRO =        -0.00793105
  eigenvalues    EBANDS =     -3207.35554648
  atomic energy  EATOM  =     10092.25328449
  ---------------------------------------------------
  free energy    TOTEN  =      -598.13360195 eV

  energy without entropy =     -598.12567090  energy(sigma->0) =     -598.12963643
  exchange ACFDT corr.  =        -0.00443249  see jH, gK, PRB 81, 115126


--------------------------------------------------------------------------------------------------------




--------------------------------------- Iteration      1(  12)  ---------------------------------------


    POTLOK:  cpu time    1.3134: real time    1.3135
    SETDIJ:  cpu time    2.0789: real time    2.0792
    TRIAL :  cpu time  517.0126: real time  517.0567
    CORREC:  cpu time    0.0021: real time    0.0023
    CHARGE:  cpu time    1.6463: real time    1.6463
    --------------------------------------------
      LOOP:  cpu time  522.0553: real time  522.0999

 eigenvalue-minimisations  :     0
 total energy-change (2. order) :-0.2830698E-01  (-0.2557280E-01)
 number of electron     242.9999998 magnetization       4.9493633
 augmentation part       15.2256255 magnetization       3.6043854

 DIPCOR: dipole corrections for dipol
 direction  3 min pos     1,
 dipolmoment           0.000003      0.000000      0.004725 electrons x Angstroem
 Tr[quadrupol]     -6428.350966

 energy correction for charged system         0.000000 eV
 dipol+quadrupol energy correction            0.000001 eV
 added-field ion interaction          0.000000 eV  (added to PSCEN)


 Free energy of the ion-electron system (eV)
  ---------------------------------------------------
  alpha Z        PSCENC =        97.06972018
  Ewald energy   TEWEN  =     39579.52360808
  -Hartree energ DENC   =    -48252.50638535
  -exchange      EXHF   =       555.86172095
  -V(xc)+E(xc)   XCENC  =       625.31129777
  PAW double counting   =     27019.98600364   -27108.31994237
  entropy T*S    EENTRO =        -0.00739140
  eigenvalues    EBANDS =     -3207.33328528
  atomic energy  EATOM  =     10092.25328449
  ---------------------------------------------------
  free energy    TOTEN  =      -598.16190894 eV

  energy without entropy =     -598.15451753  energy(sigma->0) =     -598.15821323
  exchange ACFDT corr.  =        -0.00402538  see jH, gK, PRB 81, 115126


--------------------------------------------------------------------------------------------------------




--------------------------------------- Iteration      1(  13)  ---------------------------------------


    POTLOK:  cpu time    1.3134: real time    1.3134
    SETDIJ:  cpu time    2.0784: real time    2.0785
    TRIAL :  cpu time  516.5860: real time  516.7902
    CORREC:  cpu time    0.0021: real time    0.0023
    CHARGE:  cpu time    1.6403: real time    1.6403
    --------------------------------------------
      LOOP:  cpu time  521.6224: real time  521.8269

 eigenvalue-minimisations  :     0
 total energy-change (2. order) :-0.2405447E-01  (-0.2182100E-01)
 number of electron     242.9999998 magnetization       4.9532552
 augmentation part       15.2266142 magnetization       3.6147534

 DIPCOR: dipole corrections for dipol
 direction  3 min pos     1,
 dipolmoment           0.000003      0.000000      0.004721 electrons x Angstroem
 Tr[quadrupol]     -6428.355118

 energy correction for charged system         0.000000 eV
 dipol+quadrupol energy correction            0.000001 eV
 added-field ion interaction          0.000000 eV  (added to PSCEN)


 Free energy of the ion-electron system (eV)
  ---------------------------------------------------
  alpha Z        PSCENC =        97.06972018
  Ewald energy   TEWEN  =     39579.52360808
  -Hartree energ DENC   =    -48252.64235373
  -exchange      EXHF   =       555.92876237
  -V(xc)+E(xc)   XCENC  =       625.32955821
  PAW double counting   =     27021.52138166   -27109.90404651
  entropy T*S    EENTRO =        -0.00695147
  eigenvalues    EBANDS =     -3207.25848676
  atomic energy  EATOM  =     10092.25328449
  ---------------------------------------------------
  free energy    TOTEN  =      -598.18596341 eV

  energy without entropy =     -598.17901194  energy(sigma->0) =     -598.18248767
  exchange ACFDT corr.  =        -0.00369968  see jH, gK, PRB 81, 115126


--------------------------------------------------------------------------------------------------------




--------------------------------------- Iteration      1(  14)  ---------------------------------------


    POTLOK:  cpu time    1.3080: real time    1.3081
    SETDIJ:  cpu time    2.0770: real time    2.0770
    TRIAL :  cpu time  517.9951: real time  518.0272
    CORREC:  cpu time    0.0021: real time    0.0024
    CHARGE:  cpu time    1.6381: real time    1.6380
    --------------------------------------------
      LOOP:  cpu time  523.0228: real time  523.0552

 eigenvalue-minimisations  :     0
 total energy-change (2. order) :-0.2065215E-01  (-0.1883559E-01)
 number of electron     242.9999998 magnetization       4.9564162
 augmentation part       15.2275247 magnetization       3.6241404

 DIPCOR: dipole corrections for dipol
 direction  3 min pos     1,
 dipolmoment           0.000003      0.000000      0.004714 electrons x Angstroem
 Tr[quadrupol]     -6428.359169

 energy correction for charged system         0.000000 eV
 dipol+quadrupol energy correction            0.000001 eV
 added-field ion interaction          0.000000 eV  (added to PSCEN)


 Free energy of the ion-electron system (eV)
  ---------------------------------------------------
  alpha Z        PSCENC =        97.06972018
  Ewald energy   TEWEN  =     39579.52360808
  -Hartree energ DENC   =    -48252.77237678
  -exchange      EXHF   =       555.98966221
  -V(xc)+E(xc)   XCENC  =       625.34571692
  PAW double counting   =     27023.39523315   -27111.81571978
  entropy T*S    EENTRO =        -0.00659752
  eigenvalues    EBANDS =     -3207.18879256
  atomic energy  EATOM  =     10092.25328449
  ---------------------------------------------------
  free energy    TOTEN  =      -598.20661555 eV

  energy without entropy =     -598.20001803  energy(sigma->0) =     -598.20331679
  exchange ACFDT corr.  =        -0.00343847  see jH, gK, PRB 81, 115126


--------------------------------------------------------------------------------------------------------




--------------------------------------- Iteration      1(  15)  ---------------------------------------


    POTLOK:  cpu time    1.3111: real time    1.3111
    SETDIJ:  cpu time    2.0747: real time    2.0746
    TRIAL :  cpu time  518.0464: real time  518.0767
    CORREC:  cpu time    0.0019: real time    0.0021
    CHARGE:  cpu time    1.6401: real time    1.6401
    --------------------------------------------
      LOOP:  cpu time  523.0763: real time  523.1069

 eigenvalue-minimisations  :     0
 total energy-change (2. order) :-0.1790032E-01  (-0.1637274E-01)
 number of electron     242.9999998 magnetization       4.9589831
 augmentation part       15.2283393 magnetization       3.6324741

 DIPCOR: dipole corrections for dipol
 direction  3 min pos     1,
 dipolmoment           0.000003      0.000000      0.004698 electrons x Angstroem
 Tr[quadrupol]     -6428.362863

 energy correction for charged system         0.000000 eV
 dipol+quadrupol energy correction            0.000001 eV
 added-field ion interaction          0.000000 eV  (added to PSCEN)


 Free energy of the ion-electron system (eV)
  ---------------------------------------------------
  alpha Z        PSCENC =        97.06972017
  Ewald energy   TEWEN  =     39579.52360808
  -Hartree energ DENC   =    -48252.88383569
  -exchange      EXHF   =       556.04511997
  -V(xc)+E(xc)   XCENC  =       625.35984733
  PAW double counting   =     27025.66931890   -27114.11993054
  entropy T*S    EENTRO =        -0.00631913
  eigenvalues    EBANDS =     -3207.13505107
  atomic energy  EATOM  =     10092.25328449
  ---------------------------------------------------
  free energy    TOTEN  =      -598.22451587 eV

  energy without entropy =     -598.21819675  energy(sigma->0) =     -598.22135631
  exchange ACFDT corr.  =        -0.00323068  see jH, gK, PRB 81, 115126


--------------------------------------------------------------------------------------------------------




--------------------------------------- Iteration      1(  16)  ---------------------------------------


    POTLOK:  cpu time    1.3085: real time    1.3085
    SETDIJ:  cpu time    2.0774: real time    2.0773
    TRIAL :  cpu time  517.6740: real time  517.7123
    CORREC:  cpu time    0.0022: real time    0.0024
    CHARGE:  cpu time    1.6411: real time    1.6411
    --------------------------------------------
      LOOP:  cpu time  522.7055: real time  522.7440

 eigenvalue-minimisations  :     0
 total energy-change (2. order) :-0.1561085E-01  (-0.1432523E-01)
 number of electron     242.9999998 magnetization       4.9610839
 augmentation part       15.2290499 magnetization       3.6398082

 DIPCOR: dipole corrections for dipol
 direction  3 min pos     1,
 dipolmoment           0.000003      0.000000      0.004684 electrons x Angstroem
 Tr[quadrupol]     -6428.366111

 energy correction for charged system         0.000000 eV
 dipol+quadrupol energy correction            0.000001 eV
 added-field ion interaction          0.000000 eV  (added to PSCEN)


 Free energy of the ion-electron system (eV)
  ---------------------------------------------------
  alpha Z        PSCENC =        97.06972017
  Ewald energy   TEWEN  =     39579.52360808
  -Hartree energ DENC   =    -48252.98264692
  -exchange      EXHF   =       556.09559448
  -V(xc)+E(xc)   XCENC  =       625.37234999
  PAW double counting   =     27028.14264670   -27116.62201747
  entropy T*S    EENTRO =        -0.00610478
  eigenvalues    EBANDS =     -3207.08634710
  atomic energy  EATOM  =     10092.25328449
  ---------------------------------------------------
  free energy    TOTEN  =      -598.24012672 eV

  energy without entropy =     -598.23402194  energy(sigma->0) =     -598.23707433
  exchange ACFDT corr.  =        -0.00306814  see jH, gK, PRB 81, 115126


--------------------------------------------------------------------------------------------------------




--------------------------------------- Iteration      1(  17)  ---------------------------------------


    POTLOK:  cpu time    1.3080: real time    1.3080
    SETDIJ:  cpu time    2.0798: real time    2.0798
    TRIAL :  cpu time  517.9678: real time  518.0016
    CORREC:  cpu time    0.0021: real time    0.0024
    CHARGE:  cpu time    1.6419: real time    1.6419
    --------------------------------------------
      LOOP:  cpu time  523.0018: real time  523.0359

 eigenvalue-minimisations  :     0
 total energy-change (2. order) :-0.1369255E-01  (-0.1259142E-01)
 number of electron     242.9999998 magnetization       4.9628365
 augmentation part       15.2297364 magnetization       3.6463542

 DIPCOR: dipole corrections for dipol
 direction  3 min pos     1,
 dipolmoment           0.000003      0.000000      0.004672 electrons x Angstroem
 Tr[quadrupol]     -6428.368902

 energy correction for charged system         0.000000 eV
 dipol+quadrupol energy correction            0.000001 eV
 added-field ion interaction          0.000000 eV  (added to PSCEN)


 Free energy of the ion-electron system (eV)
  ---------------------------------------------------
  alpha Z        PSCENC =        97.06972017
  Ewald energy   TEWEN  =     39579.52360808
  -Hartree energ DENC   =    -48253.07413818
  -exchange      EXHF   =       556.14172807
  -V(xc)+E(xc)   XCENC  =       625.38364862
  PAW double counting   =     27030.55452422   -27119.06333089
  entropy T*S    EENTRO =        -0.00594257
  eigenvalues    EBANDS =     -3207.03675907
  atomic energy  EATOM  =     10092.25328449
  ---------------------------------------------------
  free energy    TOTEN  =      -598.25381927 eV

  energy without entropy =     -598.24787670  energy(sigma->0) =     -598.25084799
  exchange ACFDT corr.  =        -0.00294290  see jH, gK, PRB 81, 115126


--------------------------------------------------------------------------------------------------------




--------------------------------------- Iteration      1(  18)  ---------------------------------------


    POTLOK:  cpu time    1.3074: real time    1.3074
    SETDIJ:  cpu time    2.0766: real time    2.0766
    TRIAL :  cpu time  516.1695: real time  516.1922
    CORREC:  cpu time    0.0022: real time    0.0024
    CHARGE:  cpu time    1.6374: real time    1.6374
    --------------------------------------------
      LOOP:  cpu time  521.1957: real time  521.2186

 eigenvalue-minimisations  :     0
 total energy-change (2. order) :-0.1205630E-01  (-0.1110259E-01)
 number of electron     242.9999998 magnetization       4.9643311
 augmentation part       15.2304063 magnetization       3.6522497

 DIPCOR: dipole corrections for dipol
 direction  3 min pos     1,
 dipolmoment           0.000003      0.000000      0.004662 electrons x Angstroem
 Tr[quadrupol]     -6428.371289

 energy correction for charged system         0.000000 eV
 dipol+quadrupol energy correction            0.000001 eV
 added-field ion interaction          0.000000 eV  (added to PSCEN)


 Free energy of the ion-electron system (eV)
  ---------------------------------------------------
  alpha Z        PSCENC =        97.06972016
  Ewald energy   TEWEN  =     39579.52360808
  -Hartree energ DENC   =    -48253.15967067
  -exchange      EXHF   =       556.18421369
  -V(xc)+E(xc)   XCENC  =       625.39404764
  PAW double counting   =     27032.76482687   -27121.30283355
  entropy T*S    EENTRO =        -0.00582245
  eigenvalues    EBANDS =     -3206.98712972
  atomic energy  EATOM  =     10092.25328449
  ---------------------------------------------------
[...]
  E(xc)    -715.60254  -715.28262  -729.71415    -0.30667    -0.00999    -0.00355
  Local  -98503.70378-98491.99997100494.89089   -52.39832   -13.38933  -122.16674
  n-local  -140.58889  -144.62447  -133.51872     1.02435     0.07030     0.02899
  augment   167.85624   166.46825   181.32239     0.39764     0.01150     0.00874
  Kinetic  3612.46981  3607.74705  4133.72335     8.63745     0.18593    -0.11413
  Fock     -338.54333  -338.47466  -320.85155    -1.74655    -0.00985     0.03071
  -------------------------------------------------------------------------------------
  Total     -40.67096   -41.48998    -0.39701    -0.51795     0.01806     0.01231
  in kB     -20.51135   -20.92440    -0.20022    -0.26121     0.00911     0.00621
  external pressure =      -13.88 kB  Pullay stress =        0.00 kB


 VOLUME and BASIS-vectors are now :
 -----------------------------------------------------------------------------
  energy-cutoff  :      500.00
  volume of cell :     3176.88
      direct lattice vectors                 reciprocal lattice vectors
    12.865167900  0.096997428  0.007821301     0.077733816 -0.000600379 -0.000046523
     0.094794710 12.273415718  0.001047862    -0.000614331  0.081481656 -0.000005478
     0.012053340  0.001443579 20.120805304    -0.000030184 -0.000004010  0.049699818

  length of vectors
    12.865535930 12.273781834 20.120808966     0.077736149  0.081483972  0.049699828


 FORCES acting on ions:
    Electron-Ion                     Ewald-Force                    Non-Local-Force
 -----------------------------------------------------------------------------------------------
   0.140E+01 0.692E+01 -.842E+00   -.174E+01 -.692E+01 0.846E+00   0.353E+00 0.142E-01 -.687E-02
   0.423E+01 0.521E+01 -.653E+00   -.431E+01 -.534E+01 0.653E+00   0.871E-01 0.128E+00 -.202E-02
   -.178E+01 0.120E+01 -.494E+00   0.163E+01 -.125E+01 0.491E+00   0.626E-01 0.816E-02 0.218E-02
   0.133E+01 0.121E+02 -.387E+00   -.149E+01 -.125E+02 0.379E+00   0.111E+00 0.349E+00 0.464E-02
   0.122E+02 0.130E+02 -.544E+00   -.128E+02 -.132E+02 0.548E+00   0.493E+00 0.217E+00 -.113E-01
   0.643E+01 0.230E+01 -.671E+00   -.663E+01 -.265E+01 0.666E+00   0.237E+00 0.341E+00 0.205E-02
   0.320E+01 0.684E+01 -.106E+01   -.361E+01 -.694E+01 0.106E+01   0.380E+00 0.480E-01 -.854E-02
   0.339E+02 0.114E+02 0.127E+01   -.373E+02 -.118E+02 -.125E+01   0.335E+01 0.288E+00 -.177E-01
   0.238E+02 0.138E+02 0.907E+00   -.256E+02 -.167E+02 -.894E+00   0.187E+01 0.275E+01 -.160E-01
   0.221E+01 -.811E+01 -.192E+00   -.245E+01 0.829E+01 0.186E+00   0.755E-01 -.214E+00 0.425E-02
   0.102E+02 0.595E+01 -.349E+00   -.107E+02 -.634E+01 0.354E+00   0.531E+00 0.306E+00 -.942E-02
   -.276E+01 -.407E+02 0.415E+00   0.132E+01 0.441E+02 -.399E+00   0.130E+01 -.325E+01 -.160E-01
   -.282E+01 -.257E+01 -.263E-01   0.284E+01 0.291E+01 0.275E-01   0.433E-02 -.220E+00 -.189E-02
   -.174E+01 -.952E+01 -.211E+00   0.174E+01 0.995E+01 0.211E+00   0.167E+00 -.345E+00 -.500E-02
   0.190E+02 0.117E+02 -.389E-01   -.215E+02 -.114E+02 0.374E-01   0.241E+01 -.289E+00 0.495E-03
   0.415E+01 0.276E+01 -.434E+00   -.447E+01 -.310E+01 0.436E+00   0.307E+00 0.338E+00 -.271E-02
   0.446E+00 0.175E+01 0.378E-01   -.454E+00 -.165E+01 -.357E-01   0.795E-02 -.151E-02 -.170E-02
   -.595E+01 -.399E+01 -.299E-01   0.570E+01 0.401E+01 0.263E-01   0.223E+00 -.962E-01 0.409E-02
   0.802E+00 -.174E+01 -.747E+00   -.917E+00 0.186E+01 0.743E+00   0.752E-01 -.115E+00 0.382E-03
   -.374E+01 -.261E+00 0.182E+00   0.378E+01 0.569E+00 -.189E+00   0.104E+00 -.161E+00 0.683E-02
   -.613E+01 0.127E+02 0.195E+00   0.626E+01 -.133E+02 -.193E+00   -.105E+00 0.409E+00 -.205E-02
   0.128E+01 0.694E+01 -.341E+00   -.983E+00 -.689E+01 0.345E+00   -.413E+00 0.138E-01 -.763E-02
   -.473E+00 0.632E+01 0.221E+00   0.486E+00 -.657E+01 -.216E+00   -.145E-01 0.224E-01 -.532E-02
   -.825E+01 0.141E+02 0.803E+00   0.850E+01 -.141E+02 -.803E+00   -.198E-01 0.249E+00 0.376E-02
   -.223E+02 0.369E+02 0.159E+01   0.242E+02 -.395E+02 -.156E+01   -.224E+01 0.298E+01 -.209E-01
   -.230E+02 0.563E+02 -.583E+00   0.250E+02 -.599E+02 0.590E+00   -.189E+01 0.315E+01 -.136E-01
   0.356E+02 -.281E+02 -.574E+00   -.375E+02 0.308E+02 0.563E+00   0.220E+01 -.280E+01 0.832E-02
   -.649E+01 -.221E+01 -.667E+00   0.687E+01 0.241E+01 0.667E+00   -.329E+00 -.148E+00 -.265E-02
   -.190E+02 -.146E+02 -.552E+00   0.195E+02 0.167E+02 0.553E+00   -.880E+00 -.225E+01 -.233E-02
   0.904E+01 -.701E+01 -.271E-01   -.929E+01 0.762E+01 0.297E-01   0.139E+00 -.563E+00 -.147E-02
   0.261E+01 -.114E+00 0.501E+00   -.258E+01 0.114E+00 -.499E+00   -.494E-02 -.996E-03 0.245E-02
   0.165E+00 0.145E+01 -.133E-01   -.883E-01 -.138E+01 0.143E-01   -.261E-01 -.175E-01 0.120E-03
   -.536E-01 -.301E+01 0.496E+00   0.277E+00 0.337E+01 -.496E+00   -.181E+00 -.400E+00 0.238E-02
   -.340E+00 0.123E+01 -.999E-01   0.244E+00 -.134E+01 0.988E-01   0.974E-01 0.716E-01 0.362E-02
   0.271E+01 0.609E+01 -.545E+00   -.279E+01 -.629E+01 0.549E+00   0.331E-01 0.156E+00 -.247E-02
   -.811E+01 0.173E+02 -.184E+01   0.821E+01 -.174E+02 0.185E+01   -.885E-01 0.144E+00 -.219E-01
   -.127E+01 0.854E+01 -.759E+00   0.120E+01 -.856E+01 0.755E+00   0.616E-01 -.979E-01 0.213E-02
   -.147E+01 0.685E+01 -.524E+00   0.140E+01 -.714E+01 0.525E+00   0.443E-01 0.313E+00 0.259E-02
   -.762E+01 0.986E+01 -.594E+00   0.794E+01 -.102E+02 0.591E+00   -.255E+00 0.235E+00 0.939E-02
   -.207E+02 0.435E+02 -.177E+01   0.220E+02 -.468E+02 0.175E+01   -.139E+01 0.337E+01 0.153E-01
   -.109E+02 0.372E+01 -.382E+00   0.111E+02 -.385E+01 0.389E+00   -.111E+00 0.717E-01 -.360E-02
   -.173E+02 -.896E+01 -.240E+00   0.178E+02 0.942E+01 0.238E+00   -.498E+00 -.246E+00 0.485E-02
   -.299E+02 -.244E+02 -.859E+00   0.333E+02 0.248E+02 0.862E+00   -.340E+01 -.391E+00 -.496E-02
   -.344E+02 -.305E+02 -.129E+01   0.364E+02 0.331E+02 0.128E+01   -.188E+01 -.277E+01 0.940E-02
   -.110E+02 -.527E+01 0.308E+00   0.112E+02 0.554E+01 -.308E+00   -.214E+00 -.334E+00 0.296E-02
   -.238E+01 -.738E+01 0.628E+00   0.286E+01 0.750E+01 -.627E+00   -.457E+00 -.605E-01 0.308E-02
   0.137E+01 -.136E+02 0.410E+00   -.119E+01 0.140E+02 -.410E+00   -.946E-01 -.484E+00 0.218E-02
   -.116E+02 -.147E+02 0.321E+00   0.123E+02 0.151E+02 -.324E+00   -.599E+00 -.347E+00 0.490E-02
   -.450E+01 -.493E+01 0.574E+00   0.450E+01 0.506E+01 -.573E+00   0.114E-01 -.154E+00 0.219E-02
   -.427E+02 -.376E+02 0.280E+01   0.618E+02 0.373E+02 -.291E+01   -.183E+02 0.462E+00 0.117E+00
   -.254E+02 -.123E+02 0.520E+01   0.356E+02 0.296E+02 -.544E+01   -.955E+01 -.171E+02 0.246E+00
   -.340E+01 0.451E+02 0.264E-01   -.293E+01 -.341E+02 -.254E-01   0.582E+01 -.104E+02 0.111E-02
   -.490E+02 0.891E+02 -.323E+00   0.639E+02 -.115E+03 0.311E+00   -.139E+02 0.242E+02 0.747E-02
   0.554E+02 -.343E+01 -.189E+01   -.652E+02 -.140E+02 0.197E+01   0.931E+01 0.172E+02 -.734E-01
   -.478E+00 0.214E+02 -.428E+01   -.184E+02 -.214E+02 0.442E+01   0.184E+02 -.160E+00 -.151E+00
   0.683E+02 -.104E+03 0.121E+02   -.693E+02 0.101E+03 -.120E+02   -.267E+00 0.325E+01 -.144E+00
   0.985E+02 -.112E+03 -.416E+01   -.955E+02 0.112E+03 0.414E+01   -.245E+01 0.194E+01 0.314E-01
 -----------------------------------------------------------------------------------------------
   0.118E+02 -.202E+02 0.469E-01   0.568E-13 0.711E-13 -.266E-14   -.114E+02 0.196E+02 -.491E-01
 
 
 POSITION                                       TOTAL-FORCE (eV/Angst)
 -----------------------------------------------------------------------------------
      2.94323     12.28690     10.06490         0.032775      0.017256     -0.003337
      0.68941      1.24420     10.06285         0.012792      0.008120     -0.001750
      1.41664      0.01800     10.06265        -0.096328     -0.043693     -0.000653
      3.55347      1.24635     10.06181        -0.048149      0.005123     -0.003130
      2.82903      2.47101     10.06072        -0.008703      0.037168     -0.007740
      0.69976      3.70150     10.06273         0.055342     -0.003257     -0.002674
      1.40187      2.47257     10.06336        -0.014073     -0.042986     -0.007051
      3.54875      3.68592     10.05376         0.110964     -0.012691     -0.000331
      2.85413      4.93039     10.05503         0.199053      0.060805     -0.003120
      0.76158      6.16074     10.06125        -0.155414     -0.053891     -0.001623
      1.44007      4.92137     10.06047         0.005521     -0.062822     -0.005048
      2.96589      7.32552     10.05791        -0.068592     -0.063058     -0.000882
      0.81391      8.60765     10.06115         0.025892      0.107415     -0.000739
      1.52971      7.37409     10.06069         0.176856      0.071735     -0.005581
      3.72927      8.58714     10.06187         0.032715      0.016226     -0.000939
      2.96696      9.81296     10.06353         0.007795      0.018242     -0.000852
      0.80352     11.06191     10.06163         0.005645      0.104260      0.000432
      1.53098      9.83132     10.06189        -0.020915     -0.082996      0.000658
      3.67074     11.05357     10.06531        -0.034535     -0.001165     -0.003870
      7.12624      0.07195     10.06358         0.139031      0.135847      0.000870
      4.97937      1.27863     10.06016         0.009042     -0.226557      0.000337
      5.70351      0.04506     10.06349        -0.132797      0.066463     -0.003661
      7.81806      1.33980     10.06335         0.003048     -0.221862     -0.000371
      7.09432      2.58324     10.06016         0.232604      0.284216      0.003975
      5.65554      2.55527     10.05476        -0.449151      0.562711      0.004336
      7.82294      3.84679     10.06530         0.018928     -0.176295     -0.007640
      7.25792      9.81482     10.06845         0.400374     -0.243444     -0.001904
      5.09972     11.05793     10.06593         0.034251      0.035868     -0.002891
      5.78183      9.78098     10.06625        -0.454975     -0.289477     -0.001398
      7.93274     11.10005     10.06648        -0.091752      0.014991      0.001093
     11.40947      0.12126     10.06618         0.025826      0.001566      0.005340
      9.25412      1.36277     10.06609         0.049362      0.050331      0.001204
      9.97435      0.12684     10.06521         0.032008     -0.059781      0.002638
     12.12200      1.35165     10.06881         0.002530     -0.030433      0.002746
     11.40729      2.58623     10.07024        -0.035399     -0.029992      0.000514
      9.27110      3.85781     10.07213         0.011450      0.021756     -0.011971
      9.97133      2.60901     10.06980        -0.001039     -0.124995     -0.002435
     12.13502      3.81079     10.07099        -0.029207      0.041028      0.003823
     11.44661      5.05366     10.07190         0.056738     -0.081533      0.007136
     10.00970      5.10005     10.07468        -0.178701      0.290390     -0.004341
     12.20676      6.26376     10.07075         0.107417     -0.051178      0.003445
     11.51376      7.49944     10.07064        -0.089955      0.195763      0.003024
      9.37265      8.71941     10.07135        -0.271195     -0.108811     -0.002273
     10.10283      7.49060     10.07368         0.011305     -0.358406      0.000656
     12.24818      8.71833     10.06836        -0.034862     -0.081504      0.003912
     11.52789      9.93890     10.06701         0.000401      0.054937      0.004669
      9.36528     11.15564     10.06627         0.076544     -0.059663      0.002276
     10.09492      9.93704     10.06761         0.035648      0.053954      0.002587
     12.23453     11.16983     10.06723         0.007695     -0.034280      0.002966
      3.60235      6.10309     10.05164        -0.787475      0.207867      0.015173
      4.92756      3.72447     10.04702        -0.138745     -1.264727      0.023785
      7.16913      5.01230     10.06208         0.018362     -0.336749      0.002433
      5.10001      8.59347     10.06382        -0.188089      0.808276     -0.003572
      7.98765      8.64679     10.07174         0.267668      1.274491     -0.004786
      9.37533      6.31997     10.07769         1.039300     -0.209436     -0.014469
      5.49463      5.62363     10.04272        -0.466414     -0.276226      0.006486
      7.51530      6.76050     10.07045         0.551582      0.085105      0.004519
 -----------------------------------------------------------------------------------
    total drift:                                0.002505      0.006674     -0.000319


--------------------------------------------------------------------------------------------------------



  FREE ENERGIE OF THE ION-ELECTRON SYSTEM (eV)
  ---------------------------------------------------
  free  energy   TOTEN  =      -598.38758160 eV

  energy  without entropy=     -598.38009964  energy(sigma->0) =     -598.38384062
 


--------------------------------------------------------------------------------------------------------


    POTLOK:  cpu time    3.3771: real time    3.3771


--------------------------------------------------------------------------------------------------------


 stress matrix after NEB project (eV)
    -40.67096     -0.51814      0.01231
     -0.51795    -41.48998      0.01896
      0.01154      0.01806     -0.39701
  FORCES: max atom, RMS     1.302305    0.386704
  FORCE total and by dimension    2.919552    1.274491
  Stress total and by dimension   58.105427   41.489978
 writing wavefunctions
     LOOP+:  cpu time69789.8062: real time69795.4933
    4ORBIT:  cpu time    0.0000: real time    0.0000
 


 total charge     
 
# of ion       s       p       d       tot
------------------------------------------
    1        0.864   1.778   0.000   2.642
    2        0.867   1.773   0.000   2.640
    3        0.867   1.778   0.000   2.644
    4        0.870   1.774   0.000   2.644
    5        0.870   1.789   0.000   2.659
    6        0.866   1.783   0.000   2.649
    7        0.869   1.786   0.000   2.655
    8        0.864   1.769   0.000   2.633
    9        0.862   1.753   0.000   2.616
   10        0.869   1.780   0.000   2.649
   11        0.872   1.791   0.000   2.663
   12        0.852   1.707   0.000   2.559
   13        0.867   1.775   0.000   2.642
   14        0.862   1.767   0.000   2.630
   15        0.850   1.714   0.000   2.564
   16        0.864   1.758   0.000   2.622
   17        0.866   1.770   0.000   2.636
   18        0.865   1.774   0.000   2.638
   19        0.869   1.757   0.000   2.626
   20        0.860   1.765   0.000   2.625
   21        0.863   1.764   0.000   2.627
   22        0.863   1.763   0.000   2.626
   23        0.860   1.738   0.000   2.598
   24        0.854   1.756   0.000   2.610
   25        0.856   1.715   0.000   2.571
   26        0.861   1.721   0.000   2.581
   27        0.852   1.694   0.000   2.546
   28        0.861   1.754   0.000   2.615
   29        0.851   1.706   0.000   2.557
   30        0.860   1.752   0.000   2.611
   31        0.865   1.774   0.000   2.639
   32        0.862   1.758   0.000   2.620
   33        0.863   1.764   0.000   2.627
   34        0.867   1.771   0.000   2.637
   35        0.865   1.770   0.000   2.634
   36        0.855   1.766   0.000   2.621
   37        0.862   1.748   0.000   2.611
   38        0.867   1.774   0.000   2.642
   39        0.866   1.773   0.000   2.639
   40        0.856   1.717   0.000   2.573
   41        0.869   1.783   0.000   2.652
   42        0.872   1.797   0.000   2.669
   43        0.862   1.756   0.000   2.618
   44        0.865   1.763   0.000   2.628
   45        0.867   1.780   0.000   2.647
   46        0.867   1.784   0.000   2.651
   47        0.868   1.763   0.000   2.631
   48        0.869   1.782   0.000   2.651
   49        0.867   1.772   0.000   2.638
   50        1.225   2.686   0.000   3.911
   51        1.233   2.665   0.000   3.898
   52        1.255   2.613   0.000   3.868
   53        1.245   2.603   0.000   3.849
   54        1.230   2.660   0.000   3.890
   55        1.229   2.679   0.000   3.908
   56        0.447   0.586   6.170   7.203
   57        0.471   0.565   7.275   8.311
--------------------------------------------------
tot         50.643 103.355  13.444 167.443
 


 magnetization (x)
 
# of ion       s       p       d       tot
------------------------------------------
    1        0.000   0.007   0.000   0.008
    2       -0.000  -0.003   0.000  -0.003
    3        0.000   0.005   0.000   0.006
    4       -0.000  -0.003   0.000  -0.003
    5        0.000  -0.001   0.000  -0.001
    6        0.000   0.005   0.000   0.005
    7        0.000  -0.000   0.000  -0.000
    8       -0.000   0.001   0.000   0.001
    9        0.001   0.007   0.000   0.009
   10       -0.000  -0.008   0.000  -0.008
   11       -0.000  -0.004   0.000  -0.005
   12        0.001   0.011   0.000   0.012
   13        0.000   0.007   0.000   0.007
   14       -0.000  -0.001   0.000  -0.001
   15       -0.001  -0.004   0.000  -0.004
   16        0.000   0.001   0.000   0.001
   17       -0.000  -0.003   0.000  -0.003
   18       -0.000  -0.000   0.000  -0.000
   19       -0.000  -0.003   0.000  -0.004
   20        0.001   0.012   0.000   0.013
   21        0.001   0.004   0.000   0.004
   22       -0.000  -0.002   0.000  -0.002
   23       -0.001  -0.007   0.000  -0.008
   24        0.000   0.006   0.000   0.006
   25       -0.001  -0.009   0.000  -0.010
   26        0.001   0.000   0.000   0.001
   27        0.002   0.022   0.000   0.024
   28        0.000   0.000   0.000   0.001
   29       -0.001  -0.006   0.000  -0.007
   30       -0.001  -0.006   0.000  -0.006
   31        0.000   0.001   0.000   0.001
   32        0.001   0.009   0.000   0.010
   33       -0.000   0.002   0.000   0.002
   34        0.000  -0.000   0.000  -0.000
   35       -0.000  -0.005   0.000  -0.006
   36        0.000   0.002   0.000   0.003
   37       -0.000  -0.003   0.000  -0.004
   38        0.000   0.005   0.000   0.006
   39       -0.001  -0.005   0.000  -0.006
   40        0.000   0.001   0.000   0.001
   41       -0.000  -0.004   0.000  -0.004
   42        0.000   0.001   0.000   0.001
   43        0.001  -0.003   0.000  -0.003
   44        0.001   0.006   0.000   0.007
   45        0.000   0.006   0.000   0.006
   46       -0.000  -0.004   0.000  -0.004
   47        0.000   0.003   0.000   0.003
   48       -0.000  -0.001   0.000  -0.001
   49        0.000   0.001   0.000   0.001
   50       -0.004  -0.023   0.000  -0.027
   51        0.007   0.043   0.000   0.050
   52       -0.005  -0.093   0.000  -0.099
   53        0.009   0.061   0.000   0.071
   54       -0.002  -0.006   0.000  -0.008
   55       -0.004  -0.047   0.000  -0.051
   56        0.066   0.041   2.992   3.099
   57       -0.006   0.027   1.612   1.632
--------------------------------------------------
tot          0.067   0.043   4.604   4.714
 

 total amount of memory used by VASP MPI-rank0   176463. kBytes
=======================================================================

   base      :      30000. kBytes
   nonl-proj :       5273. kBytes
   fftplans  :      13453. kBytes
   grid      :      34560. kBytes
   one-center:         62. kBytes
   HF        :         23. kBytes
   nonlr-proj:      16778. kBytes
   wavefun   :      76314. kBytes
 
  
  
 General timing and accounting informations for this job:
 ========================================================
  
                  Total CPU time used (sec):    69880.641
                            User time (sec):    69817.954
                          System time (sec):       62.683
                         Elapsed time (sec):    69887.442
  
                   Maximum memory used (kb):      419992.
                   Average memory used (kb):           0.
  
                          Minor page faults:       667123
                          Major page faults:            0
                 Voluntary context switches:         1304
