 vasp.5.4.4.18Apr17-6-g9f103f2a35 (build Feb 25 2019 10:51:38) complex          
  
 executed on             LinuxIFC date 2021.06.19  15:47:02
 running on   32 total cores
 distrk:  each k-point on   32 cores,    1 groups
 distr:  one band on NCORES_PER_BAND=  32 cores,    1 groups


--------------------------------------------------------------------------------------------------------


 INCAR:
 POTCAR:    PAW_PBE C 08Apr2002                   
 POTCAR:    PAW_PBE N 08Apr2002                   
 POTCAR:    PAW_PBE Ni 02Aug2007                  
 POTCAR:    PAW_PBE Fe 06Sep2000                  

 ----------------------------------------------------------------------------- 
|                                                                             |
|           W    W    AA    RRRRR   N    N  II  N    N   GGGG   !!!           |
|           W    W   A  A   R    R  NN   N  II  NN   N  G    G  !!!           |
|           W    W  A    A  R    R  N N  N  II  N N  N  G       !!!           |
|           W WW W  AAAAAA  RRRRR   N  N N  II  N  N N  G  GGG   !            |
|           WW  WW  A    A  R   R   N   NN  II  N   NN  G    G                |
|           W    W  A    A  R    R  N    N  II  N    N   GGGG   !!!           |
|                                                                             |
|      For optimal performance we recommend to set                            |
|        NCORE= 4 - approx SQRT( number of cores)                             |
|      NCORE specifies how many cores store one orbital (NPAR=cpu/NCORE).     |
|      This setting can  greatly improve the performance of VASP for DFT.     |
|      The default,   NCORE=1            might be grossly inefficient         |
|      on modern multi-core architectures or massively parallel machines.     |
|      Do your own testing !!!!                                               |
|      Unfortunately you need to use the default for GW and RPA calculations. |
|      (for HF NCORE is supported but not extensively tested yet)             |
|                                                                             |
 ----------------------------------------------------------------------------- 

 POTCAR:    PAW_PBE C 08Apr2002                   
   VRHFIN =C: s2p2                                                              
   LEXCH  = PE                                                                  
   EATOM  =   147.1560 eV,   10.8157 Ry                                         
                                                                                
   TITEL  = PAW_PBE C 08Apr2002                                                 
   LULTRA =        F    use ultrasoft PP ?                                      
   IUNSCR =        1    unscreen: 0-lin 1-nonlin 2-no                           
   RPACOR =    1.200    partial core radius                                     
   POMASS =   12.011; ZVAL   =    4.000    mass and valenz                      
   RCORE  =    1.500    outmost cutoff radius                                   
   RWIGS  =    1.630; RWIGS  =    0.863    wigner-seitz radius (au A)           
   ENMAX  =  400.000; ENMIN  =  300.000 eV                                      
   ICORE  =        2    local potential                                         
   LCOR   =        T    correct aug charges                                     
   LPAW   =        T    paw PP                                                  
   EAUG   =  644.873                                                            
   DEXC   =    0.000                                                            
   RMAX   =    1.529    core radius for proj-oper                               
   RAUG   =    1.300    factor for augmentation sphere                          
   RDEP   =    1.501    radius for radial grids                                 
   RDEPT  =    1.300    core radius for aug-charge                              
                                                                                
   Atomic configuration                                                         
    4 entries                                                                   
     n  l   j            E        occ.                                          
     1  0  0.50      -273.3789   2.0000                                         
     2  0  0.50       -13.7508   2.0000                                         
     2  1  0.50        -5.2854   2.0000                                         
     3  2  1.50        -5.4423   0.0000                                         
   Description                                                                  
     l       E           TYP  RCUT    TYP  RCUT                                 
     0    -13.7508458     23  1.200                                             
     0     -8.2022199     23  1.200                                             
     1     -5.2854383     23  1.500                                             
     1     34.0145650     23  1.500                                             
     2     -5.4423304      7  1.500                                             
  local pseudopotential read in
  partial core-charges read in
  partial kinetic energy density read in
  atomic valenz-charges read in
  non local Contribution for L=           0  read in
    real space projection operators read in
  non local Contribution for L=           0  read in
    real space projection operators read in
  non local Contribution for L=           1  read in
    real space projection operators read in
  non local Contribution for L=           1  read in
    real space projection operators read in
    PAW grid and wavefunctions read in
 
   number of l-projection  operators is LMAX  =           4
   number of lm-projection operators is LMMAX =           8
 
 POTCAR:    PAW_PBE N 08Apr2002                   
   VRHFIN =N: s2p3                                                              
   LEXCH  = PE                                                                  
   EATOM  =   264.5486 eV,   19.4438 Ry                                         
                                                                                
   TITEL  = PAW_PBE N 08Apr2002                                                 
   LULTRA =        F    use ultrasoft PP ?                                      
   IUNSCR =        1    unscreen: 0-lin 1-nonlin 2-no                           
   RPACOR =    1.200    partial core radius                                     
   POMASS =   14.001; ZVAL   =    5.000    mass and valenz                      
   RCORE  =    1.500    outmost cutoff radius                                   
   RWIGS  =    1.400; RWIGS  =    0.741    wigner-seitz radius (au A)           
   ENMAX  =  400.000; ENMIN  =  300.000 eV                                      
   ICORE  =        2    local potential                                         
   LCOR   =        T    correct aug charges                                     
   LPAW   =        T    paw PP                                                  
   EAUG   =  627.112                                                            
   DEXC   =    0.000                                                            
   RMAX   =    1.529    core radius for proj-oper                               
   RAUG   =    1.300    factor for augmentation sphere                          
   RDEP   =    1.514    radius for radial grids                                 
   RDEPT  =    1.338    core radius for aug-charge                              
                                                                                
   Atomic configuration                                                         
    4 entries                                                                   
     n  l   j            E        occ.                                          
     1  0  0.50      -384.7179   2.0000                                         
     2  0  0.50       -18.5828   2.0000                                         
     2  1  0.50        -7.0898   3.0000                                         
     3  2  1.50        -6.8029   0.0000                                         
   Description                                                                  
     l       E           TYP  RCUT    TYP  RCUT                                 
     0    -18.5828119     23  1.200                                             
     0    -13.5018863     23  1.200                                             
     1     -7.0897853     23  1.500                                             
     1      9.5240782     23  1.500                                             
     2     -6.8029130      7  1.500                                             
  local pseudopotential read in
  partial core-charges read in
  partial kinetic energy density read in
  atomic valenz-charges read in
  non local Contribution for L=           0  read in
    real space projection operators read in
  non local Contribution for L=           0  read in
    real space projection operators read in
  non local Contribution for L=           1  read in
    real space projection operators read in
  non local Contribution for L=           1  read in
    real space projection operators read in
    PAW grid and wavefunctions read in
 
   number of l-projection  operators is LMAX  =           4
   number of lm-projection operators is LMMAX =           8
 
 POTCAR:    PAW_PBE Ni 02Aug2007                  
   VRHFIN =Ni:                                                                  
   LEXCH  = PE                                                                  
   EATOM  =  1077.6739 eV,   79.2068 Ry                                         
                                                                                
   TITEL  = PAW_PBE Ni 02Aug2007                                                
   LULTRA =        F    use ultrasoft PP ?                                      
   IUNSCR =        1    unscreen: 0-lin 1-nonlin 2-no                           
   RPACOR =    2.000    partial core radius                                     
   POMASS =   58.690; ZVAL   =   10.000    mass and valenz                      
   RCORE  =    2.300    outmost cutoff radius                                   
   RWIGS  =    2.430; RWIGS  =    1.286    wigner-seitz radius (au A)           
   ENMAX  =  269.532; ENMIN  =  202.149 eV                                      
   RCLOC  =    1.201    cutoff for local pot                                    
   LCOR   =        T    correct aug charges                                     
   LPAW   =        T    paw PP                                                  
   EAUG   =  544.565                                                            
   DEXC   =    0.000                                                            
   RMAX   =    2.357    core radius for proj-oper                               
   RAUG   =    1.300    factor for augmentation sphere                          
   RDEP   =    2.390    radius for radial grids                                 
   RDEPT  =    1.838    core radius for aug-charge                              
                                                                                
   Atomic configuration                                                         
    9 entries                                                                   
     n  l   j            E        occ.                                          
     1  0  0.50     -8206.4253   2.0000                                         
     2  0  0.50      -976.1748   2.0000                                         
     2  1  1.50      -839.0571   6.0000                                         
     3  0  0.50      -105.9991   2.0000                                         
     3  1  1.50       -66.4603   6.0000                                         
     3  2  2.50        -4.6458   9.0000                                         
     4  0  0.50        -4.4926   1.0000                                         
     4  1  1.50        -4.0817   0.0000                                         
     4  3  2.50        -1.3606   0.0000                                         
   Description                                                                  
     l       E           TYP  RCUT    TYP  RCUT                                 
     2     -4.6457903     23  2.300                                             
     2     -6.0063729     23  2.300                                             
     0     -4.4925590     23  2.300                                             
     0      5.0102601     23  2.300                                             
     1     -2.7211652     23  2.300                                             
     1     16.5183231     23  2.300                                             
  local pseudopotential read in
  partial core-charges read in
  partial kinetic energy density read in
  atomic valenz-charges read in
  non local Contribution for L=           2  read in
    real space projection operators read in
  non local Contribution for L=           2  read in
    real space projection operators read in
  non local Contribution for L=           0  read in
    real space projection operators read in
  non local Contribution for L=           0  read in
    real space projection operators read in
  non local Contribution for L=           1  read in
    real space projection operators read in
  non local Contribution for L=           1  read in
    real space projection operators read in
    PAW grid and wavefunctions read in
 
   number of l-projection  operators is LMAX  =           6
   number of lm-projection operators is LMMAX =          18
 
 POTCAR:    PAW_PBE Fe 06Sep2000                  
   VRHFIN =Fe:  d7 s1                                                           
   LEXCH  = PE                                                                  
   EATOM  =   594.3153 eV,   43.6809 Ry                                         
                                                                                
   TITEL  = PAW_PBE Fe 06Sep2000                                                
   LULTRA =        F    use ultrasoft PP ?                                      
   IUNSCR =        1    unscreen: 0-lin 1-nonlin 2-no                           
   RPACOR =    2.000    partial core radius                                     
   POMASS =   55.847; ZVAL   =    8.000    mass and valenz                      
   RCORE  =    2.300    outmost cutoff radius                                   
   RWIGS  =    2.460; RWIGS  =    1.302    wigner-seitz radius (au A)           
   ENMAX  =  267.882; ENMIN  =  200.911 eV                                      
   RCLOC  =    1.701    cutoff for local pot                                    
   LCOR   =        T    correct aug charges                                     
   LPAW   =        T    paw PP                                                  
   EAUG   =  511.368                                                            
   DEXC   =    0.000                                                            
   RMAX   =    2.356    core radius for proj-oper                               
   RAUG   =    1.300    factor for augmentation sphere                          
   RDEP   =    2.442    radius for radial grids                                 
   RDEPT  =    1.890    core radius for aug-charge                              
                                                                                
   Atomic configuration                                                         
    9 entries                                                                   
     n  l   j            E        occ.                                          
     1  0  0.50     -6993.8440   2.0000                                         
     2  0  0.50      -814.6047   2.0000                                         
     2  1  1.50      -693.3689   6.0000                                         
     3  0  0.50       -89.4732   2.0000                                         
     3  1  1.50       -55.6373   6.0000                                         
     3  2  2.50        -3.8151   7.0000                                         
     4  0  0.50        -4.2551   1.0000                                         
     4  1  1.50        -3.4015   0.0000                                         
     4  3  2.50        -1.3606   0.0000                                         
   Description                                                                  
     l       E           TYP  RCUT    TYP  RCUT                                 
     2     -3.8151135     23  2.300                                             
     2     -5.1756961     23  2.300                                             
     0     -4.2550963     23  2.300                                             
     0      7.2035603     23  2.300                                             
     1     -2.7211652     23  2.300                                             
     1     18.4316424     23  2.300                                             
  local pseudopotential read in
  partial core-charges read in
  partial kinetic energy density read in
  atomic valenz-charges read in
  non local Contribution for L=           2  read in
    real space projection operators read in
  non local Contribution for L=           2  read in
    real space projection operators read in
  non local Contribution for L=           0  read in
    real space projection operators read in
  non local Contribution for L=           0  read in
    real space projection operators read in
  non local Contribution for L=           1  read in
    real space projection operators read in
  non local Contribution for L=           1  read in
    real space projection operators read in
    PAW grid and wavefunctions read in
 
   number of l-projection  operators is LMAX  =           6
   number of lm-projection operators is LMMAX =          18
 

 ----------------------------------------------------------------------------- 
|                                                                             |
|  ADVICE TO THIS USER RUNNING 'VASP/VAMP'   (HEAR YOUR MASTER'S VOICE ...):  |
|                                                                             |
|      You have a (more or less) 'large supercell' and for larger cells       |
|      it might be more efficient to use real space projection opertators     |
|      So try LREAL= Auto  in the INCAR   file.                               |
|      Mind:          For very  accurate calculation you might also keep the  |
|      reciprocal projection scheme          (i.e. LREAL=.FALSE.)             |
|                                                                             |
 ----------------------------------------------------------------------------- 

  PAW_PBE C 08Apr2002                   :
 energy of atom  1       EATOM= -147.1560
 kinetic energy error for atom=    0.0076 (will be added to EATOM!!)
  PAW_PBE N 08Apr2002                   :
 energy of atom  2       EATOM= -264.5486
 kinetic energy error for atom=    0.0138 (will be added to EATOM!!)
  PAW_PBE Ni 02Aug2007                  :
 energy of atom  3       EATOM=-1077.6739
 kinetic energy error for atom=    0.0030 (will be added to EATOM!!)
  PAW_PBE Fe 06Sep2000                  :
 energy of atom  4       EATOM= -594.3153
 kinetic energy error for atom=    0.0026 (will be added to EATOM!!)
 
 
 POSCAR:  C  N Ni Fe                             
  positions in cartesian coordinates
  No initial velocities read in
 exchange correlation table for  LEXCH =        8
   RHO(1)=    0.500       N(1)  =     2000
   RHO(2)=  100.500       N(2)  =     4000

 VTST: version 3.2, (02/03/18)

 CHAIN: initializing optimizer
 
 OPT: Using VASP Conjugate-Gradient optimizer
 CHAIN: Read ICHAIN            0
 
 POSCAR:  C  N Ni Fe                             
  positions in cartesian coordinates
  No initial velocities read in
 


--------------------------------------------------------------------------------------------------------


 ion  position               nearest neighbor table
   1  0.221  0.003  0.496-   3 1.43   4 1.43  19 1.43
   2  0.055  0.102  0.493-   3 1.43   7 1.43  38 1.44
   3  0.110  0.002  0.494-   2 1.43  17 1.43   1 1.43
   4  0.277  0.103  0.497-  21 1.43   1 1.43   5 1.44
   5  0.223  0.205  0.499-   7 1.44   4 1.44   8 1.44
   6  0.056  0.301  0.494-  11 1.43   7 1.43  42 1.43
   7  0.112  0.202  0.495-   6 1.43   2 1.43   5 1.44
   8  0.280  0.306  0.504-   5 1.44  25 1.46   9 1.47
   9  0.220  0.406  0.506-  55 1.37  11 1.43   8 1.47
  10  0.054  0.502  0.496-  46 1.42  14 1.43  11 1.43
  11  0.110  0.402  0.498-   6 1.43  10 1.43   9 1.43
  12  0.219  0.602  0.509-  55 1.38  14 1.42  15 1.45
  13  0.053  0.702  0.495-  18 1.42  50 1.43  14 1.43
  14  0.109  0.602  0.499-  12 1.42  10 1.43  13 1.43
  15  0.275  0.704  0.509-  58 1.38  16 1.43  12 1.45
  16  0.219  0.802  0.499-  18 1.43  15 1.43  19 1.43
  17  0.054  0.902  0.493-   3 1.43  18 1.43  54 1.43
  18  0.109  0.802  0.495-  13 1.42  16 1.43  17 1.43
  19  0.275  0.902  0.498-  32 1.43  16 1.43   1 1.43
  20  0.554  0.998  0.497-  22 1.43  23 1.43  34 1.44
  21  0.388  0.101  0.497-  26 1.43   4 1.43  22 1.43
  22  0.443  0.000  0.497-  32 1.43  20 1.43  21 1.43
  23  0.611  0.098  0.496-  36 1.43  20 1.43  24 1.43
  24  0.556  0.199  0.498-  26 1.43  27 1.43  23 1.43
  25  0.393  0.302  0.506-  56 1.37  26 1.43   8 1.46
  26  0.445  0.200  0.499-  21 1.43  24 1.43  25 1.43
  27  0.612  0.299  0.499-  40 1.43  24 1.43  28 1.43
  28  0.556  0.398  0.509-  56 1.37  27 1.43  29 1.45
  29  0.613  0.500  0.509-  57 1.38  44 1.42  28 1.45
  30  0.611  0.695  0.506-  57 1.38  48 1.43  31 1.46
  31  0.552  0.796  0.505-  34 1.45  33 1.46  30 1.46
  32  0.386  0.901  0.499-  22 1.43  19 1.43  33 1.43
  33  0.438  0.800  0.507-  58 1.38  32 1.43  31 1.46
  34  0.608  0.897  0.499-  52 1.44  20 1.44  31 1.45
  35  0.887  0.000  0.492-  54 1.43  38 1.43  37 1.44
  36  0.722  0.099  0.494-  37 1.43  41 1.43  23 1.43
  37  0.776  0.999  0.493-  36 1.43  52 1.43  35 1.44
  38  0.944  0.100  0.492-  39 1.43  35 1.43   2 1.44
  39  0.889  0.200  0.492-  38 1.43  42 1.43  41 1.43
  40  0.723  0.299  0.495-  45 1.42  27 1.43  41 1.43
  41  0.778  0.199  0.493-  40 1.43  36 1.43  39 1.43
  42  0.944  0.300  0.493-  39 1.43  43 1.43   6 1.43
  43  0.889  0.400  0.493-  46 1.42  45 1.43  42 1.43
  44  0.722  0.499  0.499-  29 1.42  49 1.43  45 1.43
  45  0.778  0.399  0.495-  40 1.42  43 1.43  44 1.43
  46  0.944  0.501  0.494-  10 1.42  43 1.42  47 1.43
  47  0.888  0.600  0.494-  49 1.42  50 1.43  46 1.43
  48  0.721  0.699  0.498-  53 1.43  49 1.43  30 1.43
  49  0.777  0.599  0.497-  47 1.42  44 1.43  48 1.43
  50  0.943  0.701  0.493-  47 1.43  13 1.43  51 1.43
  51  0.887  0.800  0.492-  54 1.43  50 1.43  53 1.43
  52  0.720  0.899  0.495-  53 1.43  37 1.43  34 1.44
  53  0.776  0.800  0.494-  48 1.43  52 1.43  51 1.43
  54  0.943  0.901  0.492-  35 1.43  51 1.43  17 1.43
  55  0.269  0.505  0.517-   9 1.37  12 1.38  59 1.95
  56  0.451  0.394  0.517-  25 1.37  28 1.37  59 1.94
  57  0.563  0.598  0.519-  30 1.38  29 1.38  60 2.00
  58  0.381  0.708  0.518-  33 1.38  15 1.38  60 1.99
  59  0.375  0.478  0.584-  56 1.94  55 1.95  60 2.16
  60  0.458  0.631  0.589-  58 1.99  57 2.00  59 2.16
 
  LATTYP: Found a triclinic cell.
 ALAT       =    12.3576000000
 B/A-ratio  =     1.9146223618
 C/A-ratio  =     1.0433012883
 COS(alpha) =     0.0036139151
 COS(beta)  =     0.0085136132
 COS(gamma) =     0.5382286193
  
  Lattice vectors:
  
 A1 = (  -0.1052078270,  12.3571521425,   0.0000000000)
 A2 = (  -0.0855057267,  12.7342965781, -19.9407240689)
 A3 = ( -12.8927000000,   0.0000000000,   0.0000000000)


Analysis of symmetry for initial positions (statically):
=====================================================================
 Subroutine PRICEL returns:
 Original cell was already a primitive cell.
 

 Routine SETGRP: Setting up the symmetry group for a 
 triclinic supercell.


 Subroutine GETGRP returns: Found  1 space group operations
 (whereof  1 operations were pure point group operations)
 out of a pool of  2 trial point group operations.


The static configuration has the point symmetry C_1 .


Analysis of symmetry for dynamics (positions and initial velocities):
=====================================================================
 Subroutine PRICEL returns:
 Original cell was already a primitive cell.
 

 Routine SETGRP: Setting up the symmetry group for a 
 triclinic supercell.


 Subroutine GETGRP returns: Found  1 space group operations
 (whereof  1 operations were pure point group operations)
 out of a pool of  2 trial point group operations.


The dynamic configuration has the point symmetry C_1 .


Analysis of structural, dynamic, and magnetic symmetry:
=====================================================================
 Subroutine PRICEL returns:
 Original cell was already a primitive cell.
 

 Routine SETGRP: Setting up the symmetry group for a 
 triclinic supercell.


 Subroutine GETGRP returns: Found  1 space group operations
 (whereof  1 operations were pure point group operations)
 out of a pool of  2 trial point group operations.


The magnetic configuration has the point symmetry C_1 .


 Subroutine INISYM returns: Found  1 space group operations
 (whereof  1 operations are pure point group operations),
 and found     1 'primitive' translations

 
 
 KPOINTS: KPOINTS created by Atomic Simulation Env

Automatic generation of k-mesh.
Space group operators:
 irot       det(A)        alpha          n_x          n_y          n_z        tau_x        tau_y        tau_z
    1     1.000000     0.000000     1.000000     0.000000     0.000000     0.000000     0.000000     0.000000
 
 Subroutine IBZKPT returns following result:
 ===========================================
 
 Found      2 irreducible k-points:
 
 Following reciprocal coordinates:
            Coordinates               Weight
  0.250000  0.250000  0.000000      2.000000
 -0.250000  0.250000  0.000000      2.000000
 
 Following cartesian coordinates:
            Coordinates               Weight
  0.019391  0.020396  0.000405      2.000000
 -0.019391  0.020066  0.000360      2.000000
 
 
 Subroutine IBZKPT_HF returns following result:
 ==============================================
 
 Found      4 k-points in 1st BZ
 the following      4 k-points will be used (e.g. in the exchange kernel)
 Following reciprocal coordinates:   # in IRBZ
  0.250000  0.250000  0.000000    0.25000000   1 t-inv F
 -0.250000  0.250000  0.000000    0.25000000   2 t-inv F
 -0.250000 -0.250000 -0.000000    0.25000000   1 t-inv T
  0.250000 -0.250000  0.000000    0.25000000   2 t-inv T


--------------------------------------------------------------------------------------------------------




 Dimension of arrays:
   k-points           NKPTS =      2   k-points in BZ     NKDIM =      4   number of bands    NBANDS=    162
   number of dos      NEDOS =    301   number of ions     NIONS =     60
   non local maximal  LDIM  =      6   non local SUM 2l+1 LMDIM =     18
   total plane-waves  NPLWV = ******
   max r-space proj   IRMAX =      1   max aug-charges    IRDMAX=  14730
   dimension x,y,z NGX =    96 NGY =   90 NGZ =  150
   dimension x,y,z NGXF=   192 NGYF=  180 NGZF=  300
   support grid    NGXF=   192 NGYF=  180 NGZF=  300
   ions per type =              54   4   1   1
   NGX,Y,Z   is equivalent  to a cutoff of  12.38, 12.11, 12.50 a.u.
   NGXF,Y,Z  is equivalent  to a cutoff of  24.76, 24.22, 25.01 a.u.

 SYSTEM =  unknown system                          
 POSCAR =   C  N Ni Fe                             

 Startparameter for this run:
   NWRITE =      2    write-flag & timer
   PREC   = accura    normal or accurate (medium, high low for compatibility)
   ISTART =      1    job   : 0-new  1-cont  2-samecut
   ICHARG =      0    charge: 1-file 2-atom 10-const
   ISPIN  =      2    spin polarized calculation?
   LNONCOLLINEAR =      F non collinear calculations
   LSORBIT =      F    spin-orbit coupling
   INIWAV =      1    electr: 0-lowe 1-rand  2-diag
   LASPH  =      T    aspherical Exc in radial PAW
   METAGGA=      F    non-selfconsistent MetaGGA calc.

 Electronic Relaxation 1
   ENCUT  =  500.0 eV  36.75 Ry    6.06 a.u.  23.51 22.53 36.36*2*pi/ulx,y,z
   ENINI  =  500.0     initial cutoff
   ENAUG  =  644.9 eV  augmentation charge cutoff
   NELM   =    250;   NELMIN=  2; NELMDL=  0     # of ELM steps 
   EDIFF  = 0.1E-03   stopping-criterion for ELM
   LREAL  =      F    real-space projection
   NLSPLINE    = F    spline interpolate recip. space projectors
   LCOMPAT=      F    compatible to vasp.4.4
   GGA_COMPAT  = T    GGA compatible to vasp.4.4-vasp.4.6
   LMAXPAW     = -100 max onsite density
   LMAXMIX     =    2 max onsite mixed and CHGCAR
   VOSKOWN=      0    Vosko Wilk Nusair interpolation
   ROPT   =    0.00000   0.00000   0.00000   0.00000
 Ionic relaxation
   EDIFFG = -.3E-01   stopping-criterion for IOM
   NSW    =      0    number of steps for IOM
   NBLOCK =      1;   KBLOCK =      1    inner block; outer block 
   IBRION =     -1    ionic relax: 0-MD 1-quasi-New 2-CG
   NFREE  =      1    steps in history (QN), initial steepest desc. (CG)
   ISIF   =      2    stress and relaxation
   IWAVPR =     10    prediction:  0-non 1-charg 2-wave 3-comb
   ISYM   =      3    0-nonsym 1-usesym 2-fastsym
   LCORR  =      T    Harris-Foulkes like correction to forces

   POTIM  = 0.5000    time-step for ionic-motion
   TEIN   =    0.0    initial temperature
   TEBEG  =    0.0;   TEEND  =   0.0 temperature during run
   SMASS  =  -3.00    Nose mass-parameter (am)
   estimated Nose-frequenzy (Omega)   =  0.10E-29 period in steps =****** mass=  -0.380E-26a.u.
   SCALEE = 1.0000    scale energy and forces
   NPACO  =    256;   APACO  = 16.0  distance and # of slots for P.C.
   PSTRESS=    0.0 pullay stress

  Mass of Ions in am
   POMASS =  12.01 14.00 58.69 55.85
  Ionic Valenz
   ZVAL   =   4.00  5.00 10.00  8.00
  Atomic Wigner-Seitz radii
   RWIGS  =  -1.00 -1.00 -1.00 -1.00
  virtual crystal weights 
   VCA    =   1.00  1.00  1.00  1.00
   NELECT =     254.0000    total number of electrons
   NUPDOWN=      -1.0000    fix difference up-down

 DOS related values:
   EMIN   =  10.00;   EMAX   =-10.00  energy-range for DOS
   EFERMI =   0.00
   ISMEAR =     0;   SIGMA  =   0.10  broadening in eV -4-tet -1-fermi 0-gaus

 Electronic relaxation 2 (details)
   IALGO  =     53    algorithm
   LDIAG  =      T    sub-space diagonalisation (order eigenvalues)
   LSUBROT=      F    optimize rotation matrix (better conditioning)
   TURBO    =      0    0=normal 1=particle mesh
   IRESTART =      0    0=no restart 2=restart with 2 vectors
   NREBOOT  =      0    no. of reboots
   NMIN     =      0    reboot dimension
   EREF     =   0.00    reference energy to select bands
   IMIX   =      4    mixing-type and parameters
     AMIX     =   0.40;   BMIX     =  1.00
     AMIX_MAG =   1.60;   BMIX_MAG =  1.00
     AMIN     =   0.10
     WC   =   100.;   INIMIX=   1;  MIXPRE=   1;  MAXMIX= -45

 Intra band minimization:
   WEIMIN = 0.0000     energy-eigenvalue tresh-hold
   EBREAK =  0.15E-06  absolut break condition
   DEPER  =   0.30     relativ break condition  

   TIME   =   0.20     timestep for ELM

  volume/ion in A,a.u.               =      52.95       357.31
  Fermi-wavevector in a.u.,A,eV,Ry     =   0.705264  1.332756  6.767500  0.497397
  Thomas-Fermi vector in A             =   1.790728
 
 Write flags
   LWAVE        =      T    write WAVECAR
   LDOWNSAMPLE  =      F    k-point downsampling of WAVECAR
   LCHARG       =      T    write CHGCAR
   LVTOT        =      F    write LOCPOT, total local potential
   LVHAR        =      F    write LOCPOT, Hartree potential only
   LELF         =      F    write electronic localiz. function (ELF)
   LORBIT       =     11    0 simple, 1 ext, 2 COOP (PROOUT), +10 PAW based schemes


 Dipole corrections
   LMONO  =      F    monopole corrections only (constant potential shift)
   LDIPOL =      T    correct potential (dipole corrections)
   IDIPOL =      3    1-x, 2-y, 3-z, 4-all directions 
   EPSILON=  1.0000000 bulk dielectric constant

 Exchange correlation treatment:
   GGA     =    PE    GGA type
   LEXCH   =     8    internal setting for exchange type
   VOSKOWN=      0    Vosko Wilk Nusair interpolation
   EXXOEP  =     0    0=HF, 1=EXX-LHF (local Hartree Fock) 2=EXX OEP
   LHFCALC =     T    Hartree Fock is set to
   LSYMGRAD=     F    symmetrize gradient (conserves proper symmetry)
   PRECFOCK=normal    Normal, Fast or Accurate (Low or Medium for compatibility)
   LRHFCALC=     F    long range Hartree Fock
   LRSCOR  =     F    long range correlation only (use DFT for short range part)
   LTHOMAS =     F    Thomas Fermi screening in HF
   LMODELHF=     F    short range full HF, long range fraction AEXX
   ENCUT4O =  -1.0   cutoff for four orbital integrals eV
   LMAXFOCK=     4    L truncation for augmentation on plane wave grid
   LMAXFOCKAE=  -1    L truncation for all-electron charge restoration on plane wave grid
   NMAXFOCKAE=   1    number of basis functions for all-electron charge restoration
   LFOCKAEDFT=     F  apply the AE augmentation even for DFT
   NKREDX  =     1    reduce k-point grid by
   NKREDY  =     1    reduce k-point grid by
   NKREDZ  =     1    reduce k-point grid by
   SHIFTRED=     F    shift reduced grid of Gamma
   HFKIDENT=     F    idential grid for each k-point
   ODDONLY =     F    use only odd q-grid points
   EVENONLY=     F    use only even q-grid points
   HFALPHA =   -1.0000 decay constant for conv. correction
   MCALPHA =    0.0000 extent of test-charge in conv. correction in multipole expansion
   AEXX    =    0.2500 exact exchange contribution
   HFSCREEN=    0.2000 screening length (either q_TF or 0.3 A-1)
   HFSCREENC=   0.2000 screening length for correlation (either q_TF or 0.3 A-1)
   HFRCUT  =    0.0000 spherical cutoff for potential kernel
   ALDAX   =    0.7500 LDA exchange part
   AGGAX   =    0.7500 GGA exchange part
   ALDAC   =    1.0000 LDA correlation
   AGGAC   =    1.0000 GGA correlation
   ENCUTFOCK=  -1.0 apply spherical cutoff to Coloumb kernel
   NBANDSGWLOW=     1    first orbital included in HF term
   NBLOCK_FOCK=    64    blocking factor in FOCK_ACC
 Linear response parameters
   LEPSILON=     F    determine dielectric tensor
   LRPA    =     F    only Hartree local field effects (RPA)
   LNABLA  =     F    use nabla operator in PAW spheres
   LVEL    =     F    velocity operator in full k-point grid
   LINTERFAST=   F  fast interpolation
   KINTER  =     0    interpolate to denser k-point grid
   CSHIFT  =0.1000    complex shift for real part using Kramers Kronig
   OMEGAMAX=  -1.0    maximum frequency
   DEG_THRESHOLD= 0.2000000E-02 threshold for treating states as degnerate
   RTIME   =   -0.100 relaxation time in fs
  (WPLASMAI=    0.000 imaginary part of plasma frequency in eV, 0.658/RTIME)
   DFIELD  = 0.0000000 0.0000000 0.0000000 field for delta impulse in time
 
 Orbital magnetization related:
   ORBITALMAG=     F  switch on orbital magnetization
   LCHIMAG   =     F  perturbation theory with respect to B field
   DQ        =  0.001000  dq finite difference perturbation B field
   LLRAUG    =     F  two centre corrections for induced B field



--------------------------------------------------------------------------------------------------------


 Static calculation
 charge density and potential will be updated during run
 spin polarized calculation
 Conjugate gradient for all bands (Freysoldt, et al. PRB 79, 241103 (2009))
 perform sub-space diagonalisation
    before iterative eigenvector-optimisation
 modified Broyden-mixing scheme, WC =      100.0
 initial mixing is a Kerker type mixing with AMIX =  0.4000 and BMIX =      1.0000
 Hartree-type preconditioning will be used
 using additional bands           35
 reciprocal scheme for non local part
 use partial core corrections
 no Harris-corrections to forces 
 use gradient corrections 
 use of overlap-Matrix (Vanderbilt PP)
 Gauss-broadening in eV      SIGMA  =   0.10


--------------------------------------------------------------------------------------------------------


  energy-cutoff  :      500.00
  volume of cell :     3176.90
      direct lattice vectors                 reciprocal lattice vectors
    12.892700000  0.000000000  0.000000000     0.077563272  0.000660368  0.000089125
    -0.105207827 12.357152143  0.000000000     0.000000000  0.080924795  0.001530553
    -0.019702100 -0.377144436 19.940724069     0.000000000  0.000000000  0.050148630

  length of vectors
    12.892700000 12.357600000 19.944300000     0.077566135  0.080939267  0.050148630


 
 old parameters found on file WAVECAR:
  energy-cutoff  :      500.00
  volume of cell :     3176.90
      direct lattice vectors                 reciprocal lattice vectors
    12.892700000  0.000000000  0.000000000     0.077563272  0.000660368  0.000089125
    -0.105207827 12.357152143  0.000000000     0.000000000  0.080924795  0.001530553
    -0.019702100 -0.377144436 19.940724069     0.000000000  0.000000000  0.050148630

  length of vectors

 
 k-points in units of 2pi/SCALE and weight: KPOINTS created by Atomic Simulation Env
   0.01939082  0.02039629  0.00040492       0.500
  -0.01939082  0.02006611  0.00036036       0.500
 
 k-points in reciprocal lattice and weights: KPOINTS created by Atomic Simulation Env
   0.25000000  0.25000000  0.00000000       0.500
  -0.25000000  0.25000000  0.00000000       0.500
 
 position of ions in fractional coordinates (direct lattice) 
   0.22082927  0.00252745  0.49558119
   0.05534161  0.10168408  0.49329510
   0.10987088  0.00174793  0.49391206
   0.27734559  0.10279542  0.49672346
   0.22339914  0.20450206  0.49857098
   0.05552103  0.30129754  0.49432140
   0.11184260  0.20216276  0.49528697
   0.27980572  0.30572242  0.50442731
   0.22045503  0.40636220  0.50580808
   0.05399740  0.50161728  0.49641031
   0.11006127  0.40215739  0.49752390
   0.21853599  0.60157794  0.50856602
   0.05336376  0.70178582  0.49471288
   0.10913095  0.60246721  0.49866512
   0.27484686  0.70399820  0.50890009
   0.21917018  0.80196039  0.49942399
   0.05377415  0.90158839  0.49299230
   0.10862799  0.80176192  0.49502525
   0.27543188  0.90223701  0.49788904
   0.55423390  0.99819004  0.49682011
   0.38827788  0.10062660  0.49650540
   0.44323161  0.00021984  0.49653089
   0.61071850  0.09840005  0.49560975
   0.55604502  0.19882554  0.49779599
   0.39317273  0.30159440  0.50612167
   0.44527684  0.19996384  0.49885927
   0.61228258  0.29910084  0.49941012
   0.55633900  0.39774397  0.50875390
   0.61294949  0.50000695  0.50907375
   0.61118128  0.69537933  0.50622096
   0.55170970  0.79570781  0.50502929
   0.38627414  0.90103403  0.49891044
   0.43849821  0.79993575  0.50655365
   0.60821107  0.89683867  0.49879936
   0.88749776  0.00025742  0.49203183
   0.72157320  0.09909156  0.49402725
   0.77617392  0.99914295  0.49330423
   0.94399697  0.10047838  0.49206771
   0.88857598  0.20005601  0.49219313
   0.72280776  0.29911568  0.49536810
   0.77770382  0.19920748  0.49324661
   0.94444200  0.30041070  0.49259157
   0.88872817  0.40004420  0.49322124
   0.72224579  0.49863242  0.49931002
   0.77803900  0.39908467  0.49517671
   0.94371525  0.50057996  0.49390462
   0.88767293  0.60019321  0.49391059
   0.72140261  0.69888956  0.49753845
   0.77745063  0.59932452  0.49672548
   0.94267168  0.70070162  0.49295378
   0.88699612  0.80033488  0.49238467
   0.71963862  0.89878419  0.49529424
   0.77597368  0.79952484  0.49419524
   0.94288014  0.90065782  0.49201134
   0.26859337  0.50474724  0.51680341
   0.45064516  0.39423917  0.51656139
   0.56301818  0.59781541  0.51865606
   0.38071137  0.70811868  0.51827134
   0.37507640  0.47790275  0.58363841
   0.45752627  0.63086363  0.58949259
 
 position of ions in cartesian coordinates  (Angst):
   2.83705559 -0.15567355  9.88224781
   0.69308581  1.07048215  9.83666156
   1.40661733 -0.16467681  9.84896407
   3.55513206  1.08292218  9.90502550
   2.84887993  2.33902978  9.94186632
   0.67437789  3.53674898  9.85712668
   1.41092576  2.31136128  9.87638078
   3.56534856  3.58761649 10.05864575
   2.78954266  4.83071681 10.08617937
   0.63361792  6.01134269  9.89878094
   1.36687462  4.78188173  9.92098679
   2.74420846  7.24198731 10.14117458
   0.60442276  8.48549593  9.86493308
   1.33378354  7.25671019  9.94374354
   3.45942559  8.50748406 10.14783620
   2.73148317  9.72159161  9.95887600
   0.58872685 10.95513555  9.83062351
   1.30640339  9.72079800  9.87116184
   3.44632870 10.96130395  9.92826787
   7.03076554 12.14741321  9.90695282
   4.98558126  1.05620398  9.90067717
   5.70464635 -0.18454725  9.90118543
   7.85369342  1.02902787  9.88281732
   7.13819603  2.26917648  9.92641241
   5.02735633  3.53596687 10.09243263
   5.70995436  2.28284160  9.94761512
   7.85266846  3.50768481  9.95859948
   7.12084250  4.72310908 10.14492105
   7.83993940  5.98666756 10.15129921
   7.79664396  8.40198971 10.09441245
   7.01936281  9.64221352 10.07064965
   4.87549125 10.94605335  9.94863539
   5.55928614  9.69388382 10.10104665
   7.73730101 10.89425250  9.94642039
  11.43252121 -0.18238612  9.81147098
   9.28286816  1.03816987  9.85126111
   9.89214072 12.16051446  9.83684346
  12.15040391  1.05604598  9.81218644
  11.42539883  2.28649466  9.81468730
   9.27771453  3.50939262  9.87799851
   9.99602583  2.27561188  9.83569457
  12.13509676  3.52644249  9.82263260
  11.40630035  4.75739144  9.83518868
   9.24940081  5.97336467  9.95660343
   9.97928054  4.74479689  9.87418216
  12.10464170  5.99946941  9.84881571
  11.37162464  7.23040314  9.84893476
   9.21749617  8.44864076  9.92127701
   9.95059758  7.21860699  9.90506565
  12.07015163  8.47276174  9.82985534
  11.34187233  9.70415979  9.81850693
   9.17376731 10.91961554  9.87652569
   9.91054290  9.69346708  9.85461087
  12.05182092 10.94400633  9.81106232
   3.39960833  6.04232889 10.30543427
   5.75837848  4.67685520 10.30060817
   7.18571103  7.19168767 10.34237735
   4.82368681  8.55486712 10.33470571
   4.77396944  5.68540096 11.63817254
   5.82076289  7.57335397 11.75490904
 


--------------------------------------------------------------------------------------------------------


 k-point  1 :   0.2500 0.2500 0.0000  plane waves:   80662
 k-point  2 :  -0.2500 0.2500 0.0000  plane waves:   80659

 maximum and minimum number of plane-waves per node :      2553     2478

 maximum number of plane-waves:     80662
 maximum index in each direction: 
   IXMAX=   23   IYMAX=   22   IZMAX=   36
   IXMIN=  -23   IYMIN=  -22   IZMIN=  -36


 parallel 3D FFT for wavefunctions:
    minimum data exchange during FFTs selected (reduces bandwidth)
 parallel 3D FFT for charge:
    minimum data exchange during FFTs selected (reduces bandwidth)


 FFT grid for exact exchange (Hartree Fock) 
  NGX = 72; NGY = 70; NGZ =112

 
 Radii for the augmentation spheres in the non-local exchange
 for species   1 augmentation radius   0.874 (default was   0.699)
       energy cutoff for augmentation   2000.0
 for species   2 augmentation radius   0.886 (default was   0.709)
       energy cutoff for augmentation   2000.0
 for species   3 augmentation radius   1.224 (default was   0.979)
       energy cutoff for augmentation   2000.0
 for species   4 augmentation radius   1.263 (default was   1.010)
       energy cutoff for augmentation   2000.0

 real space projection operators:
  total allocation   :       2567.80 KBytes
  max/ min on nodes  :        123.33         42.96

 Maximum index for augmentation-charges in exchange          154
  SETUP_FOCK is finished

 total amount of memory used by VASP MPI-rank0   165683. kBytes
=======================================================================

   base      :      30000. kBytes
   nonl-proj :       5408. kBytes
   fftplans  :      13453. kBytes
   grid      :      34560. kBytes
   one-center:         62. kBytes
   HF        :         23. kBytes
   nonlr-proj:       1711. kBytes
   wavefun   :      80466. kBytes
 
     INWAV:  cpu time    3.6451: real time    3.6455
 Broyden mixing: mesh for mixing (old mesh)
   NGX = 47   NGY = 45   NGZ = 73
  (NGX  =192   NGY  =180   NGZ  =300)
  gives a total of 154395 points

 charge density for first step will be calculated from the start-wavefunctions


--------------------------------------------------------------------------------------------------------


 Maximum index for augmentation-charges          492 (set IRDMAX)


--------------------------------------------------------------------------------------------------------


 initial charge from wavefunction
 First call to EWALD:  gamma=   0.121
 Maximum number of real-space cells 3x 3x 2
 Maximum number of reciprocal cells 2x 2x 4

    FEWALD:  cpu time    0.0033: real time    0.0033


--------------------------------------- Iteration      1(   1)  ---------------------------------------


    POTLOK:  cpu time    1.3244: real time    1.3248
    SETDIJ:  cpu time    2.0859: real time    2.0864
    TRIAL :  cpu time  572.1076: real time  572.3112
    CORREC:  cpu time    0.0023: real time    0.0025
    CHARGE:  cpu time    1.7359: real time    1.7362
    --------------------------------------------
      LOOP:  cpu time  577.2713: real time  577.4811

 eigenvalue-minimisations  :     0
 total energy-change (2. order) :-0.6244022E+03  (-0.6022061E+00)
 number of electron     254.0000016 magnetization       5.9268101
 augmentation part       16.4089585 magnetization       3.5248076

 DIPCOR: dipole corrections for dipol
 direction  3 min pos     1,
 dipolmoment           0.000036      0.000698     -0.036927 electrons x Angstroem
 Tr[quadrupol]     -7083.211236

 energy correction for charged system         0.000000 eV
 dipol+quadrupol energy correction           -0.000039 eV
 added-field ion interaction          0.058374 eV  (added to PSCEN)


 Free energy of the ion-electron system (eV)
  ---------------------------------------------------
  alpha Z        PSCENC =       106.60018920
  Ewald energy   TEWEN  =     41043.63470714
  -Hartree energ DENC   =    -50189.58968597
  -exchange      EXHF   =       578.21792074
  -V(xc)+E(xc)   XCENC  =       658.37707373
  PAW double counting   =     27495.98967211   -27597.18738721
  entropy T*S    EENTRO =        -0.01378457
  eigenvalues    EBANDS =     -3281.27339513
  atomic energy  EATOM  =     10560.85170134
  ---------------------------------------------------
  free energy    TOTEN  =      -624.40219267 eV

  energy without entropy =     -624.38840809  energy(sigma->0) =     -624.39530038
  exchange ACFDT corr.  =        -0.03275440  see jH, gK, PRB 81, 115126


--------------------------------------------------------------------------------------------------------




--------------------------------------- Iteration      1(   2)  ---------------------------------------


    POTLOK:  cpu time    1.3288: real time    1.3302
    SETDIJ:  cpu time    2.0807: real time    2.0808
    TRIAL :  cpu time  570.1756: real time  570.3462
    CORREC:  cpu time    0.0022: real time    0.0025
    CHARGE:  cpu time    1.7289: real time    1.7292
    --------------------------------------------
      LOOP:  cpu time  575.3202: real time  575.4937

 eigenvalue-minimisations  :     0
 total energy-change (2. order) :-0.4545054E+00  (-0.5088831E+00)
 number of electron     254.0000016 magnetization       5.9616344
 augmentation part       16.3971692 magnetization       3.6049397

 DIPCOR: dipole corrections for dipol
 direction  3 min pos     1,
 dipolmoment           0.000037      0.000701     -0.037083 electrons x Angstroem
 Tr[quadrupol]     -7083.065376

 energy correction for charged system         0.000000 eV
 dipol+quadrupol energy correction           -0.000039 eV
 added-field ion interaction          0.058620 eV  (added to PSCEN)


 Free energy of the ion-electron system (eV)
  ---------------------------------------------------
  alpha Z        PSCENC =       106.60043466
  Ewald energy   TEWEN  =     41043.63470714
  -Hartree energ DENC   =    -50179.05207631
  -exchange      EXHF   =       578.25698696
  -V(xc)+E(xc)   XCENC  =       658.14025088
  PAW double counting   =     27627.23474769   -27729.05519849
  entropy T*S    EENTRO =        -0.00858215
  eigenvalues    EBANDS =     -3291.45446736
  atomic energy  EATOM  =     10560.85170134
  ---------------------------------------------------
  free energy    TOTEN  =      -624.85669807 eV

  energy without entropy =     -624.84811592  energy(sigma->0) =     -624.85240700
  exchange ACFDT corr.  =        -0.00822221  see jH, gK, PRB 81, 115126


--------------------------------------------------------------------------------------------------------




--------------------------------------- Iteration      1(   3)  ---------------------------------------


    POTLOK:  cpu time    1.3296: real time    1.3297
    SETDIJ:  cpu time    2.0810: real time    2.0813
    TRIAL :  cpu time  568.9464: real time  569.1176
    CORREC:  cpu time    0.0022: real time    0.0022
    CHARGE:  cpu time    1.7229: real time    1.7232
    --------------------------------------------
      LOOP:  cpu time  574.0840: real time  574.2560

 eigenvalue-minimisations  :     0
 total energy-change (2. order) :-0.3862285E+00  (-0.2990764E+00)
 number of electron     254.0000016 magnetization       5.9802385
 augmentation part       16.3819744 magnetization       3.6661668

 DIPCOR: dipole corrections for dipol
 direction  3 min pos     1,
 dipolmoment           0.000049      0.000932     -0.049298 electrons x Angstroem
 Tr[quadrupol]     -7082.921959

 energy correction for charged system         0.000000 eV
 dipol+quadrupol energy correction           -0.000070 eV
 added-field ion interaction          0.077929 eV  (added to PSCEN)


 Free energy of the ion-electron system (eV)
  ---------------------------------------------------
  alpha Z        PSCENC =       106.61971415
  Ewald energy   TEWEN  =     41043.63470714
  -Hartree energ DENC   =    -50163.86980303
  -exchange      EXHF   =       578.27983966
  -V(xc)+E(xc)   XCENC  =       657.77443814
  PAW double counting   =     27793.17071765   -27894.60843534
  entropy T*S    EENTRO =        -0.00529018
  eigenvalues    EBANDS =     -3307.08722408
  atomic energy  EATOM  =     10560.85170134
  ---------------------------------------------------
  free energy    TOTEN  =      -625.24292653 eV

  energy without entropy =     -625.23763634  energy(sigma->0) =     -625.24028143
  exchange ACFDT corr.  =        -0.00393573  see jH, gK, PRB 81, 115126


--------------------------------------------------------------------------------------------------------




--------------------------------------- Iteration      1(   4)  ---------------------------------------


    POTLOK:  cpu time    1.3304: real time    1.3308
    SETDIJ:  cpu time    2.0859: real time    2.0860
    TRIAL :  cpu time  566.4128: real time  566.5494
    CORREC:  cpu time    0.0021: real time    0.0023
    CHARGE:  cpu time    1.7154: real time    1.7156
    --------------------------------------------
      LOOP:  cpu time  571.5487: real time  571.6863

 eigenvalue-minimisations  :     0
 total energy-change (2. order) :-0.2305633E+00  (-0.1839401E+00)
 number of electron     254.0000016 magnetization       5.9897200
 augmentation part       16.3823105 magnetization       3.6992628

 DIPCOR: dipole corrections for dipol
 direction  3 min pos     1,
 dipolmoment           0.000078      0.001498     -0.079207 electrons x Angstroem
 Tr[quadrupol]     -7082.902817

 energy correction for charged system         0.000000 eV
 dipol+quadrupol energy correction           -0.000180 eV
 added-field ion interaction          0.125209 eV  (added to PSCEN)


 Free energy of the ion-electron system (eV)
  ---------------------------------------------------
  alpha Z        PSCENC =       106.66688413
  Ewald energy   TEWEN  =     41043.63470714
  -Hartree energ DENC   =    -50156.36405783
  -exchange      EXHF   =       578.47563521
  -V(xc)+E(xc)   XCENC  =       657.61462623
  PAW double counting   =     27937.53240748   -28038.59965318
  entropy T*S    EENTRO =        -0.00321637
  eigenvalues    EBANDS =     -3315.28045015
  atomic energy  EATOM  =     10560.85170134
  ---------------------------------------------------
  free energy    TOTEN  =      -625.47348981 eV

  energy without entropy =     -625.47027344  energy(sigma->0) =     -625.47188163
  exchange ACFDT corr.  =        -0.00217980  see jH, gK, PRB 81, 115126


--------------------------------------------------------------------------------------------------------




--------------------------------------- Iteration      1(   5)  ---------------------------------------


    POTLOK:  cpu time    1.3302: real time    1.3304
    SETDIJ:  cpu time    2.0829: real time    2.0830
    TRIAL :  cpu time  565.7126: real time  565.8454
    CORREC:  cpu time    0.0021: real time    0.0025
    CHARGE:  cpu time    1.7140: real time    1.7142
    --------------------------------------------
      LOOP:  cpu time  570.8439: real time  570.9773

 eigenvalue-minimisations  :     0
 total energy-change (2. order) :-0.1475139E+00  (-0.1237563E+00)
 number of electron     254.0000016 magnetization       5.9945172
 augmentation part       16.3906447 magnetization       3.7136773

 DIPCOR: dipole corrections for dipol
 direction  3 min pos     1,
 dipolmoment           0.000099      0.001902     -0.100575 electrons x Angstroem
 Tr[quadrupol]     -7082.970846

 energy correction for charged system         0.000000 eV
 dipol+quadrupol energy correction           -0.000289 eV
 added-field ion interaction          0.158988 eV  (added to PSCEN)


 Free energy of the ion-electron system (eV)
  ---------------------------------------------------
  alpha Z        PSCENC =       106.70055250
  Ewald energy   TEWEN  =     41043.63470714
  -Hartree energ DENC   =    -50157.47229612
  -exchange      EXHF   =       578.81100864
  -V(xc)+E(xc)   XCENC  =       657.67500941
  PAW double counting   =     28042.90673022   -28144.03418363
  entropy T*S    EENTRO =        -0.00194552
  eigenvalues    EBANDS =     -3314.69101686
  atomic energy  EATOM  =     10560.85170134
  ---------------------------------------------------
  free energy    TOTEN  =      -625.62100373 eV

  energy without entropy =     -625.61905821  energy(sigma->0) =     -625.62003097
  exchange ACFDT corr.  =        -0.00121101  see jH, gK, PRB 81, 115126


--------------------------------------------------------------------------------------------------------




--------------------------------------- Iteration      1(   6)  ---------------------------------------


    POTLOK:  cpu time    1.3317: real time    1.3318
    SETDIJ:  cpu time    2.1124: real time    2.1126
    TRIAL :  cpu time  564.7838: real time  564.9096
    CORREC:  cpu time    0.0022: real time    0.0024
    CHARGE:  cpu time    1.7128: real time    1.7130
    --------------------------------------------
      LOOP:  cpu time  569.9450: real time  570.0716

 eigenvalue-minimisations  :     0
 total energy-change (2. order) :-0.1032024E+00  (-0.8796470E-01)
 number of electron     254.0000016 magnetization       5.9969740
 augmentation part       16.3974540 magnetization       3.7187695

 DIPCOR: dipole corrections for dipol
 direction  3 min pos     1,
 dipolmoment           0.000108      0.002066     -0.109209 electrons x Angstroem
 Tr[quadrupol]     -7083.057227

 energy correction for charged system         0.000000 eV
 dipol+quadrupol energy correction           -0.000341 eV
 added-field ion interaction          0.172637 eV  (added to PSCEN)


 Free energy of the ion-electron system (eV)
  ---------------------------------------------------
  alpha Z        PSCENC =       106.71414976
  Ewald energy   TEWEN  =     41043.63470714
  -Hartree energ DENC   =    -50161.81778989
  -exchange      EXHF   =       579.15687391
  -V(xc)+E(xc)   XCENC  =       657.81121314
  PAW double counting   =     28111.21430497   -28212.49365644
  entropy T*S    EENTRO =        -0.00118583
  eigenvalues    EBANDS =     -3310.79376453
  atomic energy  EATOM  =     10560.85170134
  ---------------------------------------------------
  free energy    TOTEN  =      -625.72420612 eV

  energy without entropy =     -625.72302029  energy(sigma->0) =     -625.72361320
  exchange ACFDT corr.  =        -0.00067621  see jH, gK, PRB 81, 115126


--------------------------------------------------------------------------------------------------------




--------------------------------------- Iteration      1(   7)  ---------------------------------------


    POTLOK:  cpu time    1.3293: real time    1.3293
    SETDIJ:  cpu time    2.0819: real time    2.0821
    TRIAL :  cpu time  565.1592: real time  565.2916
    CORREC:  cpu time    0.0019: real time    0.0022
    CHARGE:  cpu time    1.7152: real time    1.7154
    --------------------------------------------
      LOOP:  cpu time  570.2896: real time  570.4227

 eigenvalue-minimisations  :     0
 total energy-change (2. order) :-0.7476762E-01  (-0.6259100E-01)
 number of electron     254.0000016 magnetization       5.9982516
 augmentation part       16.4010566 magnetization       3.7199439

 DIPCOR: dipole corrections for dipol
 direction  3 min pos     1,
 dipolmoment           0.000112      0.002140     -0.113138 electrons x Angstroem
 Tr[quadrupol]     -7083.125822

 energy correction for charged system         0.000000 eV
 dipol+quadrupol energy correction           -0.000366 eV
 added-field ion interaction          0.178848 eV  (added to PSCEN)


 Free energy of the ion-electron system (eV)
  ---------------------------------------------------
  alpha Z        PSCENC =       106.72033611
  Ewald energy   TEWEN  =     41043.63470714
  -Hartree energ DENC   =    -50165.73937979
  -exchange      EXHF   =       579.43596290
  -V(xc)+E(xc)   XCENC  =       657.93152749
  PAW double counting   =     28151.40992948   -28252.75971603
  entropy T*S    EENTRO =        -0.00074042
  eigenvalues    EBANDS =     -3307.28285655
  atomic energy  EATOM  =     10560.85170134
  ---------------------------------------------------
  free energy    TOTEN  =      -625.79897374 eV

  energy without entropy =     -625.79823331  energy(sigma->0) =     -625.79860353
  exchange ACFDT corr.  =        -0.00038399  see jH, gK, PRB 81, 115126


--------------------------------------------------------------------------------------------------------




--------------------------------------- Iteration      1(   8)  ---------------------------------------


    POTLOK:  cpu time    1.3323: real time    1.3324
    SETDIJ:  cpu time    2.0851: real time    2.0852
    TRIAL :  cpu time  565.1919: real time  565.3367
    CORREC:  cpu time    0.0020: real time    0.0022
    CHARGE:  cpu time    1.7161: real time    1.7162
    --------------------------------------------
      LOOP:  cpu time  570.3294: real time  570.4748

 eigenvalue-minimisations  :     0
 total energy-change (2. order) :-0.5429767E-01  (-0.4569887E-01)
 number of electron     254.0000016 magnetization       5.9989290
 augmentation part       16.4034553 magnetization       3.7204539

 DIPCOR: dipole corrections for dipol
 direction  3 min pos     1,
 dipolmoment           0.000116      0.002222     -0.117481 electrons x Angstroem
 Tr[quadrupol]     -7083.169498

 energy correction for charged system         0.000000 eV
 dipol+quadrupol energy correction           -0.000395 eV
 added-field ion interaction          0.185713 eV  (added to PSCEN)


 Free energy of the ion-electron system (eV)
  ---------------------------------------------------
  alpha Z        PSCENC =       106.72717211
  Ewald energy   TEWEN  =     41043.63470714
  -Hartree energ DENC   =    -50168.23955744
  -exchange      EXHF   =       579.63451999
  -V(xc)+E(xc)   XCENC  =       658.01259668
  PAW double counting   =     28172.83022559   -28274.21956365
  entropy T*S    EENTRO =        -0.00048094
  eigenvalues    EBANDS =     -3305.08433274
  atomic energy  EATOM  =     10560.85170134
  ---------------------------------------------------
  free energy    TOTEN  =      -625.85327141 eV

  energy without entropy =     -625.85279046  energy(sigma->0) =     -625.85303094
  exchange ACFDT corr.  =        -0.00022548  see jH, gK, PRB 81, 115126


--------------------------------------------------------------------------------------------------------




--------------------------------------- Iteration      1(   9)  ---------------------------------------


    POTLOK:  cpu time    1.3252: real time    1.3253
    SETDIJ:  cpu time    2.0822: real time    2.0825
    TRIAL :  cpu time  563.7910: real time  563.9249
    CORREC:  cpu time    0.0021: real time    0.0024
    CHARGE:  cpu time    1.7109: real time    1.7110
    --------------------------------------------
      LOOP:  cpu time  568.9132: real time  569.0479

 eigenvalue-minimisations  :     0
 total energy-change (2. order) :-0.4028436E-01  (-0.3393305E-01)
 number of electron     254.0000016 magnetization       5.9992986
 augmentation part       16.4058780 magnetization       3.7219035

 DIPCOR: dipole corrections for dipol
 direction  3 min pos     1,
 dipolmoment           0.000121      0.002321     -0.122696 electrons x Angstroem
 Tr[quadrupol]     -7083.194494

 energy correction for charged system         0.000000 eV
 dipol+quadrupol energy correction           -0.000431 eV
 added-field ion interaction          0.193956 eV  (added to PSCEN)


 Free energy of the ion-electron system (eV)
  ---------------------------------------------------
  alpha Z        PSCENC =       106.73537980
  Ewald energy   TEWEN  =     41043.63470714
  -Hartree energ DENC   =    -50169.56432805
  -exchange      EXHF   =       579.76944354
  -V(xc)+E(xc)   XCENC  =       658.06085741
  PAW double counting   =     28183.19818903   -28284.65333971
  entropy T*S    EENTRO =        -0.00032848
  eigenvalues    EBANDS =     -3303.92568533
  atomic energy  EATOM  =     10560.85170134
  ---------------------------------------------------
  free energy    TOTEN  =      -625.89355576 eV

  energy without entropy =     -625.89322729  energy(sigma->0) =     -625.89339153
  exchange ACFDT corr.  =        -0.00013904  see jH, gK, PRB 81, 115126


--------------------------------------------------------------------------------------------------------




--------------------------------------- Iteration      1(  10)  ---------------------------------------


    POTLOK:  cpu time    1.3223: real time    1.3224
    SETDIJ:  cpu time    2.0843: real time    2.0845
    TRIAL :  cpu time  564.4470: real time  564.5798
    CORREC:  cpu time    0.0020: real time    0.0023
    CHARGE:  cpu time    1.7146: real time    1.7148
    --------------------------------------------
      LOOP:  cpu time  569.5723: real time  569.7059

 eigenvalue-minimisations  :     0
 total energy-change (2. order) :-0.3023794E-01  (-0.2547762E-01)
 number of electron     254.0000016 magnetization       5.9995084
 augmentation part       16.4080191 magnetization       3.7241333

 DIPCOR: dipole corrections for dipol
 direction  3 min pos     1,
 dipolmoment           0.000126      0.002417     -0.127770 electrons x Angstroem
 Tr[quadrupol]     -7083.209629

 energy correction for charged system         0.000000 eV
 dipol+quadrupol energy correction           -0.000467 eV
 added-field ion interaction          0.201977 eV  (added to PSCEN)


 Free energy of the ion-electron system (eV)
  ---------------------------------------------------
  alpha Z        PSCENC =       106.74336418
  Ewald energy   TEWEN  =     41043.63470714
  -Hartree energ DENC   =    -50170.18814489
  -exchange      EXHF   =       579.86308127
  -V(xc)+E(xc)   XCENC  =       658.08833719
  PAW double counting   =     28187.76929140   -28289.30933072
  entropy T*S    EENTRO =        -0.00023688
  eigenvalues    EBANDS =     -3303.37647214
  atomic energy  EATOM  =     10560.85170134
  ---------------------------------------------------
  free energy    TOTEN  =      -625.92379371 eV

  energy without entropy =     -625.92355683  energy(sigma->0) =     -625.92367527
  exchange ACFDT corr.  =        -0.00009096  see jH, gK, PRB 81, 115126


--------------------------------------------------------------------------------------------------------




--------------------------------------- Iteration      1(  11)  ---------------------------------------


    POTLOK:  cpu time    1.3246: real time    1.3246
    SETDIJ:  cpu time    2.0810: real time    2.0812
    TRIAL :  cpu time  565.3836: real time  565.5191
    CORREC:  cpu time    0.0019: real time    0.0022
    CHARGE:  cpu time    1.7117: real time    1.7118
    --------------------------------------------
      LOOP:  cpu time  570.5054: real time  570.6415

 eigenvalue-minimisations  :     0
 total energy-change (2. order) :-0.2290491E-01  (-0.1927563E-01)
 number of electron     254.0000016 magnetization       5.9996334
 augmentation part       16.4094588 magnetization       3.7263181

 DIPCOR: dipole corrections for dipol
 direction  3 min pos     1,
 dipolmoment           0.000130      0.002495     -0.131910 electrons x Angstroem
 Tr[quadrupol]     -7083.220944

 energy correction for charged system         0.000000 eV
 dipol+quadrupol energy correction           -0.000498 eV
 added-field ion interaction          0.208522 eV  (added to PSCEN)


 Free energy of the ion-electron system (eV)
  ---------------------------------------------------
  alpha Z        PSCENC =       106.74987809
  Ewald energy   TEWEN  =     41043.63470714
  -Hartree energ DENC   =    -50170.47258084
  -exchange      EXHF   =       579.93223186
  -V(xc)+E(xc)   XCENC  =       658.10445718
  PAW double counting   =     28189.52131944   -28291.13586583
  entropy T*S    EENTRO =        -0.00017999
  eigenvalues    EBANDS =     -3303.13231012
  atomic energy  EATOM  =     10560.85170134
  ---------------------------------------------------
  free energy    TOTEN  =      -625.94669862 eV

  energy without entropy =     -625.94651863  energy(sigma->0) =     -625.94660862
  exchange ACFDT corr.  =        -0.00006334  see jH, gK, PRB 81, 115126


--------------------------------------------------------------------------------------------------------




--------------------------------------- Iteration      1(  12)  ---------------------------------------


    POTLOK:  cpu time    1.3242: real time    1.3243
    SETDIJ:  cpu time    2.0837: real time    2.0839
    TRIAL :  cpu time  565.0403: real time  565.1688
    CORREC:  cpu time    0.0020: real time    0.0023
    CHARGE:  cpu time    1.7101: real time    1.7102
    --------------------------------------------
      LOOP:  cpu time  570.1629: real time  570.2921

 eigenvalue-minimisations  :     0
 total energy-change (2. order) :-0.1746049E-01  (-0.1468854E-01)
 number of electron     254.0000016 magnetization       5.9997116
 augmentation part       16.4102995 magnetization       3.7279395

 DIPCOR: dipole corrections for dipol
 direction  3 min pos     1,
 dipolmoment           0.000133      0.002553     -0.134963 electrons x Angstroem
 Tr[quadrupol]     -7083.231081

 energy correction for charged system         0.000000 eV
 dipol+quadrupol energy correction           -0.000521 eV
 added-field ion interaction          0.213349 eV  (added to PSCEN)


 Free energy of the ion-electron system (eV)
  ---------------------------------------------------
  alpha Z        PSCENC =       106.75468180
  Ewald energy   TEWEN  =     41043.63470714
  -Hartree energ DENC   =    -50170.63879321
  -exchange      EXHF   =       579.98714019
  -V(xc)+E(xc)   XCENC  =       658.11534889
  PAW double counting   =     28190.10630225   -28291.77332572
  entropy T*S    EENTRO =        -0.00014324
  eigenvalues    EBANDS =     -3303.00174180
  atomic energy  EATOM  =     10560.85170134
  ---------------------------------------------------
  free energy    TOTEN  =      -625.96415911 eV

  energy without entropy =     -625.96401587  energy(sigma->0) =     -625.96408749
  exchange ACFDT corr.  =        -0.00004680  see jH, gK, PRB 81, 115126


--------------------------------------------------------------------------------------------------------




--------------------------------------- Iteration      1(  13)  ---------------------------------------


    POTLOK:  cpu time    1.3198: real time    1.3200
    SETDIJ:  cpu time    2.0793: real time    2.0796
    TRIAL :  cpu time  565.6541: real time  565.7912
    CORREC:  cpu time    0.0020: real time    0.0023
    CHARGE:  cpu time    1.7099: real time    1.7101
    --------------------------------------------
      LOOP:  cpu time  570.7676: real time  570.9057

 eigenvalue-minimisations  :     0
 total energy-change (2. order) :-0.1340416E-01  (-0.1129351E-01)
 number of electron     254.0000016 magnetization       5.9997629
 augmentation part       16.4108665 magnetization       3.7289822

 DIPCOR: dipole corrections for dipol
 direction  3 min pos     1,
 dipolmoment           0.000136      0.002596     -0.137255 electrons x Angstroem
 Tr[quadrupol]     -7083.240588

 energy correction for charged system         0.000000 eV
 dipol+quadrupol energy correction           -0.000539 eV
 added-field ion interaction          0.216971 eV  (added to PSCEN)


 Free energy of the ion-electron system (eV)
  ---------------------------------------------------
  alpha Z        PSCENC =       106.75828606
  Ewald energy   TEWEN  =     41043.63470714
  -Hartree energ DENC   =    -50170.79871926
  -exchange      EXHF   =       580.03326907
  -V(xc)+E(xc)   XCENC  =       658.12434982
  PAW double counting   =     28190.49395006   -28292.19842901
  entropy T*S    EENTRO =        -0.00011854
  eigenvalues    EBANDS =     -3302.87653525
  atomic energy  EATOM  =     10560.85170134
  ---------------------------------------------------
  free energy    TOTEN  =      -625.97756327 eV

  energy without entropy =     -625.97744473  energy(sigma->0) =     -625.97750400
  exchange ACFDT corr.  =        -0.00003642  see jH, gK, PRB 81, 115126


--------------------------------------------------------------------------------------------------------




--------------------------------------- Iteration      1(  14)  ---------------------------------------


    POTLOK:  cpu time    1.3187: real time    1.3188
    SETDIJ:  cpu time    2.0697: real time    2.0802
    TRIAL :  cpu time  566.0370: real time  566.1580
    CORREC:  cpu time    0.0020: real time    0.0020
    CHARGE:  cpu time    1.7120: real time    1.7123
    --------------------------------------------
      LOOP:  cpu time  571.1418: real time  571.2736

 eigenvalue-minimisations  :     0
 total energy-change (2. order) :-0.1037195E-01  (-0.8757284E-02)
 number of electron     254.0000016 magnetization       5.9997978
 augmentation part       16.4114018 magnetization       3.7296811

 DIPCOR: dipole corrections for dipol
 direction  3 min pos     1,
 dipolmoment           0.000138      0.002634     -0.139244 electrons x Angstroem
 Tr[quadrupol]     -7083.249301

 energy correction for charged system         0.000000 eV
 dipol+quadrupol energy correction           -0.000555 eV
 added-field ion interaction          0.220116 eV  (added to PSCEN)


 Free energy of the ion-electron system (eV)
  ---------------------------------------------------
  alpha Z        PSCENC =       106.76141571
  Ewald energy   TEWEN  =     41043.63470714
  -Hartree energ DENC   =    -50170.98140474
  -exchange      EXHF   =       580.07311223
  -V(xc)+E(xc)   XCENC  =       658.13255502
  PAW double counting   =     28191.20978539   -28292.94544870
  entropy T*S    EENTRO =        -0.00010135
  eigenvalues    EBANDS =     -3302.72424008
  atomic energy  EATOM  =     10560.85170134
  ---------------------------------------------------
  free energy    TOTEN  =      -625.98793522 eV

  energy without entropy =     -625.98783388  energy(sigma->0) =     -625.98788455
  exchange ACFDT corr.  =        -0.00002960  see jH, gK, PRB 81, 115126


--------------------------------------------------------------------------------------------------------




--------------------------------------- Iteration      1(  15)  ---------------------------------------


    POTLOK:  cpu time    1.3146: real time    1.3150
    SETDIJ:  cpu time    2.0786: real time    2.0788
    TRIAL :  cpu time  564.9027: real time  565.0592
    CORREC:  cpu time    0.0020: real time    0.0023
    CHARGE:  cpu time    1.7115: real time    1.7115
    --------------------------------------------
      LOOP:  cpu time  570.0122: real time  570.1695

 eigenvalue-minimisations  :     0
 total energy-change (2. order) :-0.8089302E-02  (-0.6857199E-02)
 number of electron     254.0000017 magnetization       5.9998223
 augmentation part       16.4119325 magnetization       3.7301834

 DIPCOR: dipole corrections for dipol
 direction  3 min pos     1,
 dipolmoment           0.000139      0.002669     -0.141114 electrons x Angstroem
 Tr[quadrupol]     -7083.257074

 energy correction for charged system         0.000000 eV
 dipol+quadrupol energy correction           -0.000570 eV
 added-field ion interaction          0.223073 eV  (added to PSCEN)


 Free energy of the ion-electron system (eV)
  ---------------------------------------------------
  alpha Z        PSCENC =       106.76435708
  Ewald energy   TEWEN  =     41043.63470714
  -Hartree energ DENC   =    -50171.17529569
  -exchange      EXHF   =       580.10782655
  -V(xc)+E(xc)   XCENC  =       658.14000997
  PAW double counting   =     28192.42573896   -28294.18975681
  entropy T*S    EENTRO =        -0.00008906
  eigenvalues    EBANDS =     -3302.55521172
  atomic energy  EATOM  =     10560.85170134
  ---------------------------------------------------
  free energy    TOTEN  =      -625.99602453 eV

  energy without entropy =     -625.99593547  energy(sigma->0) =     -625.99598000
  exchange ACFDT corr.  =        -0.00002494  see jH, gK, PRB 81, 115126


--------------------------------------------------------------------------------------------------------




--------------------------------------- Iteration      1(  16)  ---------------------------------------


    POTLOK:  cpu time    1.3170: real time    1.3172
    SETDIJ:  cpu time    2.0793: real time    2.0793
    TRIAL :  cpu time  565.1559: real time  565.2014
    CORREC:  cpu time    0.0019: real time    0.0022
    CHARGE:  cpu time    1.7089: real time    1.7089
    --------------------------------------------
      LOOP:  cpu time  570.2652: real time  570.3112

 eigenvalue-minimisations  :     0
 total energy-change (2. order) :-0.6369256E-02  (-0.5426736E-02)
 number of electron     254.0000017 magnetization       5.9998399
 augmentation part       16.4123516 magnetization       3.7304778

 DIPCOR: dipole corrections for dipol
 direction  3 min pos     1,
 dipolmoment           0.000141      0.002700     -0.142781 electrons x Angstroem
 Tr[quadrupol]     -7083.263906

 energy correction for charged system         0.000000 eV
 dipol+quadrupol energy correction           -0.000583 eV
 added-field ion interaction          0.225708 eV  (added to PSCEN)


 Free energy of the ion-electron system (eV)
  ---------------------------------------------------
  alpha Z        PSCENC =       106.76697848
  Ewald energy   TEWEN  =     41043.63470714
  -Hartree energ DENC   =    -50171.36280739
  -exchange      EXHF   =       580.13810706
  -V(xc)+E(xc)   XCENC  =       658.14660662
  PAW double counting   =     28194.00502719   -28295.79421115
  entropy T*S    EENTRO =        -0.00008010
  eigenvalues    EBANDS =     -3302.38841402
  atomic energy  EATOM  =     10560.85170134
  ---------------------------------------------------
  free energy    TOTEN  =      -626.00239378 eV

  energy without entropy =     -626.00231368  energy(sigma->0) =     -626.00235373
  exchange ACFDT corr.  =        -0.00002165  see jH, gK, PRB 81, 115126


--------------------------------------------------------------------------------------------------------




--------------------------------------- Iteration      1(  17)  ---------------------------------------


    POTLOK:  cpu time    1.3157: real time    1.3157
    SETDIJ:  cpu time    2.0814: real time    2.0814
    TRIAL :  cpu time  563.8649: real time  563.9639
    CORREC:  cpu time    0.0019: real time    0.0021
    CHARGE:  cpu time    1.7098: real time    1.7099
    --------------------------------------------
      LOOP:  cpu time  568.9762: real time  569.0754

 eigenvalue-minimisations  :     0
 total energy-change (2. order) :-0.5067140E-02  (-0.4345415E-02)
 number of electron     254.0000017 magnetization       5.9998527
 augmentation part       16.4126063 magnetization       3.7305514

 DIPCOR: dipole corrections for dipol
 direction  3 min pos     1,
 dipolmoment           0.000142      0.002726     -0.144128 electrons x Angstroem
 Tr[quadrupol]     -7083.269732

 energy correction for charged system         0.000000 eV
 dipol+quadrupol energy correction           -0.000594 eV
 added-field ion interaction          0.227837 eV  (added to PSCEN)


 Free energy of the ion-electron system (eV)
  ---------------------------------------------------
  alpha Z        PSCENC =       106.76909679
  Ewald energy   TEWEN  =     41043.63470714
  -Hartree energ DENC   =    -50171.52736343
  -exchange      EXHF   =       580.16434646
  -V(xc)+E(xc)   XCENC  =       658.15222438
  PAW double counting   =     28195.66800685   -28297.47806860
  entropy T*S    EENTRO =        -0.00007347
  eigenvalues    EBANDS =     -3302.24203175
  atomic energy  EATOM  =     10560.85170134
  ---------------------------------------------------
  free energy    TOTEN  =      -626.00746092 eV

  energy without entropy =     -626.00738745  energy(sigma->0) =     -626.00742419
  exchange ACFDT corr.  =        -0.00001929  see jH, gK, PRB 81, 115126


--------------------------------------------------------------------------------------------------------




--------------------------------------- Iteration      1(  18)  ---------------------------------------


    POTLOK:  cpu time    1.3136: real time    1.3138
    SETDIJ:  cpu time    2.1086: real time    2.1088
    TRIAL :  cpu time  565.4173: real time  565.5529
    CORREC:  cpu time    0.0020: real time    0.0023
    CHARGE:  cpu time    1.7141: real time    1.7144
    --------------------------------------------
      LOOP:  cpu time  570.5584: real time  570.6949

 eigenvalue-minimisations  :     0
 total energy-change (2. order) :-0.4078580E-02  (-0.3525998E-02)
 number of electron     254.0000017 magnetization       5.9998621
 augmentation part       16.4127801 magnetization       3.7304838

 DIPCOR: dipole corrections for dipol
 direction  3 min pos     1,
 dipolmoment           0.000143      0.002745     -0.145157 electrons x Angstroem
 Tr[quadrupol]     -7083.274546

 energy correction for charged system         0.000000 eV
 dipol+quadrupol energy correction           -0.000603 eV
 added-field ion interaction          0.229463 eV  (added to PSCEN)


 Free energy of the ion-electron system (eV)
  ---------------------------------------------------
  alpha Z        PSCENC =       106.77071444
  Ewald energy   TEWEN  =     41043.63470714
[...]


 VOLUME and BASIS-vectors are now :
 -----------------------------------------------------------------------------
  energy-cutoff  :      500.00
  volume of cell :     3176.90
      direct lattice vectors                 reciprocal lattice vectors
    12.892700000  0.000000000  0.000000000     0.077563272  0.000660368  0.000089125
    -0.105207827 12.357152143  0.000000000     0.000000000  0.080924795  0.001530553
    -0.019702100 -0.377144436 19.940724069     0.000000000  0.000000000  0.050148630

  length of vectors
    12.892700000 12.357600000 19.944300000     0.077566135  0.080939267  0.050148630


 FORCES acting on ions:
    Electron-Ion                     Ewald-Force                    Non-Local-Force
 -----------------------------------------------------------------------------------------------
   0.699E+01 -.448E+01 0.264E+02   -.730E+01 0.480E+01 -.265E+02   0.288E+00 -.262E+00 0.883E-01
   0.579E+01 0.723E+00 0.255E+02   -.574E+01 -.733E+00 -.256E+02   -.419E-01 -.102E-01 0.509E-01
   0.549E+01 -.234E+01 0.241E+02   -.562E+01 0.234E+01 -.240E+02   0.124E+00 -.582E-02 -.852E-01
   0.848E+01 0.405E+01 0.252E+02   -.868E+01 -.403E+01 -.252E+02   0.181E+00 -.654E-01 -.831E-01
   0.108E+02 0.149E+02 0.219E+02   -.109E+02 -.147E+02 -.219E+02   0.196E-01 -.207E+00 0.465E-01
   0.112E+02 0.114E+02 0.341E+02   -.113E+02 -.117E+02 -.342E+02   0.213E-01 0.377E+00 0.135E+00
   0.661E+01 0.106E+02 0.245E+02   -.650E+01 -.108E+02 -.244E+02   -.144E-01 0.126E+00 -.820E-01
   0.214E+02 0.341E+02 0.273E+02   -.215E+02 -.341E+02 -.278E+02   0.825E-01 0.950E-02 0.469E+00
   0.431E+02 0.557E+02 0.431E+02   -.445E+02 -.583E+02 -.441E+02   0.146E+01 0.280E+01 0.907E+00
   0.200E+02 0.221E+01 0.331E+02   -.203E+02 -.222E+01 -.329E+02   0.249E+00 -.114E-01 -.151E+00
   0.247E+02 0.154E+02 0.402E+02   -.250E+02 -.158E+02 -.403E+02   0.253E+00 0.260E+00 0.116E+00
   0.364E+02 -.441E+02 0.217E+02   -.380E+02 0.467E+02 -.221E+02   0.140E+01 -.258E+01 0.388E+00
   0.127E+02 -.617E+01 0.359E+02   -.128E+02 0.651E+01 -.359E+02   0.740E-01 -.219E+00 0.151E-01
   0.269E+02 -.120E+02 0.362E+02   -.268E+02 0.124E+02 -.361E+02   0.119E+00 -.295E+00 0.727E-01
   0.496E+02 -.133E+02 0.201E+02   -.529E+02 0.131E+02 -.208E+02   0.330E+01 0.290E+00 0.744E+00
   0.209E+02 -.185E+02 0.325E+02   -.214E+02 0.183E+02 -.326E+02   0.439E+00 0.579E-01 0.137E+00
   0.657E+01 -.626E+01 0.302E+02   -.666E+01 0.636E+01 -.303E+02   0.381E-02 -.794E-01 0.721E-01
   0.111E+02 -.117E+02 0.334E+02   -.115E+02 0.117E+02 -.334E+02   0.318E+00 -.519E-01 -.377E-04
   0.114E+02 -.182E+02 0.281E+02   -.115E+02 0.184E+02 -.279E+02   0.258E+00 -.254E+00 -.171E+00
   -.793E+01 -.138E+01 0.247E+02   0.814E+01 0.140E+01 -.246E+02   -.177E+00 0.232E-01 -.811E-01
   0.270E+01 0.101E+02 0.344E+02   -.297E+01 -.103E+02 -.345E+02   0.272E+00 0.154E+00 0.124E+00
   -.346E+01 -.669E+01 0.342E+02   0.370E+01 0.689E+01 -.343E+02   -.254E+00 -.192E+00 0.116E+00
   -.721E+01 0.626E+01 0.266E+02   0.751E+01 -.655E+01 -.266E+02   -.279E+00 0.231E+00 0.843E-01
   -.134E+02 0.206E+02 0.294E+02   0.135E+02 -.208E+02 -.292E+02   -.211E+00 0.225E+00 -.150E+00
   0.263E+02 0.657E+02 0.438E+02   -.280E+02 -.683E+02 -.448E+02   0.183E+01 0.277E+01 0.916E+00
   -.929E+00 0.269E+02 0.387E+02   0.866E+00 -.273E+02 -.389E+02   0.106E+00 0.326E+00 0.161E+00
   -.238E+02 0.180E+02 0.334E+02   0.242E+02 -.179E+02 -.335E+02   -.423E+00 -.658E-01 0.145E+00
   -.593E+02 0.996E+01 0.224E+02   0.625E+02 -.985E+01 -.229E+02   -.315E+01 -.252E+00 0.423E+00
   -.345E+02 0.340E+02 0.183E+02   0.360E+02 -.366E+02 -.190E+02   -.137E+01 0.267E+01 0.691E+00
   -.325E+02 -.515E+02 0.372E+02   0.339E+02 0.538E+02 -.383E+02   -.149E+01 -.266E+01 0.118E+01
   -.175E+02 -.269E+02 0.197E+02   0.177E+02 0.270E+02 -.202E+02   -.179E+00 -.880E-01 0.469E+00
   -.750E+00 -.221E+02 0.383E+02   0.744E+00 0.226E+02 -.385E+02   -.483E-01 -.383E+00 0.178E+00
   -.282E+02 -.539E+02 0.376E+02   0.298E+02 0.566E+02 -.388E+02   -.176E+01 -.281E+01 0.125E+01
   -.886E+01 -.103E+02 0.200E+02   0.900E+01 0.102E+02 -.200E+02   -.502E-01 0.104E+00 0.555E-01
   0.918E+00 -.212E+01 0.274E+02   -.885E+00 0.219E+01 -.275E+02   -.152E-01 -.292E-01 0.271E-01
   -.581E+01 0.339E+01 0.237E+02   0.593E+01 -.338E+01 -.236E+02   -.108E+00 -.120E-01 -.889E-01
   -.525E+01 0.409E+00 0.256E+02   0.522E+01 -.385E+00 -.256E+02   0.156E-01 -.104E-01 0.580E-01
   -.415E+00 0.283E+01 0.274E+02   0.414E+00 -.290E+01 -.274E+02   -.107E-01 0.182E-01 0.326E-01
   -.105E+01 0.489E+01 0.292E+02   0.971E+00 -.495E+01 -.293E+02   -.127E-01 0.834E-01 0.181E-01
   -.119E+02 0.112E+02 0.318E+02   0.123E+02 -.112E+02 -.318E+02   -.310E+00 0.438E-01 -.119E-01
   -.667E+01 0.669E+01 0.291E+02   0.677E+01 -.677E+01 -.292E+02   -.181E-01 0.643E-01 0.675E-01
   0.168E+01 0.640E+01 0.329E+02   -.170E+01 -.650E+01 -.329E+02   0.345E-01 0.103E+00 0.385E-01
   -.145E+01 0.608E+01 0.338E+02   0.147E+01 -.606E+01 -.338E+02   -.139E-01 -.167E-01 0.351E-01
   -.255E+02 0.918E+01 0.320E+02   0.255E+02 -.957E+01 -.320E+02   -.122E+00 0.306E+00 0.432E-01
   -.123E+02 0.491E+01 0.338E+02   0.124E+02 -.526E+01 -.338E+02   -.818E-01 0.215E+00 0.202E-01
   0.533E+01 0.314E+00 0.330E+02   -.537E+01 -.329E+00 -.330E+02   0.154E+00 -.512E-01 0.222E-01
   -.369E+01 -.115E+01 0.329E+02   0.376E+01 0.114E+01 -.329E+02   -.163E+00 0.787E-01 0.292E-01
   -.203E+02 -.148E+02 0.404E+02   0.207E+02 0.152E+02 -.405E+02   -.299E+00 -.232E+00 0.173E+00
   -.171E+02 -.326E+01 0.309E+02   0.175E+02 0.327E+01 -.308E+02   -.268E+00 0.422E-01 -.162E+00
   0.270E+01 -.650E+01 0.349E+02   -.273E+01 0.649E+01 -.349E+02   0.213E-02 0.150E-01 0.337E-01
   -.618E+00 -.621E+01 0.336E+02   0.651E+00 0.631E+01 -.336E+02   -.553E-01 -.114E+00 0.402E-01
   -.542E+01 -.858E+01 0.244E+02   0.533E+01 0.878E+01 -.243E+02   -.100E-01 -.126E+00 -.738E-01
   -.886E+01 -.106E+02 0.347E+02   0.893E+01 0.108E+02 -.348E+02   -.549E-01 -.363E+00 0.148E+00
   0.157E+01 -.443E+01 0.298E+02   -.148E+01 0.450E+01 -.299E+02   0.264E-02 -.849E-01 0.181E-01
   0.144E+02 -.211E+02 0.378E+02   0.854E+01 0.222E+02 -.352E+02   -.215E+02 -.125E+01 -.240E+01
   -.245E+02 0.661E+00 0.430E+02   0.137E+02 0.198E+02 -.407E+02   0.101E+02 -.193E+02 -.209E+01
   0.433E+01 0.584E+01 0.112E+01   -.274E+02 -.714E+01 0.264E+01   0.219E+02 0.146E+01 -.389E+01
   0.152E+01 0.855E+01 0.639E+01   0.892E+01 -.290E+02 -.323E+01   -.982E+01 0.194E+02 -.334E+01
   0.701E+02 0.125E+03 -.945E+03   -.688E+02 -.122E+03 0.939E+03   -.219E+01 -.452E+01 0.595E+01
   -.843E+02 -.150E+03 -.794E+03   0.817E+02 0.145E+03 0.790E+03   0.312E+01 0.586E+01 0.467E+01
 -----------------------------------------------------------------------------------------------
   -.188E+01 -.186E+01 -.778E+01   0.000E+00 -.313E-12 -.568E-12   0.155E+01 0.149E+01 0.761E+01
 
 
 POSITION                                       TOTAL-FORCE (eV/Angst)
 -----------------------------------------------------------------------------------
      2.83706     -0.15567      9.88225        -0.008128      0.036129      0.004480
      0.69309      1.07048      9.83666         0.004297     -0.024662      0.002239
      1.40662     -0.16468      9.84896         0.001506     -0.000483     -0.005015
      3.55513      1.08292      9.90503        -0.013330     -0.058001      0.004003
      2.84888      2.33903      9.94187        -0.082883     -0.017197      0.010902
      0.67438      3.53675      9.85713        -0.020583      0.094803      0.030116
      1.41093      2.31136      9.87638         0.086871     -0.049922      0.003508
      3.56535      3.58762     10.05865        -0.016942     -0.041477      0.044800
      2.78954      4.83072     10.08618         0.119122      0.374266      0.012815
      0.63362      6.01134      9.89878        -0.116504     -0.029827      0.015199
      1.36687      4.78188      9.92099        -0.027441     -0.079400      0.009362
      2.74421      7.24199     10.14117        -0.180390     -0.099111     -0.005255
      0.60442      8.48550      9.86493         0.009582      0.113483      0.009106
      1.33378      7.25671      9.94374         0.176700      0.064819      0.087285
      3.45943      8.50748     10.14784         0.134404      0.127763      0.066266
      2.73148      9.72159      9.95888        -0.020372     -0.092388      0.040714
      0.58873     10.95514      9.83062        -0.079943      0.011811      0.006799
      1.30640      9.72080      9.87116        -0.048621     -0.073213      0.013161
      3.44633     10.96130      9.92827         0.088223     -0.026364      0.015008
      7.03077     12.14741      9.90695         0.018488      0.046951      0.005660
      4.98558      1.05620      9.90068         0.014871     -0.001650      0.032323
      5.70465     -0.18455      9.90119        -0.023829     -0.003248      0.026980
      7.85369      1.02903      9.88282         0.004569     -0.041405      0.004202
      7.13820      2.26918      9.92641        -0.066930      0.021938      0.020376
      5.02736      3.53597     10.09243         0.215563      0.321056      0.024788
      5.70995      2.28284      9.94762         0.048264     -0.051765      0.000908
      7.85267      3.50768      9.95860         0.001770      0.113212      0.049835
      7.12084      4.72311     10.14492        -0.070276     -0.167849      0.003058
      7.83994      5.98667     10.15130         0.107105      0.183243      0.070342
      7.79664      8.40199     10.09441        -0.120503     -0.468961      0.081820
      7.01936      9.64221     10.07065         0.036099      0.080588      0.018203
      4.87549     10.94605      9.94864        -0.056557      0.086850      0.024619
      5.55929      9.69388     10.10105        -0.283264     -0.333859      0.094657
      7.73730     10.89425      9.94642         0.081012     -0.001465      0.020508
     11.43252     -0.18239      9.81147         0.020512      0.039824      0.009083
      9.28287      1.03817      9.85126         0.013965     -0.002359     -0.007793
      9.89214     12.16051      9.83684        -0.016883      0.016294      0.003430
     12.15040      1.05605      9.81219        -0.015938     -0.044378      0.012742
     11.42540      2.28649      9.81469        -0.087044      0.032460      0.010269
      9.27771      3.50939      9.87800         0.053948      0.067897      0.008946
      9.99603      2.27561      9.83569         0.078565     -0.006983      0.000679
     12.13510      3.52644      9.82263         0.019034      0.010516      0.018583
     11.40630      4.75739      9.83519         0.009323     -0.003358      0.013618
      9.24940      5.97336      9.95660        -0.194525     -0.066324      0.050450
      9.97928      4.74480      9.87418         0.010863     -0.122209      0.002944
     12.10464      5.99947      9.84882         0.122086     -0.072211      0.016156
     11.37162      7.23040      9.84893        -0.102611      0.081082      0.016832
      9.21750      8.44864      9.92128         0.074839      0.092845      0.023973
      9.95060      7.21861      9.90507         0.087534      0.050196      0.008922
     12.07015      8.47276      9.82986        -0.028062     -0.001317      0.012082
     11.34187      9.70416      9.81851        -0.023839     -0.020399      0.017533
      9.17377     10.91962      9.87653        -0.091521      0.065112      0.005008
      9.91054      9.69347      9.85461         0.007193     -0.101207      0.031209
     12.05182     10.94401      9.81106         0.089724     -0.019888      0.006985
      3.39961      6.04233     10.30543        -0.444242     -0.230875     -0.066238
      5.75838      4.67686     10.30061         0.149556     -0.528672     -0.032145
      7.18571      7.19169     10.34238         0.733032      0.288219     -0.462841
      4.82369      8.55487     10.33471        -0.228336      0.725635     -0.475738
      4.77397      5.68540     11.63817        -0.550088     -0.913786     -0.204712
      5.82076      7.57335     11.75491         0.400963      0.649219      0.136252
 -----------------------------------------------------------------------------------
    total drift:                                0.000707      0.045098      0.002481


--------------------------------------------------------------------------------------------------------



  FREE ENERGIE OF THE ION-ELECTRON SYSTEM (eV)
  ---------------------------------------------------
  free  energy   TOTEN  =      -626.04180123 eV

  energy  without entropy=     -626.04174681  energy(sigma->0) =     -626.04177402
 


--------------------------------------------------------------------------------------------------------


    POTLOK:  cpu time    3.3850: real time    3.3852


--------------------------------------------------------------------------------------------------------


 stress matrix after NEB project (eV)
    -45.10612     -0.87080     -0.15187
     -0.87702    -42.16931     -0.33541
     -0.15243     -0.33586     -0.83715
  FORCES: max atom, RMS     1.086052    0.296729
  FORCE total and by dimension    2.298455    0.913786
  Stress total and by dimension   61.768217   45.106124
 writing wavefunctions
     LOOP+:  cpu time38339.4605: real time38346.4174
    4ORBIT:  cpu time    0.0000: real time    0.0000
 


 total charge     
 
# of ion       s       p       d       tot
------------------------------------------
    1        0.864   1.764   0.000   2.627
    2        0.864   1.758   0.000   2.623
    3        0.865   1.772   0.000   2.637
    4        0.862   1.757   0.000   2.619
    5        0.859   1.736   0.000   2.595
    6        0.865   1.765   0.000   2.630
    7        0.861   1.761   0.000   2.623
    8        0.846   1.741   0.000   2.588
    9        0.857   1.704   0.000   2.561
   10        0.867   1.766   0.000   2.633
   11        0.866   1.772   0.000   2.638
   12        0.855   1.732   0.000   2.587
   13        0.865   1.776   0.000   2.641
   14        0.867   1.772   0.000   2.639
   15        0.855   1.728   0.000   2.583
   16        0.866   1.771   0.000   2.638
   17        0.866   1.767   0.000   2.632
   18        0.866   1.777   0.000   2.643
   19        0.866   1.758   0.000   2.624
   20        0.862   1.758   0.000   2.620
   21        0.865   1.765   0.000   2.629
   22        0.865   1.764   0.000   2.629
   23        0.864   1.765   0.000   2.629
   24        0.867   1.758   0.000   2.625
   25        0.858   1.708   0.000   2.566
   26        0.866   1.774   0.000   2.640
   27        0.866   1.771   0.000   2.637
   28        0.856   1.729   0.000   2.585
   29        0.854   1.729   0.000   2.583
   30        0.857   1.703   0.000   2.560
   31        0.846   1.743   0.000   2.589
   32        0.866   1.773   0.000   2.639
   33        0.857   1.707   0.000   2.564
   34        0.859   1.736   0.000   2.595
   35        0.864   1.763   0.000   2.627
   36        0.865   1.772   0.000   2.637
   37        0.864   1.759   0.000   2.623
   38        0.864   1.763   0.000   2.627
   39        0.866   1.768   0.000   2.634
   40        0.866   1.777   0.000   2.643
   41        0.865   1.767   0.000   2.633
   42        0.865   1.765   0.000   2.630
   43        0.867   1.766   0.000   2.633
   44        0.867   1.772   0.000   2.639
   45        0.865   1.776   0.000   2.641
   46        0.865   1.777   0.000   2.643
   47        0.865   1.776   0.000   2.642
   48        0.866   1.772   0.000   2.638
   49        0.867   1.766   0.000   2.634
   50        0.867   1.766   0.000   2.633
   51        0.865   1.765   0.000   2.630
   52        0.861   1.761   0.000   2.622
   53        0.865   1.765   0.000   2.630
   54        0.866   1.769   0.000   2.634
   55        1.231   2.677   0.000   3.908
   56        1.234   2.678   0.000   3.912
   57        1.233   2.674   0.000   3.907
   58        1.236   2.680   0.000   3.915
   59        0.465   0.369   8.381   9.215
   60        0.448   0.370   6.106   6.924
--------------------------------------------------
tot         52.446 106.373  14.487 173.306
 


 magnetization (x)
 
# of ion       s       p       d       tot
------------------------------------------
    1        0.000   0.001   0.000   0.001
    2       -0.000  -0.000   0.000  -0.000
    3        0.000   0.002   0.000   0.002
    4        0.000   0.002   0.000   0.002
    5       -0.000  -0.002   0.000  -0.002
    6        0.000   0.000   0.000   0.000
    7        0.000   0.004   0.000   0.004
    8        0.001   0.013   0.000   0.015
    9       -0.000  -0.003   0.000  -0.004
   10        0.000   0.001   0.000   0.001
   11        0.001   0.003   0.000   0.003
   12        0.001   0.001   0.000   0.002
   13        0.000   0.001   0.000   0.002
   14        0.000   0.002   0.000   0.002
   15        0.001  -0.000   0.000   0.000
   16        0.001   0.003   0.000   0.003
   17        0.000   0.001   0.000   0.001
   18        0.000   0.001   0.000   0.001
   19       -0.000  -0.003   0.000  -0.003
   20        0.000   0.003   0.000   0.003
   21        0.000   0.001   0.000   0.001
   22        0.000   0.000   0.000   0.000
   23       -0.000  -0.001   0.000  -0.001
   24       -0.000  -0.001   0.000  -0.001
   25       -0.000  -0.003   0.000  -0.003
   26        0.001   0.002   0.000   0.003
   27        0.000   0.002   0.000   0.002
   28        0.001   0.002   0.000   0.002
   29        0.000  -0.001   0.000  -0.000
   30       -0.001  -0.003   0.000  -0.004
   31        0.002   0.015   0.000   0.017
   32        0.001   0.003   0.000   0.004
   33        0.000  -0.003   0.000  -0.003
   34       -0.000  -0.003   0.000  -0.004
   35        0.000   0.001   0.000   0.001
   36        0.000   0.004   0.000   0.004
   37       -0.000  -0.001   0.000  -0.002
   38       -0.000  -0.000   0.000  -0.000
   39        0.000   0.002   0.000   0.002
   40        0.000   0.002   0.000   0.003
   41       -0.000  -0.000   0.000  -0.000
   42        0.000   0.000   0.000   0.000
   43        0.000   0.001   0.000   0.001
   44        0.001   0.003   0.000   0.004
   45        0.000  -0.000   0.000  -0.000
   46       -0.000   0.000   0.000   0.000
   47        0.000   0.003   0.000   0.003
   48        0.001   0.003   0.000   0.004
   49       -0.000  -0.002   0.000  -0.002
   50       -0.000  -0.000   0.000  -0.000
   51        0.000   0.002   0.000   0.002
   52        0.000   0.005   0.000   0.006
   53       -0.000  -0.001   0.000  -0.001
   54        0.000   0.001   0.000   0.001
   55        0.012   0.050   0.000   0.062
   56        0.011   0.045   0.000   0.056
   57        0.010   0.048   0.000   0.059
   58        0.010   0.045   0.000   0.055
   59        0.022   0.071   1.211   1.304
   60        0.090   0.077   3.383   3.550
--------------------------------------------------
tot          0.166   0.396   4.594   5.155
 

 total amount of memory used by VASP MPI-rank0   179723. kBytes
=======================================================================

   base      :      30000. kBytes
   nonl-proj :       5408. kBytes
   fftplans  :      13453. kBytes
   grid      :      34560. kBytes
   one-center:         62. kBytes
   HF        :         23. kBytes
   nonlr-proj:      15751. kBytes
   wavefun   :      80466. kBytes
 
  
  
 General timing and accounting informations for this job:
 ========================================================
  
                  Total CPU time used (sec):    38392.141
                            User time (sec):    38344.790
                          System time (sec):       47.351
                         Elapsed time (sec):    38402.682
  
                   Maximum memory used (kb):      419584.
                   Average memory used (kb):           0.
  
                          Minor page faults:       336674
                          Major page faults:            0
                 Voluntary context switches:         1140
