 vasp.5.4.4.18Apr17-6-g9f103f2a35 (build Feb 25 2019 10:51:38) complex          
  
 executed on             LinuxIFC date 2021.06.15  04:24:12
 running on   48 total cores
 distrk:  each k-point on   16 cores,    3 groups
 distr:  one band on NCORES_PER_BAND=  16 cores,    1 groups


--------------------------------------------------------------------------------------------------------


 INCAR:
 POTCAR:    PAW_PBE C 08Apr2002                   
 POTCAR:    PAW_PBE N 08Apr2002                   
 POTCAR:    PAW_PBE Fe 06Sep2000                  
 POTCAR:    PAW_PBE Ti 08Apr2002                  

 ----------------------------------------------------------------------------- 
|                                                                             |
|           W    W    AA    RRRRR   N    N  II  N    N   GGGG   !!!           |
|           W    W   A  A   R    R  NN   N  II  NN   N  G    G  !!!           |
|           W    W  A    A  R    R  N N  N  II  N N  N  G       !!!           |
|           W WW W  AAAAAA  RRRRR   N  N N  II  N  N N  G  GGG   !            |
|           WW  WW  A    A  R   R   N   NN  II  N   NN  G    G                |
|           W    W  A    A  R    R  N    N  II  N    N   GGGG   !!!           |
|                                                                             |
|      For optimal performance we recommend to set                            |
|        NCORE= 4 - approx SQRT( number of cores)                             |
|      NCORE specifies how many cores store one orbital (NPAR=cpu/NCORE).     |
|      This setting can  greatly improve the performance of VASP for DFT.     |
|      The default,   NCORE=1            might be grossly inefficient         |
|      on modern multi-core architectures or massively parallel machines.     |
|      Do your own testing !!!!                                               |
|      Unfortunately you need to use the default for GW and RPA calculations. |
|      (for HF NCORE is supported but not extensively tested yet)             |
|                                                                             |
 ----------------------------------------------------------------------------- 


 ----------------------------------------------------------------------------- 
|                                                                             |
|           W    W    AA    RRRRR   N    N  II  N    N   GGGG   !!!           |
|           W    W   A  A   R    R  NN   N  II  NN   N  G    G  !!!           |
|           W    W  A    A  R    R  N N  N  II  N N  N  G       !!!           |
|           W WW W  AAAAAA  RRRRR   N  N N  II  N  N N  G  GGG   !            |
|           WW  WW  A    A  R   R   N   NN  II  N   NN  G    G                |
|           W    W  A    A  R    R  N    N  II  N    N   GGGG   !!!           |
|                                                                             |
|      You have enabled k-point parallelism (KPAR>1).                         |
|      This developmental code was originally  written by Paul Kent at ORNL,  |
|      and carefully double checked in Vienna.                                |
|      GW as well as linear response parallelism added by Martijn Marsman     |
|      and Georg Kresse.                                                      |
|      Carefully verify results versus KPAR=1.                                |
|      Report problems to Paul Kent and Vienna.                               |
|                                                                             |
 ----------------------------------------------------------------------------- 

 POTCAR:    PAW_PBE C 08Apr2002                   
   VRHFIN =C: s2p2                                                              
   LEXCH  = PE                                                                  
   EATOM  =   147.1560 eV,   10.8157 Ry                                         
                                                                                
   TITEL  = PAW_PBE C 08Apr2002                                                 
   LULTRA =        F    use ultrasoft PP ?                                      
   IUNSCR =        1    unscreen: 0-lin 1-nonlin 2-no                           
   RPACOR =    1.200    partial core radius                                     
   POMASS =   12.011; ZVAL   =    4.000    mass and valenz                      
   RCORE  =    1.500    outmost cutoff radius                                   
   RWIGS  =    1.630; RWIGS  =    0.863    wigner-seitz radius (au A)           
   ENMAX  =  400.000; ENMIN  =  300.000 eV                                      
   ICORE  =        2    local potential                                         
   LCOR   =        T    correct aug charges                                     
   LPAW   =        T    paw PP                                                  
   EAUG   =  644.873                                                            
   DEXC   =    0.000                                                            
   RMAX   =    1.529    core radius for proj-oper                               
   RAUG   =    1.300    factor for augmentation sphere                          
   RDEP   =    1.501    radius for radial grids                                 
   RDEPT  =    1.300    core radius for aug-charge                              
                                                                                
   Atomic configuration                                                         
    4 entries                                                                   
     n  l   j            E        occ.                                          
     1  0  0.50      -273.3789   2.0000                                         
     2  0  0.50       -13.7508   2.0000                                         
     2  1  0.50        -5.2854   2.0000                                         
     3  2  1.50        -5.4423   0.0000                                         
   Description                                                                  
     l       E           TYP  RCUT    TYP  RCUT                                 
     0    -13.7508458     23  1.200                                             
     0     -8.2022199     23  1.200                                             
     1     -5.2854383     23  1.500                                             
     1     34.0145650     23  1.500                                             
     2     -5.4423304      7  1.500                                             
  local pseudopotential read in
  partial core-charges read in
  partial kinetic energy density read in
  atomic valenz-charges read in
  non local Contribution for L=           0  read in
    real space projection operators read in
  non local Contribution for L=           0  read in
    real space projection operators read in
  non local Contribution for L=           1  read in
    real space projection operators read in
  non local Contribution for L=           1  read in
    real space projection operators read in
    PAW grid and wavefunctions read in
 
   number of l-projection  operators is LMAX  =           4
   number of lm-projection operators is LMMAX =           8
 
 POTCAR:    PAW_PBE N 08Apr2002                   
   VRHFIN =N: s2p3                                                              
   LEXCH  = PE                                                                  
   EATOM  =   264.5486 eV,   19.4438 Ry                                         
                                                                                
   TITEL  = PAW_PBE N 08Apr2002                                                 
   LULTRA =        F    use ultrasoft PP ?                                      
   IUNSCR =        1    unscreen: 0-lin 1-nonlin 2-no                           
   RPACOR =    1.200    partial core radius                                     
   POMASS =   14.001; ZVAL   =    5.000    mass and valenz                      
   RCORE  =    1.500    outmost cutoff radius                                   
   RWIGS  =    1.400; RWIGS  =    0.741    wigner-seitz radius (au A)           
   ENMAX  =  400.000; ENMIN  =  300.000 eV                                      
   ICORE  =        2    local potential                                         
   LCOR   =        T    correct aug charges                                     
   LPAW   =        T    paw PP                                                  
   EAUG   =  627.112                                                            
   DEXC   =    0.000                                                            
   RMAX   =    1.529    core radius for proj-oper                               
   RAUG   =    1.300    factor for augmentation sphere                          
   RDEP   =    1.514    radius for radial grids                                 
   RDEPT  =    1.338    core radius for aug-charge                              
                                                                                
   Atomic configuration                                                         
    4 entries                                                                   
     n  l   j            E        occ.                                          
     1  0  0.50      -384.7179   2.0000                                         
     2  0  0.50       -18.5828   2.0000                                         
     2  1  0.50        -7.0898   3.0000                                         
     3  2  1.50        -6.8029   0.0000                                         
   Description                                                                  
     l       E           TYP  RCUT    TYP  RCUT                                 
     0    -18.5828119     23  1.200                                             
     0    -13.5018863     23  1.200                                             
     1     -7.0897853     23  1.500                                             
     1      9.5240782     23  1.500                                             
     2     -6.8029130      7  1.500                                             
  local pseudopotential read in
  partial core-charges read in
  partial kinetic energy density read in
  atomic valenz-charges read in
  non local Contribution for L=           0  read in
    real space projection operators read in
  non local Contribution for L=           0  read in
    real space projection operators read in
  non local Contribution for L=           1  read in
    real space projection operators read in
  non local Contribution for L=           1  read in
    real space projection operators read in
    PAW grid and wavefunctions read in
 
   number of l-projection  operators is LMAX  =           4
   number of lm-projection operators is LMMAX =           8
 
 POTCAR:    PAW_PBE Fe 06Sep2000                  
   VRHFIN =Fe:  d7 s1                                                           
   LEXCH  = PE                                                                  
   EATOM  =   594.3153 eV,   43.6809 Ry                                         
                                                                                
   TITEL  = PAW_PBE Fe 06Sep2000                                                
   LULTRA =        F    use ultrasoft PP ?                                      
   IUNSCR =        1    unscreen: 0-lin 1-nonlin 2-no                           
   RPACOR =    2.000    partial core radius                                     
   POMASS =   55.847; ZVAL   =    8.000    mass and valenz                      
   RCORE  =    2.300    outmost cutoff radius                                   
   RWIGS  =    2.460; RWIGS  =    1.302    wigner-seitz radius (au A)           
   ENMAX  =  267.882; ENMIN  =  200.911 eV                                      
   RCLOC  =    1.701    cutoff for local pot                                    
   LCOR   =        T    correct aug charges                                     
   LPAW   =        T    paw PP                                                  
   EAUG   =  511.368                                                            
   DEXC   =    0.000                                                            
   RMAX   =    2.356    core radius for proj-oper                               
   RAUG   =    1.300    factor for augmentation sphere                          
   RDEP   =    2.442    radius for radial grids                                 
   RDEPT  =    1.890    core radius for aug-charge                              
                                                                                
   Atomic configuration                                                         
    9 entries                                                                   
     n  l   j            E        occ.                                          
     1  0  0.50     -6993.8440   2.0000                                         
     2  0  0.50      -814.6047   2.0000                                         
     2  1  1.50      -693.3689   6.0000                                         
     3  0  0.50       -89.4732   2.0000                                         
     3  1  1.50       -55.6373   6.0000                                         
     3  2  2.50        -3.8151   7.0000                                         
     4  0  0.50        -4.2551   1.0000                                         
     4  1  1.50        -3.4015   0.0000                                         
     4  3  2.50        -1.3606   0.0000                                         
   Description                                                                  
     l       E           TYP  RCUT    TYP  RCUT                                 
     2     -3.8151135     23  2.300                                             
     2     -5.1756961     23  2.300                                             
     0     -4.2550963     23  2.300                                             
     0      7.2035603     23  2.300                                             
     1     -2.7211652     23  2.300                                             
     1     18.4316424     23  2.300                                             
  local pseudopotential read in
  partial core-charges read in
  partial kinetic energy density read in
  atomic valenz-charges read in
  non local Contribution for L=           2  read in
    real space projection operators read in
  non local Contribution for L=           2  read in
    real space projection operators read in
  non local Contribution for L=           0  read in
    real space projection operators read in
  non local Contribution for L=           0  read in
    real space projection operators read in
  non local Contribution for L=           1  read in
    real space projection operators read in
  non local Contribution for L=           1  read in
    real space projection operators read in
    PAW grid and wavefunctions read in
 
   number of l-projection  operators is LMAX  =           6
   number of lm-projection operators is LMMAX =          18
 
 POTCAR:    PAW_PBE Ti 08Apr2002                  
   VRHFIN =Ti: d3 s1                                                            
   LEXCH  = PE                                                                  
   EATOM  =    94.7928 eV,    6.9671 Ry                                         
                                                                                
   TITEL  = PAW_PBE Ti 08Apr2002                                                
   LULTRA =        F    use ultrasoft PP ?                                      
   IUNSCR =        1    unscreen: 0-lin 1-nonlin 2-no                           
   RPACOR =    2.200    partial core radius                                     
   POMASS =   47.880; ZVAL   =    4.000    mass and valenz                      
   RCORE  =    2.800    outmost cutoff radius                                   
   RWIGS  =    2.500; RWIGS  =    1.323    wigner-seitz radius (au A)           
   ENMAX  =  178.330; ENMIN  =  133.747 eV                                      
   RCLOC  =    2.215    cutoff for local pot                                    
   LCOR   =        T    correct aug charges                                     
   LPAW   =        T    paw PP                                                  
   EAUG   =  328.883                                                            
   DEXC   =    0.000                                                            
   RMAX   =    2.868    core radius for proj-oper                               
   RAUG   =    1.300    factor for augmentation sphere                          
   RDEP   =    2.885    radius for radial grids                                 
   RDEPT  =    2.320    core radius for aug-charge                              
                                                                                
   Atomic configuration                                                         
    9 entries                                                                   
     n  l   j            E        occ.                                          
     1  0  0.50     -4865.3608   2.0000                                         
     2  0  0.50      -533.1367   2.0000                                         
     2  1  1.50      -440.5031   6.0000                                         
     3  0  0.50       -59.3186   2.0000                                         
     3  1  1.50       -35.7012   6.0000                                         
     3  2  2.50        -1.9157   3.0000                                         
     4  0  0.50        -3.7291   1.0000                                         
     4  1  1.50        -4.0817   0.0000                                         
     4  3  2.50        -1.3606   0.0000                                         
   Description                                                                  
     l       E           TYP  RCUT    TYP  RCUT                                 
     2     -1.9156924     23  2.800                                             
     2     -0.4062961     23  2.800                                             
     0     -3.7290832     23  2.800                                             
     0     20.4087390     23  2.800                                             
     1     -5.4423304     23  2.800                                             
  local pseudopotential read in
  partial core-charges read in
  partial kinetic energy density read in
  atomic valenz-charges read in
  non local Contribution for L=           2  read in
    real space projection operators read in
  non local Contribution for L=           2  read in
    real space projection operators read in
  non local Contribution for L=           0  read in
    real space projection operators read in
  non local Contribution for L=           0  read in
    real space projection operators read in
  non local Contribution for L=           1  read in
    real space projection operators read in
    PAW grid and wavefunctions read in
 
   number of l-projection  operators is LMAX  =           5
   number of lm-projection operators is LMMAX =          15
 

 ----------------------------------------------------------------------------- 
|                                                                             |
|  ADVICE TO THIS USER RUNNING 'VASP/VAMP'   (HEAR YOUR MASTER'S VOICE ...):  |
|                                                                             |
|      You have a (more or less) 'large supercell' and for larger cells       |
|      it might be more efficient to use real space projection opertators     |
|      So try LREAL= Auto  in the INCAR   file.                               |
|      Mind:          For very  accurate calculation you might also keep the  |
|      reciprocal projection scheme          (i.e. LREAL=.FALSE.)             |
|                                                                             |
 ----------------------------------------------------------------------------- 

  PAW_PBE C 08Apr2002                   :
 energy of atom  1       EATOM= -147.1560
 kinetic energy error for atom=    0.0076 (will be added to EATOM!!)
  PAW_PBE N 08Apr2002                   :
 energy of atom  2       EATOM= -264.5486
 kinetic energy error for atom=    0.0138 (will be added to EATOM!!)
  PAW_PBE Fe 06Sep2000                  :
 energy of atom  3       EATOM= -594.3153
 kinetic energy error for atom=    0.0026 (will be added to EATOM!!)
  PAW_PBE Ti 08Apr2002                  :
 energy of atom  4       EATOM=  -94.7928
 kinetic energy error for atom=    0.0002 (will be added to EATOM!!)
 
 
 POSCAR:  C  N Fe Ti                             
  positions in cartesian coordinates
  No initial velocities read in
 exchange correlation table for  LEXCH =        8
   RHO(1)=    0.500       N(1)  =     2000
   RHO(2)=  100.500       N(2)  =     4000

 VTST: version 3.2, (02/03/18)

 CHAIN: initializing optimizer
 
 OPT: Using VASP Conjugate-Gradient optimizer
 CHAIN: Read ICHAIN            0
 
 POSCAR:  C  N Fe Ti                             
  positions in cartesian coordinates
  No initial velocities read in
 


--------------------------------------------------------------------------------------------------------


 ion  position               nearest neighbor table
   1  0.221  0.001  0.492-   3 1.43  19 1.43   4 1.44
   2  0.057  0.101  0.488-   3 1.43  37 1.43   7 1.44
   3  0.110  0.001  0.490-   1 1.43   2 1.43  17 1.43
   4  0.277  0.102  0.491-  21 1.42   1 1.44   5 1.44
   5  0.224  0.204  0.495-   7 1.44   4 1.44   8 1.45
   6  0.057  0.301  0.493-   7 1.43  41 1.43  11 1.43
   7  0.113  0.202  0.492-   6 1.43   5 1.44   2 1.44
   8  0.281  0.305  0.503-  25 1.45   5 1.45   9 1.48
   9  0.222  0.406  0.509-  54 1.39  11 1.44   8 1.48
  10  0.053  0.501  0.501-  14 1.42  45 1.43  11 1.44
  11  0.111  0.402  0.500-   6 1.43   9 1.44  10 1.44
  12  0.217  0.602  0.516-  54 1.38  14 1.43  15 1.45
  13  0.052  0.701  0.500-  14 1.43  18 1.43  49 1.43
  14  0.107  0.602  0.505-  10 1.42  13 1.43  12 1.43
  15  0.272  0.704  0.517-  16 1.43  29 1.44  12 1.45
  16  0.219  0.801  0.502-  18 1.43  15 1.43  19 1.44
  17  0.054  0.900  0.491-  18 1.43  53 1.43   3 1.43
  18  0.108  0.801  0.497-  17 1.43  16 1.43  13 1.43
  19  0.275  0.902  0.497-   1 1.43  31 1.44  16 1.44
  20  0.554  0.998  0.485-  23 1.43  33 1.43  22 1.43
  21  0.388  0.100  0.487-  26 1.42   4 1.42  22 1.43
  22  0.443  1.000  0.487-  31 1.42  20 1.43  21 1.43
  23  0.611  0.097  0.481-  24 1.42  20 1.43  35 1.43
  24  0.556  0.195  0.483-  27 1.42  23 1.42  26 1.43
  25  0.394  0.298  0.502-  55 1.39  26 1.43   8 1.45
  26  0.445  0.198  0.488-  21 1.42  25 1.43  24 1.43
  27  0.614  0.293  0.487-  28 1.41  24 1.42  39 1.42
  28  0.561  0.388  0.504-  55 1.37  56 1.37  27 1.41
  29  0.380  0.715  0.536-  57 1.33  15 1.44  32 1.44
  30  0.554  0.803  0.508-  58 1.39  33 1.43  32 1.44
  31  0.387  0.901  0.497-  22 1.42  32 1.43  19 1.44
  32  0.442  0.805  0.512-  31 1.43  30 1.44  29 1.44
  33  0.609  0.899  0.493-  30 1.43  20 1.43  51 1.43
  34  0.889  0.999  0.486-  53 1.43  36 1.43  37 1.44
  35  0.723  0.097  0.481-  36 1.43  40 1.43  23 1.43
  36  0.777  0.998  0.485-  51 1.43  35 1.43  34 1.43
  37  0.946  0.100  0.485-  38 1.43   2 1.43  34 1.44
  38  0.891  0.199  0.485-  37 1.43  40 1.43  41 1.43
  39  0.725  0.296  0.486-  27 1.42  40 1.42  44 1.43
  40  0.780  0.197  0.482-  39 1.42  38 1.43  35 1.43
  41  0.946  0.300  0.489-   6 1.43  38 1.43  42 1.43
  42  0.889  0.399  0.493-  44 1.42  45 1.42  41 1.43
  43  0.720  0.492  0.505-  56 1.39  44 1.43  48 1.45
  44  0.779  0.397  0.493-  42 1.42  43 1.43  39 1.43
  45  0.942  0.500  0.498-  42 1.42  10 1.43  46 1.44
  46  0.883  0.599  0.501-  49 1.43  45 1.44  48 1.46
  47  0.716  0.702  0.508-  58 1.40  52 1.43  48 1.47
  48  0.770  0.598  0.506-  43 1.45  46 1.46  47 1.47
  49  0.940  0.699  0.498-  50 1.43  46 1.43  13 1.43
  50  0.886  0.799  0.494-  49 1.43  52 1.43  53 1.44
  51  0.721  0.899  0.491-  36 1.43  33 1.43  52 1.43
  52  0.775  0.799  0.497-  50 1.43  47 1.43  51 1.43
  53  0.943  0.899  0.490-  34 1.43  17 1.43  50 1.44
  54  0.268  0.505  0.523-  12 1.38   9 1.39  59 1.98
  55  0.456  0.387  0.517-  28 1.37  25 1.39  59 1.88
  56  0.614  0.482  0.517-  28 1.37  43 1.39  60 2.03
  57  0.423  0.647  0.579-  29 1.33  59 1.83  60 1.92
  58  0.609  0.709  0.521-  30 1.39  47 1.40  60 2.03
  59  0.404  0.501  0.569-  57 1.83  55 1.88  54 1.98  60 2.33
  60  0.561  0.592  0.585-  57 1.92  56 2.03  58 2.03  59 2.33
 
  LATTYP: Found a triclinic cell.
 ALAT       =    12.8592000000
 B/A-ratio  =     0.9647178674
 C/A-ratio  =     1.5489221725
 COS(alpha) =     0.0093286495
 COS(beta)  =     0.0101995273
 COS(gamma) =     0.0111751106
  
  Lattice vectors:
  
 A1 = ( -12.8592000000,   0.0000000000,   0.0000000000)
 A2 = (  -0.1386328344,  12.4047253572,   0.0000000000)
 A3 = (  -0.2031531647,   0.1835483111, -19.9160181567)


Analysis of symmetry for initial positions (statically):
=====================================================================
 Subroutine PRICEL returns:
 Original cell was already a primitive cell.
 

 Routine SETGRP: Setting up the symmetry group for a 
 triclinic supercell.


 Subroutine GETGRP returns: Found  1 space group operations
 (whereof  1 operations were pure point group operations)
 out of a pool of  2 trial point group operations.


The static configuration has the point symmetry C_1 .


Analysis of symmetry for dynamics (positions and initial velocities):
=====================================================================
 Subroutine PRICEL returns:
 Original cell was already a primitive cell.
 

 Routine SETGRP: Setting up the symmetry group for a 
 triclinic supercell.


 Subroutine GETGRP returns: Found  1 space group operations
 (whereof  1 operations were pure point group operations)
 out of a pool of  2 trial point group operations.


The dynamic configuration has the point symmetry C_1 .


Analysis of structural, dynamic, and magnetic symmetry:
=====================================================================
 Subroutine PRICEL returns:
 Original cell was already a primitive cell.
 

 Routine SETGRP: Setting up the symmetry group for a 
 triclinic supercell.


 Subroutine GETGRP returns: Found  1 space group operations
 (whereof  1 operations were pure point group operations)
 out of a pool of  2 trial point group operations.


The magnetic configuration has the point symmetry C_1 .


 Subroutine INISYM returns: Found  1 space group operations
 (whereof  1 operations are pure point group operations),
 and found     1 'primitive' translations

 
 
 KPOINTS: KPOINTS created by Atomic Simulation Env

Automatic generation of k-mesh.
Space group operators:
 irot       det(A)        alpha          n_x          n_y          n_z        tau_x        tau_y        tau_z
    1     1.000000     0.000001     1.000000     0.000000     0.000000     0.000000     0.000000     0.000000
 
 Subroutine IBZKPT returns following result:
 ===========================================
 
 Found      2 irreducible k-points:
 
 Following reciprocal coordinates:
            Coordinates               Weight
  0.250000  0.250000 -0.000000      2.000000
 -0.250000  0.250000  0.000000      2.000000
 
 Following cartesian coordinates:
            Coordinates               Weight
  0.019441  0.020371 -0.000011      2.000000
 -0.019441  0.019936  0.000382      2.000000
 
 
 Subroutine IBZKPT_HF returns following result:
 ==============================================
 
 Found      4 k-points in 1st BZ
 the following      4 k-points will be used (e.g. in the exchange kernel)
 Following reciprocal coordinates:   # in IRBZ
  0.250000  0.250000 -0.000000    0.25000000   1 t-inv F
 -0.250000  0.250000  0.000000    0.25000000   2 t-inv F
 -0.250000 -0.250000  0.000000    0.25000000   1 t-inv T
  0.250000 -0.250000  0.000000    0.25000000   2 t-inv T


--------------------------------------------------------------------------------------------------------




 Dimension of arrays:
   k-points           NKPTS =      2   k-points in BZ     NKDIM =      4   number of bands    NBANDS=    159
   number of dos      NEDOS =    301   number of ions     NIONS =     60
   non local maximal  LDIM  =      6   non local SUM 2l+1 LMDIM =     18
   total plane-waves  NPLWV = ******
   max r-space proj   IRMAX =      1   max aug-charges    IRDMAX=  28371
   dimension x,y,z NGX =    96 NGY =   90 NGZ =  150
   dimension x,y,z NGXF=   192 NGYF=  180 NGZF=  300
   support grid    NGXF=   192 NGYF=  180 NGZF=  300
   ions per type =              53   5   1   1
   NGX,Y,Z   is equivalent  to a cutoff of  12.41, 12.06, 12.52 a.u.
   NGXF,Y,Z  is equivalent  to a cutoff of  24.82, 24.12, 25.04 a.u.

 SYSTEM =  unknown system                          
 POSCAR =   C  N Fe Ti                             

 Startparameter for this run:
   NWRITE =      2    write-flag & timer
   PREC   = accura    normal or accurate (medium, high low for compatibility)
   ISTART =      1    job   : 0-new  1-cont  2-samecut
   ICHARG =      0    charge: 1-file 2-atom 10-const
   ISPIN  =      2    spin polarized calculation?
   LNONCOLLINEAR =      F non collinear calculations
   LSORBIT =      F    spin-orbit coupling
   INIWAV =      1    electr: 0-lowe 1-rand  2-diag
   LASPH  =      T    aspherical Exc in radial PAW
   METAGGA=      F    non-selfconsistent MetaGGA calc.

 Electronic Relaxation 1
   ENCUT  =  500.0 eV  36.75 Ry    6.06 a.u.  23.45 22.62 36.31*2*pi/ulx,y,z
   ENINI  =  500.0     initial cutoff
   ENAUG  =  644.9 eV  augmentation charge cutoff
   NELM   =    250;   NELMIN=  2; NELMDL=  0     # of ELM steps 
   EDIFF  = 0.1E-03   stopping-criterion for ELM
   LREAL  =      F    real-space projection
   NLSPLINE    = F    spline interpolate recip. space projectors
   LCOMPAT=      F    compatible to vasp.4.4
   GGA_COMPAT  = T    GGA compatible to vasp.4.4-vasp.4.6
   LMAXPAW     = -100 max onsite density
   LMAXMIX     =    2 max onsite mixed and CHGCAR
   VOSKOWN=      0    Vosko Wilk Nusair interpolation
   ROPT   =    0.00000   0.00000   0.00000   0.00000
 Ionic relaxation
   EDIFFG = -.3E-01   stopping-criterion for IOM
   NSW    =      0    number of steps for IOM
   NBLOCK =      1;   KBLOCK =      1    inner block; outer block 
   IBRION =     -1    ionic relax: 0-MD 1-quasi-New 2-CG
   NFREE  =      1    steps in history (QN), initial steepest desc. (CG)
   ISIF   =      2    stress and relaxation
   IWAVPR =     10    prediction:  0-non 1-charg 2-wave 3-comb
   ISYM   =      3    0-nonsym 1-usesym 2-fastsym
   LCORR  =      T    Harris-Foulkes like correction to forces

   POTIM  = 0.5000    time-step for ionic-motion
   TEIN   =    0.0    initial temperature
   TEBEG  =    0.0;   TEEND  =   0.0 temperature during run
   SMASS  =  -3.00    Nose mass-parameter (am)
   estimated Nose-frequenzy (Omega)   =  0.10E-29 period in steps =****** mass=  -0.378E-26a.u.
   SCALEE = 1.0000    scale energy and forces
   NPACO  =    256;   APACO  = 16.0  distance and # of slots for P.C.
   PSTRESS=    0.0 pullay stress

  Mass of Ions in am
   POMASS =  12.01 14.00 55.85 47.88
  Ionic Valenz
   ZVAL   =   4.00  5.00  8.00  4.00
  Atomic Wigner-Seitz radii
   RWIGS  =  -1.00 -1.00 -1.00 -1.00
  virtual crystal weights 
   VCA    =   1.00  1.00  1.00  1.00
   NELECT =     249.0000    total number of electrons
   NUPDOWN=      -1.0000    fix difference up-down

 DOS related values:
   EMIN   =  10.00;   EMAX   =-10.00  energy-range for DOS
   EFERMI =   0.00
   ISMEAR =     0;   SIGMA  =   0.10  broadening in eV -4-tet -1-fermi 0-gaus

 Electronic relaxation 2 (details)
   IALGO  =     53    algorithm
   LDIAG  =      T    sub-space diagonalisation (order eigenvalues)
   LSUBROT=      F    optimize rotation matrix (better conditioning)
   TURBO    =      0    0=normal 1=particle mesh
   IRESTART =      0    0=no restart 2=restart with 2 vectors
   NREBOOT  =      0    no. of reboots
   NMIN     =      0    reboot dimension
   EREF     =   0.00    reference energy to select bands
   IMIX   =      4    mixing-type and parameters
     AMIX     =   0.40;   BMIX     =  1.00
     AMIX_MAG =   1.60;   BMIX_MAG =  1.00
     AMIN     =   0.10
     WC   =   100.;   INIMIX=   1;  MIXPRE=   1;  MAXMIX= -45

 Intra band minimization:
   WEIMIN = 0.0000     energy-eigenvalue tresh-hold
   EBREAK =  0.16E-06  absolut break condition
   DEPER  =   0.30     relativ break condition  

   TIME   =   0.20     timestep for ELM

  volume/ion in A,a.u.               =      52.95       357.31
  Fermi-wavevector in a.u.,A,eV,Ry     =   0.700605  1.323952  6.678389  0.490848
  Thomas-Fermi vector in A             =   1.784804
 
 Write flags
   LWAVE        =      T    write WAVECAR
   LDOWNSAMPLE  =      F    k-point downsampling of WAVECAR
   LCHARG       =      T    write CHGCAR
   LVTOT        =      F    write LOCPOT, total local potential
   LVHAR        =      F    write LOCPOT, Hartree potential only
   LELF         =      F    write electronic localiz. function (ELF)
   LORBIT       =     11    0 simple, 1 ext, 2 COOP (PROOUT), +10 PAW based schemes


 Dipole corrections
   LMONO  =      F    monopole corrections only (constant potential shift)
   LDIPOL =      T    correct potential (dipole corrections)
   IDIPOL =      3    1-x, 2-y, 3-z, 4-all directions 
   EPSILON=  1.0000000 bulk dielectric constant

 Exchange correlation treatment:
   GGA     =    PE    GGA type
   LEXCH   =     8    internal setting for exchange type
   VOSKOWN=      0    Vosko Wilk Nusair interpolation
   EXXOEP  =     0    0=HF, 1=EXX-LHF (local Hartree Fock) 2=EXX OEP
   LHFCALC =     T    Hartree Fock is set to
   LSYMGRAD=     F    symmetrize gradient (conserves proper symmetry)
   PRECFOCK=normal    Normal, Fast or Accurate (Low or Medium for compatibility)
   LRHFCALC=     F    long range Hartree Fock
   LRSCOR  =     F    long range correlation only (use DFT for short range part)
   LTHOMAS =     F    Thomas Fermi screening in HF
   LMODELHF=     F    short range full HF, long range fraction AEXX
   ENCUT4O =  -1.0   cutoff for four orbital integrals eV
   LMAXFOCK=     4    L truncation for augmentation on plane wave grid
   LMAXFOCKAE=  -1    L truncation for all-electron charge restoration on plane wave grid
   NMAXFOCKAE=   1    number of basis functions for all-electron charge restoration
   LFOCKAEDFT=     F  apply the AE augmentation even for DFT
   NKREDX  =     1    reduce k-point grid by
   NKREDY  =     1    reduce k-point grid by
   NKREDZ  =     1    reduce k-point grid by
   SHIFTRED=     F    shift reduced grid of Gamma
   HFKIDENT=     F    idential grid for each k-point
   ODDONLY =     F    use only odd q-grid points
   EVENONLY=     F    use only even q-grid points
   HFALPHA =   -1.0000 decay constant for conv. correction
   MCALPHA =    0.0000 extent of test-charge in conv. correction in multipole expansion
   AEXX    =    0.2500 exact exchange contribution
   HFSCREEN=    0.2000 screening length (either q_TF or 0.3 A-1)
   HFSCREENC=   0.2000 screening length for correlation (either q_TF or 0.3 A-1)
   HFRCUT  =    0.0000 spherical cutoff for potential kernel
   ALDAX   =    0.7500 LDA exchange part
   AGGAX   =    0.7500 GGA exchange part
   ALDAC   =    1.0000 LDA correlation
   AGGAC   =    1.0000 GGA correlation
   ENCUTFOCK=  -1.0 apply spherical cutoff to Coloumb kernel
   NBANDSGWLOW=     1    first orbital included in HF term
   NBLOCK_FOCK=    64    blocking factor in FOCK_ACC
 Linear response parameters
   LEPSILON=     F    determine dielectric tensor
   LRPA    =     F    only Hartree local field effects (RPA)
   LNABLA  =     F    use nabla operator in PAW spheres
   LVEL    =     F    velocity operator in full k-point grid
   LINTERFAST=   F  fast interpolation
   KINTER  =     0    interpolate to denser k-point grid
   CSHIFT  =0.1000    complex shift for real part using Kramers Kronig
   OMEGAMAX=  -1.0    maximum frequency
   DEG_THRESHOLD= 0.2000000E-02 threshold for treating states as degnerate
   RTIME   =   -0.100 relaxation time in fs
  (WPLASMAI=    0.000 imaginary part of plasma frequency in eV, 0.658/RTIME)
   DFIELD  = 0.0000000 0.0000000 0.0000000 field for delta impulse in time
 
 Orbital magnetization related:
   ORBITALMAG=     F  switch on orbital magnetization
   LCHIMAG   =     F  perturbation theory with respect to B field
   DQ        =  0.001000  dq finite difference perturbation B field
   LLRAUG    =     F  two centre corrections for induced B field



--------------------------------------------------------------------------------------------------------


 Static calculation
 charge density and potential will be updated during run
 spin polarized calculation
 Conjugate gradient for all bands (Freysoldt, et al. PRB 79, 241103 (2009))
 perform sub-space diagonalisation
    before iterative eigenvector-optimisation
 modified Broyden-mixing scheme, WC =      100.0
 initial mixing is a Kerker type mixing with AMIX =  0.4000 and BMIX =      1.0000
 Hartree-type preconditioning will be used
 using additional bands           34
 reciprocal scheme for non local part
 use partial core corrections
 no Harris-corrections to forces 
 use gradient corrections 
 use of overlap-Matrix (Vanderbilt PP)
 Gauss-broadening in eV      SIGMA  =   0.10


--------------------------------------------------------------------------------------------------------


  energy-cutoff  :      500.00
  volume of cell :     3176.90
      direct lattice vectors                 reciprocal lattice vectors
    12.859200000  0.000000000  0.000000000     0.077765335  0.000869090 -0.000785235
    -0.138632834 12.404725357  0.000000000     0.000000000  0.080614441  0.000742952
     0.203153165 -0.183548311 19.916018157     0.000000000  0.000000000  0.050210840

  length of vectors
    12.859200000 12.405500000 19.917900000     0.077774156  0.080617864  0.050210840


 
 old parameters found on file WAVECAR:
  energy-cutoff  :      500.00
  volume of cell :     3176.90
      direct lattice vectors                 reciprocal lattice vectors
    12.859200000  0.000000000  0.000000000     0.077765335  0.000869090 -0.000785235
    -0.138632834 12.404725357  0.000000000     0.000000000  0.080614441  0.000742952
     0.203153165 -0.183548311 19.916018157     0.000000000  0.000000000  0.050210840

  length of vectors

 
 k-points in units of 2pi/SCALE and weight: KPOINTS created by Atomic Simulation Env
   0.01944133  0.02037088 -0.00001057       0.500
  -0.01944133  0.01993634  0.00038205       0.500
 
 k-points in reciprocal lattice and weights: KPOINTS created by Atomic Simulation Env
   0.25000000  0.25000000 -0.00000000       0.500
  -0.25000000  0.25000000  0.00000000       0.500
 
 position of ions in fractional coordinates (direct lattice) 
   0.22122882  0.00128019  0.49157288
   0.05671890  0.10097835  0.48846221
   0.11030776  0.00067363  0.49010014
   0.27739252  0.10224267  0.49070644
   0.22438550  0.20415735  0.49467708
   0.05673664  0.30114582  0.49310557
   0.11268098  0.20201591  0.49191346
   0.28131335  0.30534328  0.50288697
   0.22155847  0.40641424  0.50872283
   0.05294680  0.50130897  0.50121918
   0.11071568  0.40231705  0.50026403
   0.21700913  0.60164502  0.51564572
   0.05169091  0.70060523  0.49956825
   0.10716237  0.60183876  0.50470541
   0.27226095  0.70408490  0.51712839
   0.21874414  0.80141049  0.50195019
   0.05387599  0.90028965  0.49123479
   0.10794093  0.80082754  0.49668112
   0.27548861  0.90157475  0.49662981
   0.55411819  0.99791737  0.48543150
   0.38797585  0.09959985  0.48697396
   0.44306480  0.99980831  0.48748193
   0.61133450  0.09671209  0.48098090
   0.55642870  0.19538733  0.48327889
   0.39407443  0.29809812  0.50159702
   0.44520890  0.19831279  0.48822723
   0.61441320  0.29297171  0.48667117
   0.56119637  0.38751014  0.50443157
   0.38001740  0.71518843  0.53602029
   0.55383440  0.80253761  0.50849175
   0.38711081  0.90135594  0.49691702
   0.44175855  0.80532219  0.51228669
   0.60914217  0.89940805  0.49256034
   0.88878291  0.99900769  0.48573736
   0.72266756  0.09741622  0.48099083
   0.77739905  0.99806457  0.48454018
   0.94552342  0.09951636  0.48542868
   0.89070288  0.19886380  0.48464341
   0.72474537  0.29576063  0.48556868
   0.77960811  0.19718280  0.48193095
   0.94562719  0.29984325  0.48909341
   0.88923293  0.39886443  0.49267993
   0.72021354  0.49230654  0.50514563
   0.77857730  0.39664787  0.49301652
   0.94157726  0.50033858  0.49838103
   0.88342490  0.59919440  0.50123305
   0.71613042  0.70179793  0.50794746
   0.77022730  0.59801926  0.50648190
   0.94016697  0.69927538  0.49839098
   0.88595706  0.79908548  0.49425713
   0.72056950  0.89901734  0.49082348
   0.77464355  0.79919930  0.49698208
   0.94258813  0.89919491  0.48966122
   0.26847191  0.50539661  0.52257498
   0.45640957  0.38658464  0.51688930
   0.61419357  0.48169667  0.51719558
   0.42308755  0.64698420  0.57879285
   0.60919340  0.70908410  0.52084433
   0.40391460  0.50108507  0.56881739
   0.56146732  0.59156826  0.58506689
 
 position of ions in cartesian coordinates  (Angst):
   2.94451274 -0.07434692  9.79017440
   0.81459344  1.16295224  9.72822229
   1.51794153 -0.08160091  9.76084329
   3.65256022  1.17822394  9.77291837
   2.95761030  2.44171872  9.85199775
   0.78801511  3.64512255  9.82069952
   1.52091494  2.41566205  9.79695744
   3.67729706  3.69539553 10.01550609
   2.89607102  4.94808176 10.13173306
   0.71317987  6.12660217  9.98229034
   1.46957098  4.89880983  9.96326751
   2.81191116  7.36859537 10.26960951
   0.66906579  8.59912059  9.94941026
   1.39712022  7.37300666 10.05172217
   3.50850500  8.63906174 10.29913838
   2.80374565  9.84914493  9.99684905
   0.66778830 11.07768051  9.78344103
   1.37791539  9.84288073  9.89191020
   3.51846718 11.09263163  9.89088837
   7.08578953 12.28979073  9.66786255
   5.07418158  1.14612552  9.69858227
   5.65788613 12.31287099  9.70869887
   7.94557794  1.11140373  9.57922437
   7.22632049  2.33502113  9.62499123
   5.12805678  3.60575806  9.98981541
   5.79672258  2.37040238  9.72354238
   7.95911556  3.54490590  9.69255185
   7.26529160  4.71436927 10.04626839
   4.89646542  8.77333043 10.67538990
   7.11391093  9.86192585 10.12713087
   4.95392801 11.08986458  9.89660843
   5.67309007  9.89577120 10.20271106
   7.80845869 11.06650121  9.80984069
  11.38922102 12.30325970  9.67395416
   9.37713637  1.12013638  9.57942220
   9.95680116 12.29178034  9.65011099
  12.24349494  1.14537349  9.66780648
  11.52461422  2.37789529  9.65216702
   9.37728829  3.57970406  9.67059457
  10.09570635  2.35754084  9.59814551
  12.21780189  3.62970095  9.74079324
  11.47961787  4.85737313  9.81222246
   9.29574199  6.01420877 10.06048953
  10.05705072  4.82981554  9.81892594
  12.13981461  6.11508569  9.92576573
  11.37889648  7.34084143  9.98256659
   9.21476323  8.61237763 10.11629080
   9.92449524  7.32530072 10.08710273
  12.09410230  8.58284022  9.92596385
  11.38232950  9.82171591  9.84363401
   9.24102631 11.06197342  9.77524941
   9.95146460  9.82262762  9.89790404
  12.09574752 11.06438941  9.75210173
   3.48843223  6.17338841 10.40761277
   5.92047635  4.70060207 10.29437672
   7.93632885  5.88038450 10.30047647
   5.46845783  7.91942486 11.52724896
   7.84124854  8.70039347 10.37314506
   5.24010881  6.11141725 11.32857749
   7.25686793  7.23085372 11.65220280
 


--------------------------------------------------------------------------------------------------------


 k-point  1 :   0.2500 0.2500-0.0000  plane waves:   80680
 k-point  2 :  -0.2500 0.2500 0.0000  plane waves:   80669

 maximum and minimum number of plane-waves per node :      5086     5008

 maximum number of plane-waves:     80680
 maximum index in each direction: 
   IXMAX=   23   IYMAX=   22   IZMAX=   36
   IXMIN=  -23   IYMIN=  -22   IZMIN=  -36


 parallel 3D FFT for wavefunctions:
    minimum data exchange during FFTs selected (reduces bandwidth)
 parallel 3D FFT for charge:
    minimum data exchange during FFTs selected (reduces bandwidth)


 FFT grid for exact exchange (Hartree Fock) 
  NGX = 72; NGY = 70; NGZ =112

 
 Radii for the augmentation spheres in the non-local exchange
 for species   1 augmentation radius   0.874 (default was   0.699)
       energy cutoff for augmentation   2000.0
 for species   2 augmentation radius   0.886 (default was   0.709)
       energy cutoff for augmentation   2000.0
 for species   3 augmentation radius   1.263 (default was   1.010)
       energy cutoff for augmentation   2000.0
 for species   4 augmentation radius   1.575 (default was   1.260)
       energy cutoff for augmentation   2000.0

 real space projection operators:
  total allocation   :       2882.11 KBytes
  max/ min on nodes  :        196.00        160.85

 Maximum index for augmentation-charges in exchange          132
  SETUP_FOCK is finished

 total amount of memory used by VASP MPI-rank0   296618. kBytes
=======================================================================

   base      :      30000. kBytes
   nonl-proj :      10758. kBytes
   fftplans  :      26523. kBytes
   grid      :      69087. kBytes
   one-center:        124. kBytes
   HF        :         23. kBytes
   nonlr-proj:       3314. kBytes
   wavefun   :     156789. kBytes
 
     INWAV:  cpu time    6.2708: real time    8.9155
 Broyden mixing: mesh for mixing (old mesh)
   NGX = 47   NGY = 45   NGZ = 73
  (NGX  =192   NGY  =180   NGZ  =300)
  gives a total of 154395 points

 charge density for first step will be calculated from the start-wavefunctions


--------------------------------------------------------------------------------------------------------


 Maximum index for augmentation-charges         1697 (set IRDMAX)


--------------------------------------------------------------------------------------------------------


 initial charge from wavefunction
 First call to EWALD:  gamma=   0.121
 Maximum number of real-space cells 3x 3x 2
 Maximum number of reciprocal cells 2x 2x 4

    FEWALD:  cpu time    0.0027: real time    0.0027


--------------------------------------- Iteration      1(   1)  ---------------------------------------


    POTLOK:  cpu time    6.2974: real time    6.3071
    SETDIJ:  cpu time    3.2196: real time    3.2222
    TRIAL :  cpu time  602.6481: real time  604.1328
    CORREC:  cpu time    0.0049: real time    0.0049
    CHARGE:  cpu time    1.7961: real time    1.7985
    --------------------------------------------
      LOOP:  cpu time  614.0193: real time  615.5203

 eigenvalue-minimisations  :     0
 total energy-change (2. order) :-0.6286083E+03  (-0.4429678E+00)
 number of electron     248.9999991 magnetization       1.3380998
 augmentation part       11.4043568 magnetization       1.3505611

 DIPCOR: dipole corrections for dipol
 direction  3 min pos     1,
 dipolmoment          -0.003801      0.003434     -0.372643 electrons x Angstroem
 Tr[quadrupol]     -6801.031977

 energy correction for charged system         0.000000 eV
 dipol+quadrupol energy correction            0.003971 eV
 added-field ion interaction          0.000000 eV  (added to PSCEN)


 Free energy of the ion-electron system (eV)
  ---------------------------------------------------
  alpha Z        PSCENC =       107.43617061
  Ewald energy   TEWEN  =     39594.98729108
  -Hartree energ DENC   =    -47974.48722455
  -exchange      EXHF   =       561.49904530
  -V(xc)+E(xc)   XCENC  =       610.74298603
  PAW double counting   =     26836.30194420   -26842.67661516
  entropy T*S    EENTRO =        -0.03337813
  eigenvalues    EBANDS =     -3217.86903681
  atomic energy  EATOM  =      9695.49104897
  ---------------------------------------------------
  free energy    TOTEN  =      -628.60831431 eV

  energy without entropy =     -628.57493617  energy(sigma->0) =     -628.59162524
  exchange ACFDT corr.  =        -0.02348322  see jH, gK, PRB 81, 115126


--------------------------------------------------------------------------------------------------------




--------------------------------------- Iteration      1(   2)  ---------------------------------------


    POTLOK:  cpu time    6.3713: real time    6.3804
    SETDIJ:  cpu time    3.2136: real time    3.2317
    TRIAL :  cpu time  600.9275: real time  602.3661
    CORREC:  cpu time    0.0012: real time    0.0012
    CHARGE:  cpu time    1.6663: real time    1.6687
    --------------------------------------------
      LOOP:  cpu time  612.1823: real time  613.6530

 eigenvalue-minimisations  :     0
 total energy-change (2. order) :-0.3584024E+00  (-0.3774377E+00)
 number of electron     248.9999991 magnetization       1.3298200
 augmentation part       11.3475378 magnetization       1.4079073

 DIPCOR: dipole corrections for dipol
 direction  3 min pos     1,
 dipolmoment          -0.004337      0.003919     -0.425180 electrons x Angstroem
 Tr[quadrupol]     -6800.933009

 energy correction for charged system         0.000000 eV
 dipol+quadrupol energy correction            0.005169 eV
 added-field ion interaction          0.000000 eV  (added to PSCEN)


 Free energy of the ion-electron system (eV)
  ---------------------------------------------------
  alpha Z        PSCENC =       107.43736919
  Ewald energy   TEWEN  =     39594.98729108
  -Hartree energ DENC   =    -47960.96631347
  -exchange      EXHF   =       561.36723691
  -V(xc)+E(xc)   XCENC  =       610.43430562
  PAW double counting   =     26976.29110121   -26982.27143523
  entropy T*S    EENTRO =        -0.03235457
  eigenvalues    EBANDS =     -3231.70394288
  atomic energy  EATOM  =      9695.49104897
  ---------------------------------------------------
  free energy    TOTEN  =      -628.96671672 eV

  energy without entropy =     -628.93436215  energy(sigma->0) =     -628.95053943
  exchange ACFDT corr.  =        -0.02104308  see jH, gK, PRB 81, 115126


--------------------------------------------------------------------------------------------------------




--------------------------------------- Iteration      1(   3)  ---------------------------------------


    POTLOK:  cpu time    6.4203: real time    6.4282
    SETDIJ:  cpu time    3.2267: real time    3.2299
    TRIAL :  cpu time  600.7085: real time  602.1521
    CORREC:  cpu time    0.0056: real time    0.0056
    CHARGE:  cpu time    1.6817: real time    1.6845
    --------------------------------------------
      LOOP:  cpu time  612.0465: real time  613.5076

 eigenvalue-minimisations  :     0
 total energy-change (2. order) :-0.2891374E+00  (-0.2228304E+00)
 number of electron     248.9999991 magnetization       1.3075672
 augmentation part       11.3380406 magnetization       1.4520109

 DIPCOR: dipole corrections for dipol
 direction  3 min pos     1,
 dipolmoment          -0.004402      0.003978     -0.431585 electrons x Angstroem
 Tr[quadrupol]     -6800.737576

 energy correction for charged system         0.000000 eV
 dipol+quadrupol energy correction            0.005326 eV
 added-field ion interaction          0.000000 eV  (added to PSCEN)


 Free energy of the ion-electron system (eV)
  ---------------------------------------------------
  alpha Z        PSCENC =       107.43752612
  Ewald energy   TEWEN  =     39594.98729108
  -Hartree energ DENC   =    -47942.51519098
  -exchange      EXHF   =       561.22695085
  -V(xc)+E(xc)   XCENC  =       610.03773786
  PAW double counting   =     27151.73259418   -27157.27039137
  entropy T*S    EENTRO =        -0.03058850
  eigenvalues    EBANDS =     -3250.35106626
  atomic energy  EATOM  =      9695.49104897
  ---------------------------------------------------
  free energy    TOTEN  =      -629.25585412 eV

  energy without entropy =     -629.22526561  energy(sigma->0) =     -629.24055987
  exchange ACFDT corr.  =        -0.01857776  see jH, gK, PRB 81, 115126


--------------------------------------------------------------------------------------------------------




--------------------------------------- Iteration      1(   4)  ---------------------------------------


    POTLOK:  cpu time    6.4284: real time    6.4399
    SETDIJ:  cpu time    3.2210: real time    3.2255
    TRIAL :  cpu time  599.8705: real time  601.4661
    CORREC:  cpu time    0.0033: real time    0.0033
    CHARGE:  cpu time    1.6574: real time    1.6729
    --------------------------------------------
      LOOP:  cpu time  611.1815: real time  612.8123

 eigenvalue-minimisations  :     0
 total energy-change (2. order) :-0.1739349E+00  (-0.1370053E+00)
 number of electron     248.9999991 magnetization       1.2851765
 augmentation part       11.3483080 magnetization       1.4828286

 DIPCOR: dipole corrections for dipol
 direction  3 min pos     1,
 dipolmoment          -0.004157      0.003756     -0.407573 electrons x Angstroem
 Tr[quadrupol]     -6800.628560

 energy correction for charged system         0.000000 eV
 dipol+quadrupol energy correction            0.004750 eV
 added-field ion interaction          0.000000 eV  (added to PSCEN)


 Free energy of the ion-electron system (eV)
  ---------------------------------------------------
  alpha Z        PSCENC =       107.43694992
  Ewald energy   TEWEN  =     39594.98729108
  -Hartree energ DENC   =    -47933.41252246
  -exchange      EXHF   =       561.29218602
  -V(xc)+E(xc)   XCENC  =       609.86055007
  PAW double counting   =     27299.62857548   -27305.20988853
  entropy T*S    EENTRO =        -0.02881188
  eigenvalues    EBANDS =     -3259.47339111
  atomic energy  EATOM  =      9695.49104897
  ---------------------------------------------------
  free energy    TOTEN  =      -629.42978906 eV

  energy without entropy =     -629.40097717  energy(sigma->0) =     -629.41538312
  exchange ACFDT corr.  =        -0.01955358  see jH, gK, PRB 81, 115126


--------------------------------------------------------------------------------------------------------




--------------------------------------- Iteration      1(   5)  ---------------------------------------


    POTLOK:  cpu time    6.4296: real time    6.4373
    SETDIJ:  cpu time    3.2174: real time    3.2202
    TRIAL :  cpu time  596.6785: real time  598.0052
    CORREC:  cpu time    0.0045: real time    0.0045
    CHARGE:  cpu time    1.6641: real time    1.6665
    --------------------------------------------
      LOOP:  cpu time  607.9955: real time  609.3384

 eigenvalue-minimisations  :     0
 total energy-change (2. order) :-0.1127874E+00  (-0.1004834E+00)
 number of electron     248.9999991 magnetization       1.2660594
 augmentation part       11.3569459 magnetization       1.5041853

 DIPCOR: dipole corrections for dipol
 direction  3 min pos     1,
 dipolmoment          -0.004055      0.003664     -0.397556 electrons x Angstroem
 Tr[quadrupol]     -6800.635402

 energy correction for charged system         0.000000 eV
 dipol+quadrupol energy correction            0.004519 eV
 added-field ion interaction          0.000000 eV  (added to PSCEN)


 Free energy of the ion-electron system (eV)
  ---------------------------------------------------
  alpha Z        PSCENC =       107.43671930
  Ewald energy   TEWEN  =     39594.98729108
  -Hartree energ DENC   =    -47933.36831908
  -exchange      EXHF   =       561.54806947
  -V(xc)+E(xc)   XCENC  =       609.91525005
  PAW double counting   =     27402.36476677   -27408.11500901
  entropy T*S    EENTRO =        -0.02723314
  eigenvalues    EBANDS =     -3259.77358213
  atomic energy  EATOM  =      9695.49104897
  ---------------------------------------------------
  free energy    TOTEN  =      -629.54257646 eV

  energy without entropy =     -629.51534332  energy(sigma->0) =     -629.52895989
  exchange ACFDT corr.  =        -0.01963853  see jH, gK, PRB 81, 115126


--------------------------------------------------------------------------------------------------------




--------------------------------------- Iteration      1(   6)  ---------------------------------------


    POTLOK:  cpu time    6.4204: real time    6.4283
    SETDIJ:  cpu time    3.2087: real time    3.2115
    TRIAL :  cpu time  596.3124: real time  597.6280
    CORREC:  cpu time    0.0035: real time    0.0035
    CHARGE:  cpu time    1.6675: real time    1.6697
    --------------------------------------------
      LOOP:  cpu time  607.6136: real time  608.9451

 eigenvalue-minimisations  :     0
 total energy-change (2. order) :-0.8721974E-01  (-0.8115618E-01)
 number of electron     248.9999991 magnetization       1.2472982
 augmentation part       11.3625808 magnetization       1.5191061

 DIPCOR: dipole corrections for dipol
 direction  3 min pos     1,
 dipolmoment          -0.004143      0.003743     -0.406113 electrons x Angstroem
 Tr[quadrupol]     -6800.693040

 energy correction for charged system         0.000000 eV
 dipol+quadrupol energy correction            0.004716 eV
 added-field ion interaction          0.000000 eV  (added to PSCEN)


 Free energy of the ion-electron system (eV)
  ---------------------------------------------------
  alpha Z        PSCENC =       107.43691596
  Ewald energy   TEWEN  =     39594.98729108
  -Hartree energ DENC   =    -47937.10472254
  -exchange      EXHF   =       561.86973592
  -V(xc)+E(xc)   XCENC  =       610.07938978
  PAW double counting   =     27465.86446262   -27471.68953162
  entropy T*S    EENTRO =        -0.02568757
  eigenvalues    EBANDS =     -3256.53715322
  atomic energy  EATOM  =      9695.49104897
  ---------------------------------------------------
  free energy    TOTEN  =      -629.62979619 eV

  energy without entropy =     -629.60410863  energy(sigma->0) =     -629.61695241
  exchange ACFDT corr.  =        -0.01612181  see jH, gK, PRB 81, 115126


--------------------------------------------------------------------------------------------------------




--------------------------------------- Iteration      1(   7)  ---------------------------------------


    POTLOK:  cpu time    6.4112: real time    6.4177
    SETDIJ:  cpu time    3.1958: real time    3.2053
    TRIAL :  cpu time  596.0175: real time  597.3501
    CORREC:  cpu time    0.0021: real time    0.0021
    CHARGE:  cpu time    1.6869: real time    1.6895
    --------------------------------------------
      LOOP:  cpu time  607.3144: real time  608.6680

 eigenvalue-minimisations  :     0
 total energy-change (2. order) :-0.7252874E-01  (-0.6821542E-01)
 number of electron     248.9999991 magnetization       1.2275383
 augmentation part       11.3679697 magnetization       1.5298549

 DIPCOR: dipole corrections for dipol
 direction  3 min pos     1,
 dipolmoment          -0.004260      0.003849     -0.417602 electrons x Angstroem
 Tr[quadrupol]     -6800.744591

 energy correction for charged system         0.000000 eV
 dipol+quadrupol energy correction            0.004987 eV
 added-field ion interaction          0.000000 eV  (added to PSCEN)


 Free energy of the ion-electron system (eV)
  ---------------------------------------------------
  alpha Z        PSCENC =       107.43718658
  Ewald energy   TEWEN  =     39594.98729108
  -Hartree energ DENC   =    -47940.97121274
  -exchange      EXHF   =       562.16024927
  -V(xc)+E(xc)   XCENC  =       610.25138599
  PAW double counting   =     27502.09893814   -27507.95535154
  entropy T*S    EENTRO =        -0.02409221
  eigenvalues    EBANDS =     -3253.17617311
  atomic energy  EATOM  =      9695.49104897
  ---------------------------------------------------
  free energy    TOTEN  =      -629.70232493 eV

  energy without entropy =     -629.67823272  energy(sigma->0) =     -629.69027882
  exchange ACFDT corr.  =        -0.01482376  see jH, gK, PRB 81, 115126


--------------------------------------------------------------------------------------------------------




--------------------------------------- Iteration      1(   8)  ---------------------------------------


    POTLOK:  cpu time    6.3822: real time    6.4057
    SETDIJ:  cpu time    3.2123: real time    3.2159
    TRIAL :  cpu time  596.0118: real time  597.3440
    CORREC:  cpu time    0.0012: real time    0.0012
    CHARGE:  cpu time    1.6515: real time    1.6551
    --------------------------------------------
      LOOP:  cpu time  607.2599: real time  608.6252

 eigenvalue-minimisations  :     0
 total energy-change (2. order) :-0.6266069E-01  (-0.6057300E-01)
 number of electron     248.9999991 magnetization       1.2075000
 augmentation part       11.3737821 magnetization       1.5379867

 DIPCOR: dipole corrections for dipol
 direction  3 min pos     1,
 dipolmoment          -0.004294      0.003879     -0.420912 electrons x Angstroem
 Tr[quadrupol]     -6800.763653

 energy correction for charged system         0.000000 eV
 dipol+quadrupol energy correction            0.005066 eV
 added-field ion interaction          0.000000 eV  (added to PSCEN)


 Free energy of the ion-electron system (eV)
  ---------------------------------------------------
  alpha Z        PSCENC =       107.43726592
  Ewald energy   TEWEN  =     39594.98729108
  -Hartree energ DENC   =    -47943.21585154
  -exchange      EXHF   =       562.37953581
  -V(xc)+E(xc)   XCENC  =       610.38000050
  PAW double counting   =     27520.90647146   -27526.80364939
  entropy T*S    EENTRO =        -0.02248359
  eigenvalues    EBANDS =     -3251.30300622
  atomic energy  EATOM  =      9695.49104897
  ---------------------------------------------------
  free energy    TOTEN  =      -629.76498561 eV

  energy without entropy =     -629.74250203  energy(sigma->0) =     -629.75374382
  exchange ACFDT corr.  =        -0.01360065  see jH, gK, PRB 81, 115126


--------------------------------------------------------------------------------------------------------




--------------------------------------- Iteration      1(   9)  ---------------------------------------


    POTLOK:  cpu time    6.3864: real time    6.3925
    SETDIJ:  cpu time    3.2064: real time    3.2091
    TRIAL :  cpu time  596.0979: real time  597.4048
    CORREC:  cpu time    0.0012: real time    0.0012
    CHARGE:  cpu time    1.6566: real time    1.6587
    --------------------------------------------
      LOOP:  cpu time  607.3493: real time  608.6688

 eigenvalue-minimisations  :     0
 total energy-change (2. order) :-0.5676751E-01  (-0.5550938E-01)
 number of electron     248.9999991 magnetization       1.1883838
 augmentation part       11.3793953 magnetization       1.5445128

 DIPCOR: dipole corrections for dipol
 direction  3 min pos     1,
 dipolmoment          -0.004239      0.003830     -0.415597 electrons x Angstroem
 Tr[quadrupol]     -6800.752879

 energy correction for charged system         0.000000 eV
 dipol+quadrupol energy correction            0.004939 eV
 added-field ion interaction          0.000000 eV  (added to PSCEN)


 Free energy of the ion-electron system (eV)
  ---------------------------------------------------
  alpha Z        PSCENC =       107.43713880
  Ewald energy   TEWEN  =     39594.98729108
  -Hartree energ DENC   =    -47943.71758431
  -exchange      EXHF   =       562.53310910
  -V(xc)+E(xc)   XCENC  =       610.45937590
  PAW double counting   =     27529.57165855   -27535.52293065
  entropy T*S    EENTRO =        -0.02092998
  eigenvalues    EBANDS =     -3251.03837697
  atomic energy  EATOM  =      9695.49104897
  ---------------------------------------------------
  free energy    TOTEN  =      -629.82175312 eV

  energy without entropy =     -629.80082314  energy(sigma->0) =     -629.81128813
  exchange ACFDT corr.  =        -0.01243538  see jH, gK, PRB 81, 115126


--------------------------------------------------------------------------------------------------------




--------------------------------------- Iteration      1(  10)  ---------------------------------------


    POTLOK:  cpu time    6.3746: real time    6.3822
    SETDIJ:  cpu time    3.2015: real time    3.2041
    TRIAL :  cpu time  597.2221: real time  598.6506
    CORREC:  cpu time    0.0012: real time    0.0012
    CHARGE:  cpu time    1.6520: real time    1.6547
    --------------------------------------------
      LOOP:  cpu time  608.4522: real time  609.8960

 eigenvalue-minimisations  :     0
 total energy-change (2. order) :-0.5241098E-01  (-0.5097041E-01)
 number of electron     248.9999991 magnetization       1.1710223
 augmentation part       11.3841363 magnetization       1.5499602

 DIPCOR: dipole corrections for dipol
 direction  3 min pos     1,
 dipolmoment          -0.004152      0.003752     -0.407072 electrons x Angstroem
 Tr[quadrupol]     -6800.729326

 energy correction for charged system         0.000000 eV
 dipol+quadrupol energy correction            0.004738 eV
 added-field ion interaction          0.000000 eV  (added to PSCEN)


 Free energy of the ion-electron system (eV)
  ---------------------------------------------------
  alpha Z        PSCENC =       107.43693825
  Ewald energy   TEWEN  =     39594.98729108
  -Hartree energ DENC   =    -47943.28163914
  -exchange      EXHF   =       562.64702313
  -V(xc)+E(xc)   XCENC  =       610.50801209
  PAW double counting   =     27533.07494691   -27539.08683008
  entropy T*S    EENTRO =        -0.01948466
  eigenvalues    EBANDS =     -3251.63002534
  atomic energy  EATOM  =      9695.49104897
  ---------------------------------------------------
  free energy    TOTEN  =      -629.87416410 eV

  energy without entropy =     -629.85467944  energy(sigma->0) =     -629.86442177
  exchange ACFDT corr.  =        -0.01135006  see jH, gK, PRB 81, 115126


--------------------------------------------------------------------------------------------------------




--------------------------------------- Iteration      1(  11)  ---------------------------------------


    POTLOK:  cpu time    6.3550: real time    6.3779
    SETDIJ:  cpu time    3.2029: real time    3.2057
    TRIAL :  cpu time  595.9332: real time  597.2032
    CORREC:  cpu time    0.0058: real time    0.0058
    CHARGE:  cpu time    1.6966: real time    1.6994
    --------------------------------------------
      LOOP:  cpu time  607.1943: real time  608.4946

 eigenvalue-minimisations  :     0
 total energy-change (2. order) :-0.4818954E-01  (-0.4655629E-01)
 number of electron     248.9999991 magnetization       1.1557006
 augmentation part       11.3877951 magnetization       1.5544529

 DIPCOR: dipole corrections for dipol
 direction  3 min pos     1,
 dipolmoment          -0.004087      0.003692     -0.400643 electrons x Angstroem
 Tr[quadrupol]     -6800.708573

 energy correction for charged system         0.000000 eV
 dipol+quadrupol energy correction            0.004590 eV
 added-field ion interaction          0.000000 eV  (added to PSCEN)


 Free energy of the ion-electron system (eV)
  ---------------------------------------------------
  alpha Z        PSCENC =       107.43678977
  Ewald energy   TEWEN  =     39594.98729108
  -Hartree energ DENC   =    -47942.75148138
  -exchange      EXHF   =       562.74594671
  -V(xc)+E(xc)   XCENC  =       610.54649677
  PAW double counting   =     27534.47792878   -27540.55010932
  entropy T*S    EENTRO =        -0.01817166
  eigenvalues    EBANDS =     -3252.28678036
  atomic energy  EATOM  =      9695.49104897
  ---------------------------------------------------
  free energy    TOTEN  =      -629.92235364 eV

  energy without entropy =     -629.90418198  energy(sigma->0) =     -629.91326781
  exchange ACFDT corr.  =        -0.01036657  see jH, gK, PRB 81, 115126


--------------------------------------------------------------------------------------------------------




--------------------------------------- Iteration      1(  12)  ---------------------------------------


    POTLOK:  cpu time    6.3565: real time    6.3636
    SETDIJ:  cpu time    3.2003: real time    3.2027
    TRIAL :  cpu time  595.3258: real time  596.5868
    CORREC:  cpu time    0.0057: real time    0.0057
    CHARGE:  cpu time    1.7346: real time    1.7369
    --------------------------------------------
      LOOP:  cpu time  606.6239: real time  607.9014

 eigenvalue-minimisations  :     0
 total energy-change (2. order) :-0.4395345E-01  (-0.4212022E-01)
 number of electron     248.9999991 magnetization       1.1423034
 augmentation part       11.3906416 magnetization       1.5579105

 DIPCOR: dipole corrections for dipol
 direction  3 min pos     1,
 dipolmoment          -0.004061      0.003669     -0.398119 electrons x Angstroem
 Tr[quadrupol]     -6800.696689

 energy correction for charged system         0.000000 eV
 dipol+quadrupol energy correction            0.004532 eV
 added-field ion interaction          0.000000 eV  (added to PSCEN)


 Free energy of the ion-electron system (eV)
  ---------------------------------------------------
  alpha Z        PSCENC =       107.43673212
  Ewald energy   TEWEN  =     39594.98729108
  -Hartree energ DENC   =    -47942.49948568
  -exchange      EXHF   =       562.84183097
  -V(xc)+E(xc)   XCENC  =       610.58492691
  PAW double counting   =     27535.57086198   -27541.69646021
  entropy T*S    EENTRO =        -0.01698913
  eigenvalues    EBANDS =     -3252.66488157
  atomic energy  EATOM  =      9695.49104897
  ---------------------------------------------------
  free energy    TOTEN  =      -629.96630709 eV

  energy without entropy =     -629.94931795  energy(sigma->0) =     -629.95781252
  exchange ACFDT corr.  =        -0.00949244  see jH, gK, PRB 81, 115126


--------------------------------------------------------------------------------------------------------




--------------------------------------- Iteration      1(  13)  ---------------------------------------


    POTLOK:  cpu time    6.3437: real time    6.3528
    SETDIJ:  cpu time    3.2121: real time    3.2146
    TRIAL :  cpu time  595.2374: real time  596.5282
    CORREC:  cpu time    0.0040: real time    0.0040
    CHARGE:  cpu time    1.6602: real time    1.6622
    --------------------------------------------
      LOOP:  cpu time  606.4588: real time  607.7662

 eigenvalue-minimisations  :     0
 total energy-change (2. order) :-0.3965147E-01  (-0.3758758E-01)
 number of electron     248.9999991 magnetization       1.1305679
 augmentation part       11.3930810 magnetization       1.5603097

 DIPCOR: dipole corrections for dipol
 direction  3 min pos     1,
 dipolmoment          -0.004062      0.003670     -0.398220 electrons x Angstroem
 Tr[quadrupol]     -6800.692660

 energy correction for charged system         0.000000 eV
 dipol+quadrupol energy correction            0.004535 eV
 added-field ion interaction          0.000000 eV  (added to PSCEN)


 Free energy of the ion-electron system (eV)
  ---------------------------------------------------
  alpha Z        PSCENC =       107.43673442
  Ewald energy   TEWEN  =     39594.98729108
  -Hartree energ DENC   =    -47942.51317014
  -exchange      EXHF   =       562.93546435
  -V(xc)+E(xc)   XCENC  =       610.62369649
  PAW double counting   =     27536.98746166   -27543.15737605
  entropy T*S    EENTRO =        -0.01592350
  eigenvalues    EBANDS =     -3252.78012020
  atomic energy  EATOM  =      9695.49104897
  ---------------------------------------------------
  free energy    TOTEN  =      -630.00595856 eV

  energy without entropy =     -629.99003506  energy(sigma->0) =     -629.99799681
  exchange ACFDT corr.  =        -0.00872105  see jH, gK, PRB 81, 115126


--------------------------------------------------------------------------------------------------------




--------------------------------------- Iteration      1(  14)  ---------------------------------------


    POTLOK:  cpu time    6.3467: real time    6.3527
    SETDIJ:  cpu time    3.1875: real time    3.1930
    TRIAL :  cpu time  595.0115: real time  596.3126
    CORREC:  cpu time    0.0053: real time    0.0053
    CHARGE:  cpu time    1.6629: real time    1.6662
    --------------------------------------------
      LOOP:  cpu time  606.2147: real time  607.5333

 eigenvalue-minimisations  :     0
 total energy-change (2. order) :-0.3529081E-01  (-0.3304469E-01)
 number of electron     248.9999990 magnetization       1.1202557
 augmentation part       11.3953858 magnetization       1.5617818

 DIPCOR: dipole corrections for dipol
 direction  3 min pos     1,
 dipolmoment          -0.004071      0.003678     -0.399112 electrons x Angstroem
 Tr[quadrupol]     -6800.693555

 energy correction for charged system         0.000000 eV
 dipol+quadrupol energy correction            0.004555 eV
 added-field ion interaction          0.000000 eV  (added to PSCEN)


 Free energy of the ion-electron system (eV)
  ---------------------------------------------------
  alpha Z        PSCENC =       107.43675474
  Ewald energy   TEWEN  =     39594.98729108
  -Hartree energ DENC   =    -47942.66511675
  -exchange      EXHF   =       563.02379848
  -V(xc)+E(xc)   XCENC  =       610.66002131
  PAW double counting   =     27538.78302050   -27544.99045304
  entropy T*S    EENTRO =        -0.01496164
  eigenvalues    EBANDS =     -3252.75169116
  atomic energy  EATOM  =      9695.49104897
  ---------------------------------------------------
  free energy    TOTEN  =      -630.04124937 eV

  energy without entropy =     -630.02628772  energy(sigma->0) =     -630.03376855
  exchange ACFDT corr.  =        -0.00803966  see jH, gK, PRB 81, 115126


--------------------------------------------------------------------------------------------------------




--------------------------------------- Iteration      1(  15)  ---------------------------------------


    POTLOK:  cpu time    6.3237: real time    6.3456
    SETDIJ:  cpu time    3.2035: real time    3.2071
    TRIAL :  cpu time  594.9182: real time  596.2258
    CORREC:  cpu time    0.0024: real time    0.0024
    CHARGE:  cpu time    1.6547: real time    1.6568
    --------------------------------------------
      LOOP:  cpu time  606.1035: real time  607.4405

 eigenvalue-minimisations  :     0
 total energy-change (2. order) :-0.3096810E-01  (-0.2864099E-01)
 number of electron     248.9999990 magnetization       1.1111973
 augmentation part       11.3975539 magnetization       1.5625366

 DIPCOR: dipole corrections for dipol
 direction  3 min pos     1,
 dipolmoment          -0.004079      0.003686     -0.399914 electrons x Angstroem
 Tr[quadrupol]     -6800.697280

 energy correction for charged system         0.000000 eV
 dipol+quadrupol energy correction            0.004573 eV
 added-field ion interaction          0.000000 eV  (added to PSCEN)


 Free energy of the ion-electron system (eV)
  ---------------------------------------------------
  alpha Z        PSCENC =       107.43677307
  Ewald energy   TEWEN  =     39594.98729108
  -Hartree energ DENC   =    -47942.86583226
  -exchange      EXHF   =       563.10465011
  -V(xc)+E(xc)   XCENC  =       610.69214544
  PAW double counting   =     27540.91148171   -27547.15316948
  entropy T*S    EENTRO =        -0.01409501
  eigenvalues    EBANDS =     -3252.66164445
  atomic energy  EATOM  =      9695.49104897
  ---------------------------------------------------
  free energy    TOTEN  =      -630.07221747 eV

  energy without entropy =     -630.05812247  energy(sigma->0) =     -630.06516997
  exchange ACFDT corr.  =        -0.00743658  see jH, gK, PRB 81, 115126


--------------------------------------------------------------------------------------------------------




--------------------------------------- Iteration      1(  16)  ---------------------------------------


    POTLOK:  cpu time    6.3139: real time    6.3212
    SETDIJ:  cpu time    3.2138: real time    3.2166
    TRIAL :  cpu time  595.0299: real time  596.8917
    CORREC:  cpu time    0.0015: real time    0.0015
    CHARGE:  cpu time    1.6552: real time    1.6572
    --------------------------------------------
      LOOP:  cpu time  606.2150: real time  608.0918

 eigenvalue-minimisations  :     0
 total energy-change (2. order) :-0.2680569E-01  (-0.2452631E-01)
 number of electron     248.9999990 magnetization       1.1032628
 augmentation part       11.3994668 magnetization       1.5627881

 DIPCOR: dipole corrections for dipol
 direction  3 min pos     1,
 dipolmoment          -0.004088      0.003693     -0.400733 electrons x Angstroem
 Tr[quadrupol]     -6800.702964

 energy correction for charged system         0.000000 eV
 dipol+quadrupol energy correction            0.004592 eV
 added-field ion interaction          0.000000 eV  (added to PSCEN)


 Free energy of the ion-electron system (eV)
  ---------------------------------------------------
  alpha Z        PSCENC =       107.43679182
  Ewald energy   TEWEN  =     39594.98729108
  -Hartree energ DENC   =    -47943.08748816
  -exchange      EXHF   =       563.17782312
  -V(xc)+E(xc)   XCENC  =       610.72017543
  PAW double counting   =     27543.28382333   -27549.55754823
  entropy T*S    EENTRO =        -0.01331752
  eigenvalues    EBANDS =     -3252.53684550
  atomic energy  EATOM  =      9695.49104897
  ---------------------------------------------------
  free energy    TOTEN  =      -630.09902316 eV

  energy without entropy =     -630.08570564  energy(sigma->0) =     -630.09236440
  exchange ACFDT corr.  =        -0.00690332  see jH, gK, PRB 81, 115126


--------------------------------------------------------------------------------------------------------




--------------------------------------- Iteration      1(  17)  ---------------------------------------


    POTLOK:  cpu time    6.3272: real time    6.3344
    SETDIJ:  cpu time    3.1881: real time    3.1905
    TRIAL :  cpu time  595.1109: real time  596.3664
    CORREC:  cpu time    0.0013: real time    0.0013
    CHARGE:  cpu time    1.6542: real time    1.6560
    --------------------------------------------
      LOOP:  cpu time  606.2825: real time  607.5521

 eigenvalue-minimisations  :     0
 total energy-change (2. order) :-0.2293338E-01  (-0.2080512E-01)
 number of electron     248.9999990 magnetization       1.0963298
 augmentation part       11.4010640 magnetization       1.5627090

 DIPCOR: dipole corrections for dipol
 direction  3 min pos     1,
 dipolmoment          -0.004100      0.003705     -0.401970 electrons x Angstroem
 Tr[quadrupol]     -6800.710261

 energy correction for charged system         0.000000 eV
 dipol+quadrupol energy correction            0.004620 eV
 added-field ion interaction          0.000000 eV  (added to PSCEN)


 Free energy of the ion-electron system (eV)
  ---------------------------------------------------
  alpha Z        PSCENC =       107.43682021
  Ewald energy   TEWEN  =     39594.98729108
  -Hartree energ DENC   =    -47943.33191648
  -exchange      EXHF   =       563.24420269
  -V(xc)+E(xc)   XCENC  =       610.74514208
  PAW double counting   =     27545.73765005   -27552.04030110
  entropy T*S    EENTRO =        -0.01262282
  eigenvalues    EBANDS =     -3252.37857652
  atomic energy  EATOM  =      9695.49104897
  ---------------------------------------------------
  free energy    TOTEN  =      -630.12195654 eV

  energy without entropy =     -630.10933372  energy(sigma->0) =     -630.11564513
  exchange ACFDT corr.  =        -0.00643329  see jH, gK, PRB 81, 115126


--------------------------------------------------------------------------------------------------------




[...]


 VOLUME and BASIS-vectors are now :
 -----------------------------------------------------------------------------
  energy-cutoff  :      500.00
  volume of cell :     3176.90
      direct lattice vectors                 reciprocal lattice vectors
    12.859200000  0.000000000  0.000000000     0.077765335  0.000869090 -0.000785235
    -0.138632834 12.404725357  0.000000000     0.000000000  0.080614441  0.000742952
     0.203153165 -0.183548311 19.916018157     0.000000000  0.000000000  0.050210840

  length of vectors
    12.859200000 12.405500000 19.917900000     0.077774156  0.080617864  0.050210840


 FORCES acting on ions:
    Electron-Ion                     Ewald-Force                    Non-Local-Force
 -----------------------------------------------------------------------------------------------
   0.311E+01 -.253E+01 0.333E+02   -.318E+01 0.238E+01 -.334E+02   0.259E-01 0.126E+00 0.665E-01
   -.623E+00 -.164E+01 0.334E+02   0.842E+00 0.157E+01 -.335E+02   -.204E+00 0.838E-01 0.554E-01
   0.441E+01 -.172E+00 0.311E+02   -.434E+01 0.159E+00 -.310E+02   -.439E-01 0.276E-02 -.834E-01
   0.114E+02 -.457E+00 0.352E+02   -.116E+02 0.350E+00 -.350E+02   0.242E+00 0.112E+00 -.180E+00
   0.472E+01 0.932E+00 0.218E+02   -.475E+01 -.996E+00 -.219E+02   0.417E-01 0.401E-01 0.664E-01
   0.942E+00 0.366E+01 0.279E+02   -.882E+00 -.399E+01 -.280E+02   -.818E-01 0.308E+00 0.623E-01
   0.166E+01 0.394E+01 0.253E+02   -.171E+01 -.409E+01 -.252E+02   0.157E-01 0.128E+00 -.478E-01
   0.154E+02 0.536E+01 0.550E+01   -.156E+02 -.544E+01 -.557E+01   0.351E+00 -.462E-01 0.271E-01
   0.142E+02 0.444E+02 0.393E+01   -.160E+02 -.470E+02 -.490E+01   0.157E+01 0.283E+01 0.989E+00
   0.120E+02 0.541E+01 0.965E+01   -.121E+02 -.537E+01 -.957E+01   0.134E+00 0.527E-02 -.621E-01
   0.117E+02 0.965E+01 0.172E+02   -.118E+02 -.100E+02 -.173E+02   0.142E+00 0.301E+00 0.970E-01
   0.218E+02 -.338E+02 -.165E+02   -.234E+02 0.368E+02 0.161E+02   0.159E+01 -.323E+01 0.415E+00
   0.731E+01 -.439E+01 0.159E+02   -.730E+01 0.469E+01 -.158E+02   -.555E-02 -.277E+00 -.112E-01
   0.141E+02 -.842E+01 0.857E+01   -.143E+02 0.875E+01 -.874E+01   0.187E+00 -.336E+00 0.159E+00
   0.126E+02 -.744E+01 -.161E+02   -.121E+02 0.745E+01 0.160E+02   -.404E+00 0.836E-01 0.897E-01
   0.645E+01 -.647E+01 0.231E+02   -.634E+01 0.651E+01 -.234E+02   -.789E-01 0.569E-02 0.279E+00
   0.219E+01 -.275E+01 0.336E+02   -.198E+01 0.283E+01 -.336E+02   -.162E+00 -.804E-01 0.765E-01
   0.583E+01 -.323E+01 0.274E+02   -.582E+01 0.335E+01 -.274E+02   -.194E-01 -.108E+00 0.629E-01
   0.598E+01 -.358E+01 0.280E+02   -.617E+01 0.367E+01 -.276E+02   0.139E+00 -.888E-01 -.298E+00
   -.497E+00 0.451E+01 0.661E+02   0.927E-01 -.451E+01 -.660E+02   0.327E+00 -.325E-02 -.852E-01
   0.640E+01 0.692E+01 0.612E+02   -.690E+01 -.728E+01 -.612E+02   0.458E+00 0.383E+00 0.869E-01
   0.281E+01 0.313E+00 0.653E+02   -.296E+01 -.400E+00 -.654E+02   0.158E+00 0.748E-01 0.150E+00
   -.565E+01 0.732E+01 0.774E+02   0.571E+01 -.766E+01 -.775E+02   -.104E+00 0.349E+00 0.104E+00
   0.134E+01 0.130E+02 0.816E+02   -.150E+01 -.136E+02 -.814E+02   0.194E+00 0.633E+00 -.684E-01
   0.376E+02 0.285E+02 0.313E+02   -.402E+02 -.319E+02 -.324E+02   0.249E+01 0.323E+01 0.110E+01
   0.762E+01 0.110E+02 0.681E+02   -.801E+01 -.116E+02 -.682E+02   0.295E+00 0.546E+00 0.207E+00
   -.125E+02 0.108E+02 0.924E+02   0.131E+02 -.119E+02 -.931E+02   -.563E+00 0.102E+01 0.786E+00
   -.182E+02 0.852E+01 0.425E+02   0.200E+02 -.120E+02 -.444E+02   -.171E+01 0.340E+01 0.214E+01
   0.182E+02 -.438E+02 -.716E+02   -.194E+02 0.452E+02 0.699E+02   0.113E+01 -.165E+01 0.188E+01
   0.144E+02 -.120E+02 0.519E+01   -.166E+02 0.151E+02 -.581E+01   0.227E+01 -.307E+01 0.649E+00
   0.454E+01 -.109E+01 0.407E+02   -.473E+01 0.991E+00 -.409E+02   0.203E+00 0.831E-01 0.249E+00
   -.662E+01 -.435E+01 0.893E-01   0.616E+01 0.397E+01 -.198E+00   0.412E+00 0.502E+00 0.825E-01
   -.337E+01 -.359E+01 0.507E+02   0.322E+01 0.388E+01 -.510E+02   0.467E-01 -.299E+00 0.360E+00
   -.357E+01 -.979E+00 0.431E+02   0.377E+01 0.995E+00 -.431E+02   -.159E+00 -.121E-01 -.111E-02
   -.572E+01 0.396E+01 0.670E+02   0.581E+01 -.404E+01 -.669E+02   -.703E-01 0.113E+00 -.170E-01
   -.595E+01 0.208E+01 0.522E+02   0.622E+01 -.206E+01 -.522E+02   -.288E+00 -.481E-01 0.951E-01
   -.238E+01 0.334E+01 0.423E+02   0.260E+01 -.340E+01 -.423E+02   -.225E+00 0.686E-01 0.292E-01
   -.571E+01 0.101E+01 0.480E+02   0.605E+01 -.109E+01 -.479E+02   -.268E+00 0.841E-01 -.383E-01
   -.149E+02 0.261E+01 0.680E+02   0.155E+02 -.287E+01 -.679E+02   -.560E+00 0.265E+00 -.383E-01
   -.944E+01 0.601E+01 0.656E+02   0.978E+01 -.631E+01 -.656E+02   -.363E+00 0.275E+00 0.104E+00
   -.279E+01 0.130E+01 0.393E+02   0.299E+01 -.142E+01 -.394E+02   -.190E+00 0.835E-01 0.888E-01
   -.746E+01 0.120E+01 0.330E+02   0.803E+01 -.121E+01 -.330E+02   -.517E+00 0.168E-01 0.707E-01
   -.340E+02 -.241E+02 0.814E+01   0.380E+02 0.242E+02 -.943E+01   -.396E+01 -.168E+00 0.124E+01
   -.147E+02 -.263E+01 0.426E+02   0.155E+02 0.244E+01 -.427E+02   -.734E+00 0.213E+00 0.144E+00
   0.162E+01 -.515E+01 0.120E+02   -.168E+01 0.519E+01 -.120E+02   0.240E-01 -.417E-01 -.657E-01
   0.371E+01 -.915E+00 0.176E+01   -.342E+01 0.102E+01 -.181E+01   -.215E+00 -.900E-01 0.442E-01
   -.281E+02 0.164E+02 -.316E+01   0.314E+02 -.160E+02 0.186E+01   -.331E+01 -.233E+00 0.129E+01
   -.187E+01 -.747E+01 -.121E+02   0.219E+01 0.773E+01 0.114E+02   -.294E+00 -.240E+00 0.580E+00
   0.201E+01 -.749E+00 0.120E+02   -.180E+01 0.793E+00 -.119E+02   -.174E+00 -.639E-01 -.584E-01
   -.259E+01 -.109E+01 0.259E+02   0.301E+01 0.112E+01 -.259E+02   -.368E+00 0.104E-01 0.975E-01
   -.692E+01 -.183E+01 0.390E+02   0.709E+01 0.212E+01 -.389E+02   -.113E+00 -.251E+00 -.856E-01
   -.106E+02 -.260E+00 0.229E+02   0.111E+02 0.454E+00 -.229E+02   -.480E+00 -.217E+00 0.290E-01
   -.384E+00 0.123E+01 0.349E+02   0.520E+00 -.116E+01 -.349E+02   -.151E+00 -.662E-01 0.321E-01
   -.125E+02 0.524E+01 -.482E+02   0.336E+02 -.446E+01 0.522E+02   -.205E+02 -.858E+00 -.411E+01
   0.239E+02 -.922E+01 -.301E+02   -.327E+02 0.244E+02 0.354E+02   0.887E+01 -.146E+02 -.545E+01
   0.137E+02 -.817E+02 -.542E+02   -.247E+02 0.988E+02 0.589E+02   0.104E+02 -.163E+02 -.459E+01
   -.307E+02 -.566E+02 -.440E+03   0.371E+02 0.518E+02 0.457E+03   -.584E+01 0.477E+01 -.157E+02
   0.223E+02 0.563E+02 -.738E+02   -.334E+02 -.733E+02 0.787E+02   0.105E+02 0.161E+02 -.482E+01
   0.155E+02 0.823E+02 -.571E+03   -.162E+02 -.791E+02 0.568E+03   -.145E+01 -.374E+01 0.357E+01
   -.858E+02 -.371E+01 -.367E+03   0.842E+02 0.549E+01 0.363E+03   0.407E+01 -.967E+00 0.460E+01
 -----------------------------------------------------------------------------------------------
   -.268E+01 0.116E+02 0.158E+02   -.327E-12 0.711E-14 -.568E-13   0.267E+01 -.109E+02 -.135E+02
 
 
 POSITION                                       TOTAL-FORCE (eV/Angst)
 -----------------------------------------------------------------------------------
      2.94451     -0.07435      9.79017        -0.047040     -0.015383      0.022201
      0.81459      1.16295      9.72822         0.000724      0.017361      0.015458
      1.51794     -0.08160      9.76084         0.033535     -0.006636      0.012035
      3.65256      1.17822      9.77292         0.029069      0.008434      0.013086
      2.95761      2.44172      9.85200         0.005506     -0.026720      0.020118
      0.78802      3.64512      9.82070        -0.027749     -0.008838      0.009484
      1.52091      2.41566      9.79696        -0.028120     -0.011089      0.008477
      3.67730      3.69540     10.01551         0.104443     -0.134490     -0.047812
      2.89607      4.94808     10.13173        -0.182375      0.373445      0.066487
      0.71318      6.12660      9.98229         0.067857      0.058005      0.008608
      1.46957      4.89881      9.96327         0.051431     -0.040300      0.021984
      2.81191      7.36860     10.26961         0.114540     -0.353590      0.052807
      0.66907      8.59912      9.94941         0.001727      0.017272      0.013562
      1.39712      7.37301     10.05172        -0.035358     -0.025848     -0.002066
      3.50851      8.63906     10.29914         0.036727      0.110521     -0.020001
      2.80375      9.84914      9.99685         0.019012      0.053426      0.031214
      0.66779     11.07768      9.78344         0.041535     -0.000326      0.028768
      1.37792      9.84288      9.89191        -0.007015      0.014724      0.033487
      3.51847     11.09263      9.89089        -0.046274     -0.003584      0.006074
      7.08579     12.28979      9.66786        -0.058724      0.005756      0.067405
      5.07418      1.14613      9.69858        -0.012596      0.047474      0.053830
      5.65789     12.31287      9.70870         0.012648     -0.013757      0.053421
      7.94558      1.11140      9.57922        -0.050624      0.033069      0.036323
      7.22632      2.33502      9.62499         0.048842      0.030128      0.101834
      5.12806      3.60576      9.98982         0.035373      0.021424      0.087885
      5.79672      2.37040      9.72354        -0.083135     -0.027420      0.095364
      7.95912      3.54491      9.69255         0.025492     -0.038126      0.101785
      7.26529      4.71437     10.04627        -0.030620      0.153517      0.345387
      4.89647      8.77333     10.67539         0.027285     -0.352613      0.307980
      7.11391      9.86193     10.12713         0.224949     -0.181725      0.066046
      4.95393     11.08986      9.89661         0.022930     -0.009690      0.093237
      5.67309      9.89577     10.20271        -0.040323      0.147738     -0.019329
      7.80846     11.06650      9.80984        -0.098915     -0.024058      0.079904
     11.38922     12.30326      9.67395         0.036384      0.000413      0.020866
      9.37714      1.12014      9.57942         0.020568      0.041062      0.056755
      9.95680     12.29178      9.65011        -0.034601     -0.031623      0.032689
     12.24349      1.14537      9.66781        -0.014952      0.013076      0.016176
     11.52461      2.37790      9.65217         0.055600      0.008582      0.025371
      9.37729      3.57970      9.67059        -0.023142      0.009458      0.075306
     10.09571      2.35754      9.59815        -0.044533     -0.012813      0.041562
     12.21780      3.62970      9.74079         0.005548     -0.028856      0.027653
     11.47962      4.85737      9.81222         0.014670      0.022034      0.021631
      9.29574      6.01421     10.06049        -0.123586     -0.123593      0.016035
     10.05705      4.82982      9.81893        -0.031366      0.042457      0.036416
     12.13981      6.11509      9.92577        -0.035998     -0.017950     -0.006113
     11.37890      7.34084      9.98257         0.068624      0.014199     -0.002112
      9.21476      8.61238     10.11629        -0.208111      0.167811      0.057457
      9.92450      7.32530     10.08710         0.017364      0.002754     -0.027003
     12.09410      8.58284      9.92596         0.024311     -0.021031      0.000618
     11.38233      9.82172      9.84363         0.031398      0.036923      0.012387
      9.24103     11.06197      9.77525         0.054311      0.028078      0.018613
      9.95146      9.82263      9.89790        -0.003839     -0.035064      0.010657
     12.09575     11.06439      9.75210        -0.022623     -0.000680      0.025821
      3.48843      6.17339     10.40761        -1.178845     -0.151554     -0.439680
      5.92048      4.70060     10.29438         0.798727     -0.718083     -0.571450
      7.93633      5.88038     10.30048         0.226834     -0.666307     -0.314553
      5.46846      7.91942     11.52725         0.100801      0.390855     -0.355834
      7.84125      8.70039     10.37315         0.346501      0.502101     -0.323728
      5.24011      6.11142     11.32858        -1.391532     -0.107586     -0.203216
      7.25687      7.23085     11.65220         1.156725      0.817235     -0.017364
 -----------------------------------------------------------------------------------
    total drift:                                0.019864     -0.032390      0.081549


--------------------------------------------------------------------------------------------------------



  FREE ENERGIE OF THE ION-ELECTRON SYSTEM (eV)
  ---------------------------------------------------
  free  energy   TOTEN  =      -630.27403291 eV

  energy  without entropy=     -630.26794608  energy(sigma->0) =     -630.27098950
 


--------------------------------------------------------------------------------------------------------


    POTLOK:  cpu time    9.4610: real time    9.4702


--------------------------------------------------------------------------------------------------------


 stress matrix after NEB project (eV)
    -40.34401      1.66280      0.22230
      1.66363    -43.59255      1.26752
      0.22236      1.26935     -2.01831
  FORCES: max atom, RMS     1.416399    0.399393
  FORCE total and by dimension    3.093688    1.391532
  Stress total and by dimension   59.505234   43.592553
 writing wavefunctions
     LOOP+:  cpu time62587.2967: real time62725.5048
    4ORBIT:  cpu time    0.0000: real time    0.0000
 


 total charge     
 
# of ion       s       p       d       tot
------------------------------------------
    1        0.864   1.756   0.000   2.620
    2        0.863   1.757   0.000   2.620
    3        0.863   1.770   0.000   2.633
    4        0.860   1.761   0.000   2.621
    5        0.858   1.727   0.000   2.585
    6        0.863   1.759   0.000   2.623
    7        0.860   1.757   0.000   2.617
    8        0.843   1.724   0.000   2.567
    9        0.848   1.691   0.000   2.538
   10        0.865   1.753   0.000   2.618
   11        0.861   1.758   0.000   2.619
   12        0.856   1.713   0.000   2.569
   13        0.863   1.762   0.000   2.625
   14        0.866   1.777   0.000   2.644
   15        0.858   1.766   0.000   2.624
   16        0.864   1.751   0.000   2.615
   17        0.865   1.760   0.000   2.625
   18        0.864   1.768   0.000   2.632
   19        0.860   1.765   0.000   2.625
   20        0.866   1.769   0.000   2.635
   21        0.867   1.768   0.000   2.636
   22        0.864   1.774   0.000   2.638
   23        0.866   1.778   0.000   2.644
   24        0.869   1.774   0.000   2.644
   25        0.854   1.711   0.000   2.565
   26        0.865   1.779   0.000   2.644
   27        0.873   1.816   0.000   2.689
   28        0.863   1.732   0.000   2.595
   29        0.868   1.723   0.000   2.591
   30        0.856   1.710   0.000   2.566
   31        0.867   1.759   0.000   2.626
   32        0.860   1.772   0.000   2.632
   33        0.865   1.776   0.000   2.641
   34        0.863   1.760   0.000   2.624
   35        0.866   1.761   0.000   2.627
   36        0.864   1.770   0.000   2.634
   37        0.863   1.763   0.000   2.626
   38        0.865   1.764   0.000   2.629
   39        0.870   1.774   0.000   2.644
   40        0.866   1.776   0.000   2.642
   41        0.862   1.762   0.000   2.624
   42        0.866   1.769   0.000   2.635
   43        0.855   1.712   0.000   2.567
   44        0.865   1.782   0.000   2.647
   45        0.861   1.763   0.000   2.624
   46        0.858   1.730   0.000   2.588
   47        0.848   1.694   0.000   2.542
   48        0.845   1.729   0.000   2.573
   49        0.862   1.762   0.000   2.624
   50        0.863   1.759   0.000   2.622
   51        0.865   1.757   0.000   2.622
   52        0.863   1.766   0.000   2.630
   53        0.864   1.763   0.000   2.626
   54        1.232   2.667   0.000   3.899
   55        1.230   2.720   0.000   3.950
   56        1.236   2.708   0.000   3.944
   57        1.257   2.624   0.000   3.881
   58        1.231   2.664   0.000   3.895
   59        0.487   0.611   6.242   7.341
   60        0.508   0.646   2.754   3.908
--------------------------------------------------
tot         52.866 107.673   8.996 169.535
 


 magnetization (x)
 
# of ion       s       p       d       tot
------------------------------------------
    1       -0.002  -0.023   0.000  -0.025
    2       -0.002  -0.029   0.000  -0.031
    3        0.001   0.013   0.000   0.014
    4        0.001   0.011   0.000   0.012
    5       -0.002  -0.019   0.000  -0.020
    6       -0.002  -0.033   0.000  -0.036
    7        0.002   0.019   0.000   0.021
    8        0.002   0.017   0.000   0.020
    9       -0.003  -0.043   0.000  -0.046
   10       -0.002  -0.029   0.000  -0.031
   11        0.002   0.019   0.000   0.022
   12       -0.002  -0.023   0.000  -0.025
   13       -0.002  -0.035   0.000  -0.038
   14        0.002   0.018   0.000   0.020
   15        0.002   0.011   0.000   0.013
   16       -0.002  -0.023   0.000  -0.024
   17       -0.002  -0.022   0.000  -0.024
   18        0.001   0.013   0.000   0.015
   19        0.001   0.014   0.000   0.015
   20       -0.001  -0.019   0.000  -0.020
   21       -0.001  -0.017   0.000  -0.018
   22        0.001   0.002   0.000   0.002
   23        0.001   0.012   0.000   0.013
   24       -0.001  -0.017   0.000  -0.019
   25       -0.001  -0.028   0.000  -0.029
   26        0.001   0.007   0.000   0.008
   27        0.001   0.006   0.000   0.007
   28       -0.000  -0.010   0.000  -0.011
   29       -0.002  -0.029   0.000  -0.031
   30       -0.002  -0.021   0.000  -0.023
   31       -0.001  -0.012   0.000  -0.013
   32        0.001   0.010   0.000   0.011
   33        0.001   0.008   0.000   0.009
   34       -0.002  -0.035   0.000  -0.037
   35       -0.002  -0.020   0.000  -0.021
   36        0.001   0.013   0.000   0.014
   37        0.002   0.017   0.000   0.019
   38       -0.002  -0.030   0.000  -0.032
   39       -0.002  -0.022   0.000  -0.024
   40        0.001   0.015   0.000   0.016
   41        0.002   0.017   0.000   0.018
   42       -0.003  -0.040   0.000  -0.042
   43       -0.003  -0.038   0.000  -0.041
   44        0.002   0.014   0.000   0.016
   45        0.002   0.020   0.000   0.022
   46       -0.002  -0.027   0.000  -0.030
   47       -0.004  -0.048   0.000  -0.052
   48        0.002   0.017   0.000   0.019
   49        0.002   0.017   0.000   0.019
   50       -0.002  -0.031   0.000  -0.033
   51       -0.002  -0.027   0.000  -0.029
   52        0.002   0.019   0.000   0.021
   53        0.002   0.018   0.000   0.020
   54        0.006   0.035   0.000   0.041
   55       -0.003  -0.024   0.000  -0.027
   56        0.003   0.010   0.000   0.013
   57        0.002   0.019   0.000   0.021
   58        0.001  -0.000   0.000   0.001
   59        0.032   0.036   2.975   3.043
   60       -0.058  -0.045  -1.120  -1.222
--------------------------------------------------
tot         -0.029  -0.374   1.856   1.452
 

 total amount of memory used by VASP MPI-rank0   324401. kBytes
=======================================================================

   base      :      30000. kBytes
   nonl-proj :      10758. kBytes
   fftplans  :      26523. kBytes
   grid      :      69087. kBytes
   one-center:        124. kBytes
   HF        :         23. kBytes
   nonlr-proj:      31097. kBytes
   wavefun   :     156789. kBytes
 
  
  
 General timing and accounting informations for this job:
 ========================================================
  
                  Total CPU time used (sec):    62647.320
                            User time (sec):    62608.023
                          System time (sec):       39.296
                         Elapsed time (sec):    62792.478
  
                   Maximum memory used (kb):      587540.
                   Average memory used (kb):           0.
  
                          Minor page faults:      3987476
                          Major page faults:          218
                 Voluntary context switches:        60497
