 vasp.5.4.4.18Apr17-6-g9f103f2a35 (build Feb 25 2019 10:51:38) complex          
  
 executed on             LinuxIFC date 2021.07.23  15:56:32
 running on   32 total cores
 distrk:  each k-point on   32 cores,    1 groups
 distr:  one band on NCORES_PER_BAND=  32 cores,    1 groups


--------------------------------------------------------------------------------------------------------


 INCAR:
 POTCAR:    PAW_PBE C 08Apr2002                   
 POTCAR:    PAW_PBE N 08Apr2002                   
 POTCAR:    PAW_PBE Fe 06Sep2000                  
 POTCAR:    PAW_PBE V 08Apr2002                   

 ----------------------------------------------------------------------------- 
|                                                                             |
|           W    W    AA    RRRRR   N    N  II  N    N   GGGG   !!!           |
|           W    W   A  A   R    R  NN   N  II  NN   N  G    G  !!!           |
|           W    W  A    A  R    R  N N  N  II  N N  N  G       !!!           |
|           W WW W  AAAAAA  RRRRR   N  N N  II  N  N N  G  GGG   !            |
|           WW  WW  A    A  R   R   N   NN  II  N   NN  G    G                |
|           W    W  A    A  R    R  N    N  II  N    N   GGGG   !!!           |
|                                                                             |
|      For optimal performance we recommend to set                            |
|        NCORE= 4 - approx SQRT( number of cores)                             |
|      NCORE specifies how many cores store one orbital (NPAR=cpu/NCORE).     |
|      This setting can  greatly improve the performance of VASP for DFT.     |
|      The default,   NCORE=1            might be grossly inefficient         |
|      on modern multi-core architectures or massively parallel machines.     |
|      Do your own testing !!!!                                               |
|      Unfortunately you need to use the default for GW and RPA calculations. |
|      (for HF NCORE is supported but not extensively tested yet)             |
|                                                                             |
 ----------------------------------------------------------------------------- 

 POTCAR:    PAW_PBE C 08Apr2002                   
   VRHFIN =C: s2p2                                                              
   LEXCH  = PE                                                                  
   EATOM  =   147.1560 eV,   10.8157 Ry                                         
                                                                                
   TITEL  = PAW_PBE C 08Apr2002                                                 
   LULTRA =        F    use ultrasoft PP ?                                      
   IUNSCR =        1    unscreen: 0-lin 1-nonlin 2-no                           
   RPACOR =    1.200    partial core radius                                     
   POMASS =   12.011; ZVAL   =    4.000    mass and valenz                      
   RCORE  =    1.500    outmost cutoff radius                                   
   RWIGS  =    1.630; RWIGS  =    0.863    wigner-seitz radius (au A)           
   ENMAX  =  400.000; ENMIN  =  300.000 eV                                      
   ICORE  =        2    local potential                                         
   LCOR   =        T    correct aug charges                                     
   LPAW   =        T    paw PP                                                  
   EAUG   =  644.873                                                            
   DEXC   =    0.000                                                            
   RMAX   =    1.529    core radius for proj-oper                               
   RAUG   =    1.300    factor for augmentation sphere                          
   RDEP   =    1.501    radius for radial grids                                 
   RDEPT  =    1.300    core radius for aug-charge                              
                                                                                
   Atomic configuration                                                         
    4 entries                                                                   
     n  l   j            E        occ.                                          
     1  0  0.50      -273.3789   2.0000                                         
     2  0  0.50       -13.7508   2.0000                                         
     2  1  0.50        -5.2854   2.0000                                         
     3  2  1.50        -5.4423   0.0000                                         
   Description                                                                  
     l       E           TYP  RCUT    TYP  RCUT                                 
     0    -13.7508458     23  1.200                                             
     0     -8.2022199     23  1.200                                             
     1     -5.2854383     23  1.500                                             
     1     34.0145650     23  1.500                                             
     2     -5.4423304      7  1.500                                             
  local pseudopotential read in
  partial core-charges read in
  partial kinetic energy density read in
  atomic valenz-charges read in
  non local Contribution for L=           0  read in
    real space projection operators read in
  non local Contribution for L=           0  read in
    real space projection operators read in
  non local Contribution for L=           1  read in
    real space projection operators read in
  non local Contribution for L=           1  read in
    real space projection operators read in
    PAW grid and wavefunctions read in
 
   number of l-projection  operators is LMAX  =           4
   number of lm-projection operators is LMMAX =           8
 
 POTCAR:    PAW_PBE N 08Apr2002                   
   VRHFIN =N: s2p3                                                              
   LEXCH  = PE                                                                  
   EATOM  =   264.5486 eV,   19.4438 Ry                                         
                                                                                
   TITEL  = PAW_PBE N 08Apr2002                                                 
   LULTRA =        F    use ultrasoft PP ?                                      
   IUNSCR =        1    unscreen: 0-lin 1-nonlin 2-no                           
   RPACOR =    1.200    partial core radius                                     
   POMASS =   14.001; ZVAL   =    5.000    mass and valenz                      
   RCORE  =    1.500    outmost cutoff radius                                   
   RWIGS  =    1.400; RWIGS  =    0.741    wigner-seitz radius (au A)           
   ENMAX  =  400.000; ENMIN  =  300.000 eV                                      
   ICORE  =        2    local potential                                         
   LCOR   =        T    correct aug charges                                     
   LPAW   =        T    paw PP                                                  
   EAUG   =  627.112                                                            
   DEXC   =    0.000                                                            
   RMAX   =    1.529    core radius for proj-oper                               
   RAUG   =    1.300    factor for augmentation sphere                          
   RDEP   =    1.514    radius for radial grids                                 
   RDEPT  =    1.338    core radius for aug-charge                              
                                                                                
   Atomic configuration                                                         
    4 entries                                                                   
     n  l   j            E        occ.                                          
     1  0  0.50      -384.7179   2.0000                                         
     2  0  0.50       -18.5828   2.0000                                         
     2  1  0.50        -7.0898   3.0000                                         
     3  2  1.50        -6.8029   0.0000                                         
   Description                                                                  
     l       E           TYP  RCUT    TYP  RCUT                                 
     0    -18.5828119     23  1.200                                             
     0    -13.5018863     23  1.200                                             
     1     -7.0897853     23  1.500                                             
     1      9.5240782     23  1.500                                             
     2     -6.8029130      7  1.500                                             
  local pseudopotential read in
  partial core-charges read in
  partial kinetic energy density read in
  atomic valenz-charges read in
  non local Contribution for L=           0  read in
    real space projection operators read in
  non local Contribution for L=           0  read in
    real space projection operators read in
  non local Contribution for L=           1  read in
    real space projection operators read in
  non local Contribution for L=           1  read in
    real space projection operators read in
    PAW grid and wavefunctions read in
 
   number of l-projection  operators is LMAX  =           4
   number of lm-projection operators is LMMAX =           8
 
 POTCAR:    PAW_PBE Fe 06Sep2000                  
   VRHFIN =Fe:  d7 s1                                                           
   LEXCH  = PE                                                                  
   EATOM  =   594.3153 eV,   43.6809 Ry                                         
                                                                                
   TITEL  = PAW_PBE Fe 06Sep2000                                                
   LULTRA =        F    use ultrasoft PP ?                                      
   IUNSCR =        1    unscreen: 0-lin 1-nonlin 2-no                           
   RPACOR =    2.000    partial core radius                                     
   POMASS =   55.847; ZVAL   =    8.000    mass and valenz                      
   RCORE  =    2.300    outmost cutoff radius                                   
   RWIGS  =    2.460; RWIGS  =    1.302    wigner-seitz radius (au A)           
   ENMAX  =  267.882; ENMIN  =  200.911 eV                                      
   RCLOC  =    1.701    cutoff for local pot                                    
   LCOR   =        T    correct aug charges                                     
   LPAW   =        T    paw PP                                                  
   EAUG   =  511.368                                                            
   DEXC   =    0.000                                                            
   RMAX   =    2.356    core radius for proj-oper                               
   RAUG   =    1.300    factor for augmentation sphere                          
   RDEP   =    2.442    radius for radial grids                                 
   RDEPT  =    1.890    core radius for aug-charge                              
                                                                                
   Atomic configuration                                                         
    9 entries                                                                   
     n  l   j            E        occ.                                          
     1  0  0.50     -6993.8440   2.0000                                         
     2  0  0.50      -814.6047   2.0000                                         
     2  1  1.50      -693.3689   6.0000                                         
     3  0  0.50       -89.4732   2.0000                                         
     3  1  1.50       -55.6373   6.0000                                         
     3  2  2.50        -3.8151   7.0000                                         
     4  0  0.50        -4.2551   1.0000                                         
     4  1  1.50        -3.4015   0.0000                                         
     4  3  2.50        -1.3606   0.0000                                         
   Description                                                                  
     l       E           TYP  RCUT    TYP  RCUT                                 
     2     -3.8151135     23  2.300                                             
     2     -5.1756961     23  2.300                                             
     0     -4.2550963     23  2.300                                             
     0      7.2035603     23  2.300                                             
     1     -2.7211652     23  2.300                                             
     1     18.4316424     23  2.300                                             
  local pseudopotential read in
  partial core-charges read in
  partial kinetic energy density read in
  atomic valenz-charges read in
  non local Contribution for L=           2  read in
    real space projection operators read in
  non local Contribution for L=           2  read in
    real space projection operators read in
  non local Contribution for L=           0  read in
    real space projection operators read in
  non local Contribution for L=           0  read in
    real space projection operators read in
  non local Contribution for L=           1  read in
    real space projection operators read in
  non local Contribution for L=           1  read in
    real space projection operators read in
    PAW grid and wavefunctions read in
 
   number of l-projection  operators is LMAX  =           6
   number of lm-projection operators is LMMAX =          18
 
 POTCAR:    PAW_PBE V 08Apr2002                   
   VRHFIN =V: p6 d4 s1                                                          
   LEXCH  = PE                                                                  
   EATOM  =   170.8679 eV,   12.5584 Ry                                         
                                                                                
   TITEL  = PAW_PBE V 08Apr2002                                                 
   LULTRA =        F    use ultrasoft PP ?                                      
   IUNSCR =        1    unscreen: 0-lin 1-nonlin 2-no                           
   RPACOR =    2.000    partial core radius                                     
   POMASS =   50.941; ZVAL   =    5.000    mass and valenz                      
   RCORE  =    2.700    outmost cutoff radius                                   
   RWIGS  =    2.500; RWIGS  =    1.323    wigner-seitz radius (au A)           
   ENMAX  =  192.543; ENMIN  =  144.408 eV                                      
   RCLOC  =    1.779    cutoff for local pot                                    
   LCOR   =        T    correct aug charges                                     
   LPAW   =        T    paw PP                                                  
   EAUG   =  358.662                                                            
   DEXC   =    0.000                                                            
   RMAX   =    2.768    core radius for proj-oper                               
   RAUG   =    1.300    factor for augmentation sphere                          
   RDEP   =    2.762    radius for radial grids                                 
   RDEPT  =    2.240    core radius for aug-charge                              
                                                                                
   Atomic configuration                                                         
    9 entries                                                                   
     n  l   j            E        occ.                                          
     1  0  0.50     -5360.7193   2.0000                                         
     2  0  0.50      -598.4546   2.0000                                         
     2  1  1.50      -499.0155   6.0000                                         
     3  0  0.50       -66.5711   2.0000                                         
     3  1  1.50       -40.5282   6.0000                                         
     3  2  2.50        -2.4291   4.0000                                         
     4  0  0.50        -3.8743   1.0000                                         
     4  1  0.50        -2.7212   0.0000                                         
     4  3  2.50        -1.3606   0.0000                                         
   Description                                                                  
     l       E           TYP  RCUT    TYP  RCUT                                 
     2     -2.4290901     23  2.700                                             
     2     -3.7896727     23  2.700                                             
     0     -3.8742752     23  2.700                                             
     0     27.2116520     23  2.700                                             
     1     -2.7211652     23  2.700                                             
     1     27.2116520     23  2.700                                             
  local pseudopotential read in
  partial core-charges read in
  partial kinetic energy density read in
  atomic valenz-charges read in
  non local Contribution for L=           2  read in
    real space projection operators read in
  non local Contribution for L=           2  read in
    real space projection operators read in
  non local Contribution for L=           0  read in
    real space projection operators read in
  non local Contribution for L=           0  read in
    real space projection operators read in
  non local Contribution for L=           1  read in
    real space projection operators read in
  non local Contribution for L=           1  read in
    real space projection operators read in
    PAW grid and wavefunctions read in
 
   number of l-projection  operators is LMAX  =           6
   number of lm-projection operators is LMMAX =          18
 

 ----------------------------------------------------------------------------- 
|                                                                             |
|  ADVICE TO THIS USER RUNNING 'VASP/VAMP'   (HEAR YOUR MASTER'S VOICE ...):  |
|                                                                             |
|      You have a (more or less) 'large supercell' and for larger cells       |
|      it might be more efficient to use real space projection opertators     |
|      So try LREAL= Auto  in the INCAR   file.                               |
|      Mind:          For very  accurate calculation you might also keep the  |
|      reciprocal projection scheme          (i.e. LREAL=.FALSE.)             |
|                                                                             |
 ----------------------------------------------------------------------------- 

  PAW_PBE C 08Apr2002                   :
 energy of atom  1       EATOM= -147.1560
 kinetic energy error for atom=    0.0076 (will be added to EATOM!!)
  PAW_PBE N 08Apr2002                   :
 energy of atom  2       EATOM= -264.5486
 kinetic energy error for atom=    0.0138 (will be added to EATOM!!)
  PAW_PBE Fe 06Sep2000                  :
 energy of atom  3       EATOM= -594.3153
 kinetic energy error for atom=    0.0026 (will be added to EATOM!!)
  PAW_PBE V 08Apr2002                   :
 energy of atom  4       EATOM= -170.8679
 kinetic energy error for atom=    0.0003 (will be added to EATOM!!)
 
 
 POSCAR:  C  N Fe  V                             
  positions in cartesian coordinates
  No initial velocities read in
 exchange correlation table for  LEXCH =        8
   RHO(1)=    0.500       N(1)  =     2000
   RHO(2)=  100.500       N(2)  =     4000

 VTST: version 3.2, (02/03/18)

 CHAIN: initializing optimizer
 
 OPT: Using VASP Conjugate-Gradient optimizer
 CHAIN: Read ICHAIN            0
 
 POSCAR:  C  N Fe  V                             
  positions in cartesian coordinates
  No initial velocities read in
 


--------------------------------------------------------------------------------------------------------


 ion  position               nearest neighbor table
   1  0.221  0.998  0.499-   3 1.41   4 1.42  17 1.43
   2  0.054  0.099  0.499-  34 1.41   7 1.43   3 1.44
   3  0.110  0.999  0.499-   1 1.41  15 1.43   2 1.44
   4  0.276  0.096  0.499-  19 1.41   5 1.42   1 1.42
   5  0.220  0.194  0.500-   7 1.41   4 1.42   8 1.42
   6  0.055  0.299  0.500-  38 1.43   7 1.44  10 1.45
   7  0.109  0.198  0.500-   5 1.41   2 1.43   6 1.44
   8  0.276  0.292  0.503-  53 1.38  51 1.42   5 1.42
   9  0.063  0.499  0.500-  10 1.45  42 1.46  12 1.47
  10  0.116  0.396  0.501-  53 1.37   9 1.45   6 1.45
  11  0.059  0.699  0.499-  46 1.42  16 1.44  12 1.45
  12  0.119  0.600  0.499-  54 1.38  11 1.45   9 1.47
  13  0.279  0.702  0.498-  54 1.38  14 1.42  25 1.43
  14  0.223  0.801  0.498-  16 1.42  13 1.42  17 1.42
  15  0.056  0.899  0.499-  50 1.41  16 1.43   3 1.43
  16  0.112  0.800  0.499-  14 1.42  15 1.43  11 1.44
  17  0.278  0.900  0.498-  28 1.41  14 1.42   1 1.43
  18  0.556  0.999  0.497-  20 1.41  30 1.42  21 1.43
  19  0.388  0.097  0.500-   4 1.41  23 1.42  20 1.43
  20  0.444  0.998  0.498-  18 1.41  28 1.43  19 1.43
  21  0.610  0.098  0.499-  32 1.42  22 1.42  18 1.43
  22  0.555  0.196  0.503-  52 1.42  21 1.42  23 1.44
  23  0.441  0.195  0.503-  51 1.42  19 1.42  22 1.44
  24  0.555  0.607  0.497-  55 1.37  56 1.38  26 1.42
  25  0.391  0.703  0.496-  56 1.40  29 1.42  13 1.43
  26  0.612  0.704  0.496-  44 1.42  27 1.42  24 1.42
  27  0.557  0.802  0.495-  26 1.42  29 1.42  30 1.42
  28  0.389  0.900  0.497-  17 1.41  29 1.43  20 1.43
  29  0.445  0.801  0.496-  25 1.42  27 1.42  28 1.43
  30  0.612  0.900  0.496-  48 1.42  27 1.42  18 1.42
  31  0.889  1.000  0.499-  33 1.41  34 1.44  50 1.44
  32  0.722  0.100  0.499-  21 1.42  33 1.44  37 1.44
  33  0.778  1.000  0.498-  31 1.41  48 1.44  32 1.44
  34  0.942  0.100  0.499-   2 1.41  31 1.44  35 1.44
  35  0.887  0.201  0.500-  37 1.42  34 1.44  38 1.45
  36  0.716  0.301  0.504-  52 1.42  37 1.46  41 1.47
  37  0.775  0.201  0.501-  35 1.42  32 1.44  36 1.46
  38  0.943  0.301  0.501-   6 1.43  35 1.45  39 1.45
  39  0.887  0.402  0.501-  38 1.45  41 1.45  42 1.46
  40  0.718  0.504  0.502-  55 1.41  45 1.44  41 1.45
  41  0.773  0.403  0.503-  40 1.45  39 1.45  36 1.47
  42  0.948  0.499  0.500-  43 1.44  39 1.46   9 1.46
  43  0.891  0.599  0.499-  45 1.44  42 1.44  46 1.44
  44  0.724  0.701  0.498-  26 1.42  49 1.43  45 1.44
  45  0.778  0.600  0.499-  40 1.44  43 1.44  44 1.44
  46  0.947  0.699  0.499-  11 1.42  43 1.44  47 1.44
  47  0.891  0.799  0.498-  49 1.42  50 1.43  46 1.44
  48  0.723  0.900  0.497-  30 1.42  49 1.43  33 1.44
  49  0.779  0.800  0.498-  47 1.42  44 1.43  48 1.43
  50  0.945  0.899  0.499-  15 1.41  47 1.43  31 1.44
  51  0.388  0.295  0.507-   8 1.42  23 1.42  58 2.11  57 2.48
  52  0.605  0.296  0.509-  22 1.42  36 1.42  58 2.06
  53  0.224  0.389  0.502-  10 1.37   8 1.38  57 1.99
  54  0.228  0.605  0.498-  12 1.38  13 1.38  57 2.11
  55  0.607  0.511  0.503-  24 1.37  40 1.41  58 2.03
  56  0.447  0.606  0.494-  24 1.38  25 1.40  57 1.98
  57  0.346  0.487  0.494-  56 1.98  53 1.99  54 2.11  58 2.33  51 2.48
  58  0.497  0.409  0.539-  55 2.03  52 2.06  51 2.11  57 2.33
 
  LATTYP: Found a triclinic cell.
 ALAT       =    34.4351727823
 B/A-ratio  =     0.3649408144
 C/A-ratio  =     0.5786002622
 COS(alpha) =     0.0001658063
 COS(beta)  =     0.5790441199
 COS(gamma) =     0.7273807275
  
  Lattice vectors:
  
 A1 = (  12.5287256046, -25.1364024894, -19.9241920579)
 A2 = (  -0.0885655431, -12.5664879097,   0.0000000000)
 A3 = (   0.0174566909,  -0.0034266700, -19.9241920579)


Analysis of symmetry for initial positions (statically):
=====================================================================
 Subroutine PRICEL returns:
 Original cell was already a primitive cell.
 

 Routine SETGRP: Setting up the symmetry group for a 
 triclinic supercell.


 Subroutine GETGRP returns: Found  1 space group operations
 (whereof  1 operations were pure point group operations)
 out of a pool of  2 trial point group operations.


The static configuration has the point symmetry C_1 .


Analysis of symmetry for dynamics (positions and initial velocities):
=====================================================================
 Subroutine PRICEL returns:
 Original cell was already a primitive cell.
 

 Routine SETGRP: Setting up the symmetry group for a 
 triclinic supercell.


 Subroutine GETGRP returns: Found  1 space group operations
 (whereof  1 operations were pure point group operations)
 out of a pool of  2 trial point group operations.


The dynamic configuration has the point symmetry C_1 .


Analysis of structural, dynamic, and magnetic symmetry:
=====================================================================
 Subroutine PRICEL returns:
 Original cell was already a primitive cell.
 

 Routine SETGRP: Setting up the symmetry group for a 
 triclinic supercell.


 Subroutine GETGRP returns: Found  1 space group operations
 (whereof  1 operations were pure point group operations)
 out of a pool of  2 trial point group operations.


The magnetic configuration has the point symmetry C_1 .


 Subroutine INISYM returns: Found  1 space group operations
 (whereof  1 operations are pure point group operations),
 and found     1 'primitive' translations

 
 
 KPOINTS: KPOINTS created by Atomic Simulation Env

Automatic generation of k-mesh.
Space group operators:
 irot       det(A)        alpha          n_x          n_y          n_z        tau_x        tau_y        tau_z
    1     1.000000     0.000000     1.000000     0.000000     0.000000     0.000000     0.000000     0.000000
 
 Subroutine IBZKPT returns following result:
 ===========================================
 
 Found      2 irreducible k-points:
 
 Following reciprocal coordinates:
            Coordinates               Weight
  0.250000  0.250000 -0.000000      2.000000
 -0.250000  0.250000  0.000000      2.000000
 
 Following cartesian coordinates:
            Coordinates               Weight
  0.019703  0.019755  0.000014      2.000000
 -0.019703  0.020033 -0.000021      2.000000
 
 
 Subroutine IBZKPT_HF returns following result:
 ==============================================
 
 Found      4 k-points in 1st BZ
 the following      4 k-points will be used (e.g. in the exchange kernel)
 Following reciprocal coordinates:   # in IRBZ
  0.250000  0.250000 -0.000000    0.25000000   1 t-inv F
 -0.250000  0.250000  0.000000    0.25000000   2 t-inv F
 -0.250000 -0.250000  0.000000    0.25000000   1 t-inv T
  0.250000 -0.250000 -0.000000    0.25000000   2 t-inv T


--------------------------------------------------------------------------------------------------------




 Dimension of arrays:
   k-points           NKPTS =      2   k-points in BZ     NKDIM =      4   number of bands    NBANDS=    154
   number of dos      NEDOS =    301   number of ions     NIONS =     58
   non local maximal  LDIM  =      6   non local SUM 2l+1 LMDIM =     18
   total plane-waves  NPLWV = ******
   max r-space proj   IRMAX =      1   max aug-charges    IRDMAX=  26585
   dimension x,y,z NGX =    96 NGY =   96 NGZ =  150
   dimension x,y,z NGXF=   192 NGYF=  192 NGZF=  300
   support grid    NGXF=   192 NGYF=  192 NGZF=  300
   ions per type =              52   4   1   1
   NGX,Y,Z   is equivalent  to a cutoff of  12.58, 12.70, 12.52 a.u.
   NGXF,Y,Z  is equivalent  to a cutoff of  25.16, 25.40, 25.03 a.u.

 SYSTEM =  unknown system                          
 POSCAR =   C  N Fe  V                             

 Startparameter for this run:
   NWRITE =      2    write-flag & timer
   PREC   = accura    normal or accurate (medium, high low for compatibility)
   ISTART =      1    job   : 0-new  1-cont  2-samecut
   ICHARG =      0    charge: 1-file 2-atom 10-const
   ISPIN  =      2    spin polarized calculation?
   LNONCOLLINEAR =      F non collinear calculations
   LSORBIT =      F    spin-orbit coupling
   INIWAV =      1    electr: 0-lowe 1-rand  2-diag
   LASPH  =      T    aspherical Exc in radial PAW
   METAGGA=      F    non-selfconsistent MetaGGA calc.

 Electronic Relaxation 1
   ENCUT  =  500.0 eV  36.75 Ry    6.06 a.u.  23.13 22.91 36.33*2*pi/ulx,y,z
   ENINI  =  500.0     initial cutoff
   ENAUG  =  644.9 eV  augmentation charge cutoff
   NELM   =    250;   NELMIN=  2; NELMDL=  0     # of ELM steps 
   EDIFF  = 0.1E-03   stopping-criterion for ELM
   LREAL  =      F    real-space projection
   NLSPLINE    = F    spline interpolate recip. space projectors
   LCOMPAT=      F    compatible to vasp.4.4
   GGA_COMPAT  = T    GGA compatible to vasp.4.4-vasp.4.6
   LMAXPAW     = -100 max onsite density
   LMAXMIX     =    2 max onsite mixed and CHGCAR
   VOSKOWN=      0    Vosko Wilk Nusair interpolation
   ROPT   =    0.00000   0.00000   0.00000   0.00000
 Ionic relaxation
   EDIFFG = -.3E-01   stopping-criterion for IOM
   NSW    =      0    number of steps for IOM
   NBLOCK =      1;   KBLOCK =      1    inner block; outer block 
   IBRION =     -1    ionic relax: 0-MD 1-quasi-New 2-CG
   NFREE  =      1    steps in history (QN), initial steepest desc. (CG)
   ISIF   =      2    stress and relaxation
   IWAVPR =     10    prediction:  0-non 1-charg 2-wave 3-comb
   ISYM   =      3    0-nonsym 1-usesym 2-fastsym
   LCORR  =      T    Harris-Foulkes like correction to forces

   POTIM  = 0.5000    time-step for ionic-motion
   TEIN   =    0.0    initial temperature
   TEBEG  =    0.0;   TEEND  =   0.0 temperature during run
   SMASS  =  -3.00    Nose mass-parameter (am)
   estimated Nose-frequenzy (Omega)   =  0.10E-29 period in steps =****** mass=  -0.368E-26a.u.
   SCALEE = 1.0000    scale energy and forces
   NPACO  =    256;   APACO  = 16.0  distance and # of slots for P.C.
   PSTRESS=    0.0 pullay stress

  Mass of Ions in am
   POMASS =  12.01 14.00 55.85 50.94
  Ionic Valenz
   ZVAL   =   4.00  5.00  8.00  5.00
  Atomic Wigner-Seitz radii
   RWIGS  =  -1.00 -1.00 -1.00 -1.00
  virtual crystal weights 
   VCA    =   1.00  1.00  1.00  1.00
   NELECT =     241.0000    total number of electrons
   NUPDOWN=      -1.0000    fix difference up-down

 DOS related values:
   EMIN   =  10.00;   EMAX   =-10.00  energy-range for DOS
   EFERMI =   0.00
   ISMEAR =     0;   SIGMA  =   0.10  broadening in eV -4-tet -1-fermi 0-gaus

 Electronic relaxation 2 (details)
   IALGO  =     53    algorithm
   LDIAG  =      T    sub-space diagonalisation (order eigenvalues)
   LSUBROT=      F    optimize rotation matrix (better conditioning)
   TURBO    =      0    0=normal 1=particle mesh
   IRESTART =      0    0=no restart 2=restart with 2 vectors
   NREBOOT  =      0    no. of reboots
   NMIN     =      0    reboot dimension
   EREF     =   0.00    reference energy to select bands
   IMIX   =      4    mixing-type and parameters
     AMIX     =   0.40;   BMIX     =  1.00
     AMIX_MAG =   1.60;   BMIX_MAG =  1.00
     AMIN     =   0.10
     WC   =   100.;   INIMIX=   1;  MIXPRE=   1;  MAXMIX= -45

 Intra band minimization:
   WEIMIN = 0.0000     energy-eigenvalue tresh-hold
   EBREAK =  0.16E-06  absolut break condition
   DEPER  =   0.30     relativ break condition  

   TIME   =   0.20     timestep for ELM

  volume/ion in A,a.u.               =      54.77       369.63
  Fermi-wavevector in a.u.,A,eV,Ry     =   0.693021  1.309621  6.534589  0.480279
  Thomas-Fermi vector in A             =   1.775118
 
 Write flags
   LWAVE        =      T    write WAVECAR
   LDOWNSAMPLE  =      F    k-point downsampling of WAVECAR
   LCHARG       =      T    write CHGCAR
   LVTOT        =      F    write LOCPOT, total local potential
   LVHAR        =      F    write LOCPOT, Hartree potential only
   LELF         =      F    write electronic localiz. function (ELF)
   LORBIT       =     11    0 simple, 1 ext, 2 COOP (PROOUT), +10 PAW based schemes


 Dipole corrections
   LMONO  =      F    monopole corrections only (constant potential shift)
   LDIPOL =      T    correct potential (dipole corrections)
   IDIPOL =      3    1-x, 2-y, 3-z, 4-all directions 
   EPSILON=  1.0000000 bulk dielectric constant

 Exchange correlation treatment:
   GGA     =    PE    GGA type
   LEXCH   =     8    internal setting for exchange type
   VOSKOWN=      0    Vosko Wilk Nusair interpolation
   EXXOEP  =     0    0=HF, 1=EXX-LHF (local Hartree Fock) 2=EXX OEP
   LHFCALC =     T    Hartree Fock is set to
   LSYMGRAD=     F    symmetrize gradient (conserves proper symmetry)
   PRECFOCK=normal    Normal, Fast or Accurate (Low or Medium for compatibility)
   LRHFCALC=     F    long range Hartree Fock
   LRSCOR  =     F    long range correlation only (use DFT for short range part)
   LTHOMAS =     F    Thomas Fermi screening in HF
   LMODELHF=     F    short range full HF, long range fraction AEXX
   ENCUT4O =  -1.0   cutoff for four orbital integrals eV
   LMAXFOCK=     4    L truncation for augmentation on plane wave grid
   LMAXFOCKAE=  -1    L truncation for all-electron charge restoration on plane wave grid
   NMAXFOCKAE=   1    number of basis functions for all-electron charge restoration
   LFOCKAEDFT=     F  apply the AE augmentation even for DFT
   NKREDX  =     1    reduce k-point grid by
   NKREDY  =     1    reduce k-point grid by
   NKREDZ  =     1    reduce k-point grid by
   SHIFTRED=     F    shift reduced grid of Gamma
   HFKIDENT=     F    idential grid for each k-point
   ODDONLY =     F    use only odd q-grid points
   EVENONLY=     F    use only even q-grid points
   HFALPHA =   -1.0000 decay constant for conv. correction
   MCALPHA =    0.0000 extent of test-charge in conv. correction in multipole expansion
   AEXX    =    0.2500 exact exchange contribution
   HFSCREEN=    0.2000 screening length (either q_TF or 0.3 A-1)
   HFSCREENC=   0.2000 screening length for correlation (either q_TF or 0.3 A-1)
   HFRCUT  =    0.0000 spherical cutoff for potential kernel
   ALDAX   =    0.7500 LDA exchange part
   AGGAX   =    0.7500 GGA exchange part
   ALDAC   =    1.0000 LDA correlation
   AGGAC   =    1.0000 GGA correlation
   ENCUTFOCK=  -1.0 apply spherical cutoff to Coloumb kernel
   NBANDSGWLOW=     1    first orbital included in HF term
   NBLOCK_FOCK=    64    blocking factor in FOCK_ACC
 Linear response parameters
   LEPSILON=     F    determine dielectric tensor
   LRPA    =     F    only Hartree local field effects (RPA)
   LNABLA  =     F    use nabla operator in PAW spheres
   LVEL    =     F    velocity operator in full k-point grid
   LINTERFAST=   F  fast interpolation
   KINTER  =     0    interpolate to denser k-point grid
   CSHIFT  =0.1000    complex shift for real part using Kramers Kronig
   OMEGAMAX=  -1.0    maximum frequency
   DEG_THRESHOLD= 0.2000000E-02 threshold for treating states as degnerate
   RTIME   =   -0.100 relaxation time in fs
  (WPLASMAI=    0.000 imaginary part of plasma frequency in eV, 0.658/RTIME)
   DFIELD  = 0.0000000 0.0000000 0.0000000 field for delta impulse in time
 
 Orbital magnetization related:
   ORBITALMAG=     F  switch on orbital magnetization
   LCHIMAG   =     F  perturbation theory with respect to B field
   DQ        =  0.001000  dq finite difference perturbation B field
   LLRAUG    =     F  two centre corrections for induced B field



--------------------------------------------------------------------------------------------------------


 Static calculation
 charge density and potential will be updated during run
 spin polarized calculation
 Conjugate gradient for all bands (Freysoldt, et al. PRB 79, 241103 (2009))
 perform sub-space diagonalisation
    before iterative eigenvector-optimisation
 modified Broyden-mixing scheme, WC =      100.0
 initial mixing is a Kerker type mixing with AMIX =  0.4000 and BMIX =      1.0000
 Hartree-type preconditioning will be used
 using additional bands           33
 reciprocal scheme for non local part
 use partial core corrections
 no Harris-corrections to forces 
 use gradient corrections 
 use of overlap-Matrix (Vanderbilt PP)
 Gauss-broadening in eV      SIGMA  =   0.10


--------------------------------------------------------------------------------------------------------


  energy-cutoff  :      500.00
  volume of cell :     3176.89
      direct lattice vectors                 reciprocal lattice vectors
    12.688400000  0.000000000  0.000000000     0.078812143 -0.000555449  0.000069147
     0.088565543 12.566487910  0.000000000     0.000000000  0.079576729 -0.000013686
    -0.017456691  0.003426670 19.924192058     0.000000000  0.000000000  0.050190241

  length of vectors
    12.688400000 12.566800000 19.924200000     0.078814131  0.079576730  0.050190241


 
 old parameters found on file WAVECAR:
  energy-cutoff  :      500.00
  volume of cell :     3176.89
      direct lattice vectors                 reciprocal lattice vectors
    12.688400000  0.000000000  0.000000000     0.078812143 -0.000555449  0.000069147
     0.088565543 12.566487910  0.000000000     0.000000000  0.079576729 -0.000013686
    -0.017456691  0.003426670 19.924192058     0.000000000  0.000000000  0.050190241

  length of vectors

 
 k-points in units of 2pi/SCALE and weight: KPOINTS created by Atomic Simulation Env
   0.01970304  0.01975532  0.00001387       0.500
  -0.01970304  0.02003304 -0.00002071       0.500
 
 k-points in reciprocal lattice and weights: KPOINTS created by Atomic Simulation Env
   0.25000000  0.25000000 -0.00000000       0.500
  -0.25000000  0.25000000  0.00000000       0.500
 
 position of ions in fractional coordinates (direct lattice) 
   0.22095796  0.99806255  0.49871029
   0.05390794  0.09877885  0.49936182
   0.10982358  0.99883399  0.49906511
   0.27612775  0.09625464  0.49949609
   0.22027539  0.19448596  0.50047889
   0.05502400  0.29885873  0.50041703
   0.10886044  0.19757593  0.49991931
   0.27649273  0.29181516  0.50309390
   0.06301065  0.49868986  0.49962768
   0.11646585  0.39617046  0.50072935
   0.05880999  0.69880661  0.49874278
   0.11944635  0.60017765  0.49888142
   0.27872136  0.70183999  0.49754653
   0.22347957  0.80070119  0.49822039
   0.05584753  0.89895040  0.49903324
   0.11179658  0.79956178  0.49882370
   0.27756627  0.89965421  0.49801798
   0.55567992  0.99885713  0.49744587
   0.38756798  0.09657753  0.49965824
   0.44420049  0.99825919  0.49794675
   0.61042709  0.09770467  0.49933358
   0.55461976  0.19555490  0.50337272
   0.44145099  0.19546117  0.50262864
   0.55542515  0.60707324  0.49699048
   0.39133721  0.70267130  0.49582686
   0.61232412  0.70430143  0.49593762
   0.55659779  0.80245284  0.49538696
   0.38880747  0.89998969  0.49722375
   0.44472124  0.80126581  0.49603140
   0.61170378  0.90041978  0.49629431
   0.88873988  0.99959349  0.49878974
   0.72193842  0.10005153  0.49928879
   0.77772387  0.99999013  0.49822508
   0.94240662  0.10012161  0.49927764
   0.88712003  0.20076720  0.49995548
   0.71599844  0.30088371  0.50427855
   0.77483764  0.20108258  0.50071652
   0.94271678  0.30088411  0.50053688
   0.88684841  0.40191871  0.50096558
   0.71770040  0.50409146  0.50154257
   0.77251867  0.40280626  0.50284556
   0.94795504  0.49944304  0.49973245
   0.89110988  0.59873810  0.49900014
   0.72388985  0.70132972  0.49756431
   0.77793796  0.60028966  0.49908526
   0.94662826  0.69855172  0.49867150
   0.89097714  0.79912473  0.49849638
   0.72342239  0.90000728  0.49716836
   0.77912364  0.80025886  0.49762056
   0.94450945  0.89915950  0.49884150
   0.38786928  0.29474765  0.50650108
   0.60466232  0.29554530  0.50887736
   0.22404928  0.38864095  0.50210175
   0.22777963  0.60509944  0.49841695
   0.60667488  0.51131830  0.50318752
   0.44666167  0.60562116  0.49419553
   0.34577818  0.48660717  0.49361246
   0.49726504  0.40916996  0.53881180
 
 position of ions in cartesian coordinates  (Angst):
   2.88329111 12.54384988  9.93639956
   0.68403664  1.24301437  9.94938083
   1.47323579 12.55354541  9.94346910
   3.50342467  1.21129433  9.95205613
   2.80343034  2.44572050  9.97163745
   0.71589952  3.75731942  9.97040503
   1.39003629  2.48454861  9.96048828
   3.52531283  3.66881564 10.02373952
   0.83494927  6.26849209  9.95467781
   1.50411126  4.98018709  9.97662784
   0.79938851  8.78325381  9.93704697
   1.56002937  7.54383472  9.93980930
   3.59000139  8.82136864  9.91321255
   2.89781541 10.06370905  9.92663883
   0.77952036 11.29835941  9.94283415
   1.48062556 10.04939270  9.93865917
   3.59285653 11.30720036  9.92260585
   7.13046965 12.55383065  9.91120701
   4.91744868  1.21535257  9.95528668
   5.71591234 12.54631830  9.92118674
   7.74527961  1.22951562  9.94881816
   7.04576957  2.45916322 10.02929474
   5.60984362  2.45798280 10.01446949
   7.09254640  7.63048158  9.90213373
   5.01902007  8.83180947  9.87894952
   7.82313277  8.85229484  9.88115641
   7.12475728 10.08571140  9.87018490
   5.00437288 11.31141341  9.90678140
   5.70510651 10.07079688  9.88302485
   7.83262469 11.31681488  9.88826320
  11.35650945 12.56308869  9.93798261
   9.16038862  1.25900719  9.94792579
   9.94793886 12.56807112  9.92673216
  11.95778375  1.25988791  9.94770360
  11.26518725  2.52465171  9.96120902
   9.10271946  3.78277956 10.04734264
   9.84051801  2.52861765  9.97637216
  11.97947780  3.78277170  9.97279283
  11.27953828  5.05242331  9.98133448
   9.14235964  6.33637782  9.99283058
   9.82892261  5.06358310 10.01879157
  12.06354249  6.27795736  9.95676533
  11.35107527  7.52574498  9.94217458
   9.23843183  8.81495646  9.91356692
   9.91524064  7.54524297  9.94387066
  12.06436045  8.78005056  9.93562666
  11.36714720 10.04389939  9.93213757
   9.25010332 11.31163420  9.90567785
   9.94802098 10.05814852  9.91468760
  12.05524015 11.30098633  9.93901389
   4.93870317  3.70567839 10.09162488
   7.68948926  3.71571017 10.13897035
   2.86848199  4.88557238 10.00397166
   2.93504934  7.60568272  9.93055510
   7.73423477  6.42719955 10.02560479
   5.71243214  7.61222444  9.84644670
   4.42185161  6.11663451  9.83482945
   6.33633020  5.14367574 10.73538973
 


--------------------------------------------------------------------------------------------------------


 k-point  1 :   0.2500 0.2500-0.0000  plane waves:   80672
 k-point  2 :  -0.2500 0.2500 0.0000  plane waves:   80655

 maximum and minimum number of plane-waves per node :      2565     2484

 maximum number of plane-waves:     80672
 maximum index in each direction: 
   IXMAX=   23   IYMAX=   22   IZMAX=   36
   IXMIN=  -23   IYMIN=  -23   IZMIN=  -36


 parallel 3D FFT for wavefunctions:
    minimum data exchange during FFTs selected (reduces bandwidth)
 parallel 3D FFT for charge:
    minimum data exchange during FFTs selected (reduces bandwidth)


 FFT grid for exact exchange (Hartree Fock) 
  NGX = 70; NGY = 70; NGZ =112

 
 Radii for the augmentation spheres in the non-local exchange
 for species   1 augmentation radius   0.874 (default was   0.699)
       energy cutoff for augmentation   2000.0
 for species   2 augmentation radius   0.886 (default was   0.709)
       energy cutoff for augmentation   2000.0
 for species   3 augmentation radius   1.263 (default was   1.010)
       energy cutoff for augmentation   2000.0
 for species   4 augmentation radius   1.508 (default was   1.206)
       energy cutoff for augmentation   2000.0

 real space projection operators:
  total allocation   :       2664.52 KBytes
  max/ min on nodes  :        122.45         39.02

 Maximum index for augmentation-charges in exchange          200
  SETUP_FOCK is finished

 total amount of memory used by VASP MPI-rank0   166042. kBytes
=======================================================================

   base      :      30000. kBytes
   nonl-proj :       5351. kBytes
   fftplans  :      14250. kBytes
   grid      :      36827. kBytes
   one-center:         62. kBytes
   HF        :         23. kBytes
   nonlr-proj:       2684. kBytes
   wavefun   :      76845. kBytes
 
     INWAV:  cpu time    3.5061: real time    3.5071
 Broyden mixing: mesh for mixing (old mesh)
   NGX = 47   NGY = 45   NGZ = 73
  (NGX  =192   NGY  =192   NGZ  =300)
  gives a total of 154395 points

 charge density for first step will be calculated from the start-wavefunctions


--------------------------------------------------------------------------------------------------------


 Maximum index for augmentation-charges         1043 (set IRDMAX)


--------------------------------------------------------------------------------------------------------


 initial charge from wavefunction
 First call to EWALD:  gamma=   0.121
 Maximum number of real-space cells 3x 3x 2
 Maximum number of reciprocal cells 2x 2x 4

    FEWALD:  cpu time    0.0039: real time    0.0039


--------------------------------------- Iteration      1(   1)  ---------------------------------------


    POTLOK:  cpu time    1.3954: real time    1.3962
    SETDIJ:  cpu time    2.0939: real time    2.0946
    TRIAL :  cpu time  513.2892: real time  513.4957
    CORREC:  cpu time    0.0018: real time    0.0018
    CHARGE:  cpu time    1.6755: real time    1.6758
    --------------------------------------------
      LOOP:  cpu time  518.4720: real time  518.6826

 eigenvalue-minimisations  :     0
 total energy-change (2. order) :-0.6086060E+03  (-0.4747848E+00)
 number of electron     241.0000001 magnetization       0.9999945
 augmentation part       11.8028221 magnetization       0.9645420

 DIPCOR: dipole corrections for dipol
 direction  3 min pos     1,
 dipolmoment           0.000193     -0.000038     -0.220489 electrons x Angstroem
 Tr[quadrupol]     -6381.136549

 energy correction for charged system         0.000000 eV
 dipol+quadrupol energy correction            0.001390 eV
 added-field ion interaction          0.000000 eV  (added to PSCEN)


 Free energy of the ion-electron system (eV)
  ---------------------------------------------------
  alpha Z        PSCENC =        98.80891667
  Ewald energy   TEWEN  =     38027.57169793
  -Hartree energ DENC   =    -46108.59344795
  -exchange      EXHF   =       542.41034749
  -V(xc)+E(xc)   XCENC  =       577.69791716
  PAW double counting   =     25774.29661045   -25772.73156068
  entropy T*S    EENTRO =        -0.00000506
  eigenvalues    EBANDS =     -3111.09479223
  atomic energy  EATOM  =      9363.02833311
  ---------------------------------------------------
  free energy    TOTEN  =      -608.60601172 eV

  energy without entropy =     -608.60600666  energy(sigma->0) =     -608.60600919
  exchange ACFDT corr.  =        -0.00001527  see jH, gK, PRB 81, 115126


--------------------------------------------------------------------------------------------------------




--------------------------------------- Iteration      1(   2)  ---------------------------------------


    POTLOK:  cpu time    1.4107: real time    1.4108
    SETDIJ:  cpu time    2.0864: real time    2.0865
    TRIAL :  cpu time  514.8385: real time  514.9230
    CORREC:  cpu time    0.0017: real time    0.0019
    CHARGE:  cpu time    1.6752: real time    1.6754
    --------------------------------------------
      LOOP:  cpu time  520.0151: real time  520.1002

 eigenvalue-minimisations  :     0
 total energy-change (2. order) :-0.3959730E+00  (-0.4355743E+00)
 number of electron     241.0000001 magnetization       0.9999999
 augmentation part       11.7763485 magnetization       0.9958329

 DIPCOR: dipole corrections for dipol
 direction  3 min pos     1,
 dipolmoment           0.000197     -0.000039     -0.224356 electrons x Angstroem
 Tr[quadrupol]     -6380.961883

 energy correction for charged system         0.000000 eV
 dipol+quadrupol energy correction            0.001439 eV
 added-field ion interaction          0.000000 eV  (added to PSCEN)


 Free energy of the ion-electron system (eV)
  ---------------------------------------------------
  alpha Z        PSCENC =        98.80896585
  Ewald energy   TEWEN  =     38027.57169793
  -Hartree energ DENC   =    -46092.82496020
  -exchange      EXHF   =       542.33482612
  -V(xc)+E(xc)   XCENC  =       577.40201874
  PAW double counting   =     25897.84198609   -25895.83594051
  entropy T*S    EENTRO =        -0.00000049
  eigenvalues    EBANDS =     -3127.32890674
  atomic energy  EATOM  =      9363.02833311
  ---------------------------------------------------
  free energy    TOTEN  =      -609.00198467 eV

  energy without entropy =     -609.00198418  energy(sigma->0) =     -609.00198443
  exchange ACFDT corr.  =        -0.00000189  see jH, gK, PRB 81, 115126


--------------------------------------------------------------------------------------------------------




--------------------------------------- Iteration      1(   3)  ---------------------------------------


    POTLOK:  cpu time    1.4126: real time    1.4127
    SETDIJ:  cpu time    2.0892: real time    2.0893
    TRIAL :  cpu time  512.0435: real time  512.1520
    CORREC:  cpu time    0.0015: real time    0.0018
    CHARGE:  cpu time    1.6662: real time    1.6666
    --------------------------------------------
      LOOP:  cpu time  517.2157: real time  517.3250

 eigenvalue-minimisations  :     0
 total energy-change (2. order) :-0.3445053E+00  (-0.2814391E+00)
 number of electron     241.0000001 magnetization       1.0000001
 augmentation part       11.7843314 magnetization       1.0151377

 DIPCOR: dipole corrections for dipol
 direction  3 min pos     1,
 dipolmoment           0.000199     -0.000039     -0.226649 electrons x Angstroem
 Tr[quadrupol]     -6380.800257

 energy correction for charged system         0.000000 eV
 dipol+quadrupol energy correction            0.001469 eV
 added-field ion interaction          0.000000 eV  (added to PSCEN)


 Free energy of the ion-electron system (eV)
  ---------------------------------------------------
  alpha Z        PSCENC =        98.80899543
  Ewald energy   TEWEN  =     38027.57169793
  -Hartree energ DENC   =    -46077.73184149
  -exchange      EXHF   =       542.34721705
  -V(xc)+E(xc)   XCENC  =       577.12127345
  PAW double counting   =     26058.16412838   -26056.00942534
  entropy T*S    EENTRO =        -0.00000006
  eigenvalues    EBANDS =     -3142.64686799
  atomic energy  EATOM  =      9363.02833311
  ---------------------------------------------------
  free energy    TOTEN  =      -609.34648996 eV

  energy without entropy =     -609.34648990  energy(sigma->0) =     -609.34648993
  exchange ACFDT corr.  =        -0.00000013  see jH, gK, PRB 81, 115126


--------------------------------------------------------------------------------------------------------




--------------------------------------- Iteration      1(   4)  ---------------------------------------


    POTLOK:  cpu time    1.4121: real time    1.4126
    SETDIJ:  cpu time    2.0854: real time    2.0858
    TRIAL :  cpu time  511.0427: real time  511.2692
    CORREC:  cpu time    0.0013: real time    0.0015
    CHARGE:  cpu time    1.6661: real time    1.6666
    --------------------------------------------
      LOOP:  cpu time  516.2106: real time  516.4388

 eigenvalue-minimisations  :     0
 total energy-change (2. order) :-0.2227175E+00  (-0.1753989E+00)
 number of electron     241.0000002 magnetization       1.0000001
 augmentation part       11.7987085 magnetization       1.0266944

 DIPCOR: dipole corrections for dipol
 direction  3 min pos     1,
 dipolmoment           0.000200     -0.000039     -0.228389 electrons x Angstroem
 Tr[quadrupol]     -6380.749119

 energy correction for charged system         0.000000 eV
 dipol+quadrupol energy correction            0.001491 eV
 added-field ion interaction          0.000000 eV  (added to PSCEN)


 Free energy of the ion-electron system (eV)
  ---------------------------------------------------
  alpha Z        PSCENC =        98.80901807
  Ewald energy   TEWEN  =     38027.57169793
  -Hartree energ DENC   =    -46071.37521240
  -exchange      EXHF   =       542.54609693
  -V(xc)+E(xc)   XCENC  =       577.03789453
  PAW double counting   =     26195.74811836   -26193.74024325
  entropy T*S    EENTRO =        -0.00000001
  eigenvalues    EBANDS =     -3149.19491066
  atomic energy  EATOM  =      9363.02833311
  ---------------------------------------------------
  free energy    TOTEN  =      -609.56920743 eV

  energy without entropy =     -609.56920742  energy(sigma->0) =     -609.56920742
  exchange ACFDT corr.  =        -0.00000001  see jH, gK, PRB 81, 115126


--------------------------------------------------------------------------------------------------------




--------------------------------------- Iteration      1(   5)  ---------------------------------------


    POTLOK:  cpu time    1.4154: real time    1.4159
    SETDIJ:  cpu time    2.1156: real time    2.1159
    TRIAL :  cpu time  510.4975: real time  510.7239
    CORREC:  cpu time    0.0013: real time    0.0015
    CHARGE:  cpu time    1.6648: real time    1.6654
    --------------------------------------------
      LOOP:  cpu time  515.6975: real time  515.9255

 eigenvalue-minimisations  :     0
 total energy-change (2. order) :-0.1433660E+00  (-0.1188610E+00)
 number of electron     241.0000002 magnetization       1.0000001
 augmentation part       11.8049902 magnetization       1.0350390

 DIPCOR: dipole corrections for dipol
 direction  3 min pos     1,
 dipolmoment           0.000206     -0.000040     -0.234750 electrons x Angstroem
 Tr[quadrupol]     -6380.791126

 energy correction for charged system         0.000000 eV
 dipol+quadrupol energy correction            0.001576 eV
 added-field ion interaction          0.000000 eV  (added to PSCEN)


 Free energy of the ion-electron system (eV)
  ---------------------------------------------------
  alpha Z        PSCENC =        98.80910231
  Ewald energy   TEWEN  =     38027.57169793
  -Hartree energ DENC   =    -46072.61622191
  -exchange      EXHF   =       542.87695085
  -V(xc)+E(xc)   XCENC  =       577.13941132
  PAW double counting   =     26294.90428430   -26293.04770208
  entropy T*S    EENTRO =        -0.00000000
  eigenvalues    EBANDS =     -3148.37842927
  atomic energy  EATOM  =      9363.02833311
  ---------------------------------------------------
  free energy    TOTEN  =      -609.71257345 eV

  energy without entropy =     -609.71257345  energy(sigma->0) =     -609.71257345
  exchange ACFDT corr.  =        -0.00000000  see jH, gK, PRB 81, 115126


--------------------------------------------------------------------------------------------------------




--------------------------------------- Iteration      1(   6)  ---------------------------------------


    POTLOK:  cpu time    1.4137: real time    1.4143
    SETDIJ:  cpu time    2.0843: real time    2.0846
    TRIAL :  cpu time  510.9857: real time  511.0951
    CORREC:  cpu time    0.0012: real time    0.0014
    CHARGE:  cpu time    1.6649: real time    1.6650
    --------------------------------------------
      LOOP:  cpu time  516.1523: real time  516.2628

 eigenvalue-minimisations  :     0
 total energy-change (2. order) :-0.1005009E+00  (-0.8327917E-01)
 number of electron     241.0000002 magnetization       1.0000001
 augmentation part       11.8070202 magnetization       1.0409550

 DIPCOR: dipole corrections for dipol
 direction  3 min pos     1,
 dipolmoment           0.000214     -0.000042     -0.244153 electrons x Angstroem
 Tr[quadrupol]     -6380.865171

 energy correction for charged system         0.000000 eV
 dipol+quadrupol energy correction            0.001704 eV
 added-field ion interaction          0.000000 eV  (added to PSCEN)


 Free energy of the ion-electron system (eV)
  ---------------------------------------------------
  alpha Z        PSCENC =        98.80923106
  Ewald energy   TEWEN  =     38027.57169793
  -Hartree energ DENC   =    -46076.86269279
  -exchange      EXHF   =       543.22558963
  -V(xc)+E(xc)   XCENC  =       577.31841980
  PAW double counting   =     26359.45020606   -26357.63525344
  entropy T*S    EENTRO =        -0.00000000
  eigenvalues    EBANDS =     -3144.71860568
  atomic energy  EATOM  =      9363.02833311
  ---------------------------------------------------
  free energy    TOTEN  =      -609.81307432 eV

  energy without entropy =     -609.81307432  energy(sigma->0) =     -609.81307432
  exchange ACFDT corr.  =        -0.00000000  see jH, gK, PRB 81, 115126


--------------------------------------------------------------------------------------------------------




--------------------------------------- Iteration      1(   7)  ---------------------------------------


    POTLOK:  cpu time    1.4124: real time    1.4125
    SETDIJ:  cpu time    2.0857: real time    2.0859
    TRIAL :  cpu time  508.5795: real time  508.6551
    CORREC:  cpu time    0.0012: real time    0.0014
    CHARGE:  cpu time    1.6641: real time    1.6643
    --------------------------------------------
      LOOP:  cpu time  513.7453: real time  513.8215

 eigenvalue-minimisations  :     0
 total energy-change (2. order) :-0.7149142E-01  (-0.5824764E-01)
 number of electron     241.0000002 magnetization       1.0000001
 augmentation part       11.8115453 magnetization       1.0439197

 DIPCOR: dipole corrections for dipol
 direction  3 min pos     1,
 dipolmoment           0.000220     -0.000043     -0.251650 electrons x Angstroem
 Tr[quadrupol]     -6380.929617

 energy correction for charged system         0.000000 eV
 dipol+quadrupol energy correction            0.001811 eV
 added-field ion interaction          0.000000 eV  (added to PSCEN)


 Free energy of the ion-electron system (eV)
  ---------------------------------------------------
  alpha Z        PSCENC =        98.80933734
  Ewald energy   TEWEN  =     38027.57169793
  -Hartree energ DENC   =    -46080.88246344
  -exchange      EXHF   =       543.51695816
  -V(xc)+E(xc)   XCENC  =       577.48899517
  PAW double counting   =     26398.23283839   -26396.41312740
  entropy T*S    EENTRO =        -0.00000000
  eigenvalues    EBANDS =     -3141.23713500
  atomic energy  EATOM  =      9363.02833311
  ---------------------------------------------------
  free energy    TOTEN  =      -609.88456574 eV

  energy without entropy =     -609.88456574  energy(sigma->0) =     -609.88456574
  exchange ACFDT corr.  =        -0.00000000  see jH, gK, PRB 81, 115126


--------------------------------------------------------------------------------------------------------




--------------------------------------- Iteration      1(   8)  ---------------------------------------


    POTLOK:  cpu time    1.4088: real time    1.4089
    SETDIJ:  cpu time    2.0825: real time    2.0825
    TRIAL :  cpu time  508.7748: real time  508.8466
    CORREC:  cpu time    0.0011: real time    0.0013
    CHARGE:  cpu time    1.6635: real time    1.6636
    --------------------------------------------
      LOOP:  cpu time  513.9335: real time  514.0059

 eigenvalue-minimisations  :     0
 total energy-change (2. order) :-0.5106208E-01  (-0.4227213E-01)
 number of electron     241.0000002 magnetization       1.0000001
 augmentation part       11.8189138 magnetization       1.0450694

 DIPCOR: dipole corrections for dipol
 direction  3 min pos     1,
 dipolmoment           0.000224     -0.000044     -0.255260 electrons x Angstroem
 Tr[quadrupol]     -6380.971585

 energy correction for charged system         0.000000 eV
 dipol+quadrupol energy correction            0.001863 eV
 added-field ion interaction          0.000000 eV  (added to PSCEN)


 Free energy of the ion-electron system (eV)
  ---------------------------------------------------
  alpha Z        PSCENC =        98.80938967
  Ewald energy   TEWEN  =     38027.57169793
  -Hartree energ DENC   =    -46083.55394607
  -exchange      EXHF   =       543.73132528
  -V(xc)+E(xc)   XCENC  =       577.61681707
  PAW double counting   =     26419.77431653   -26417.98059859
  entropy T*S    EENTRO =        -0.00000000
  eigenvalues    EBANDS =     -3138.93296277
  atomic energy  EATOM  =      9363.02833311
  ---------------------------------------------------
  free energy    TOTEN  =      -609.93562782 eV

  energy without entropy =     -609.93562782  energy(sigma->0) =     -609.93562782
  exchange ACFDT corr.  =        -0.00000000  see jH, gK, PRB 81, 115126


--------------------------------------------------------------------------------------------------------




--------------------------------------- Iteration      1(   9)  ---------------------------------------


    POTLOK:  cpu time    1.4087: real time    1.4088
    SETDIJ:  cpu time    2.0866: real time    2.0867
    TRIAL :  cpu time  508.7474: real time  508.8266
    CORREC:  cpu time    0.0011: real time    0.0013
    CHARGE:  cpu time    1.6683: real time    1.6685
    --------------------------------------------
      LOOP:  cpu time  513.9143: real time  513.9941

 eigenvalue-minimisations  :     0
 total energy-change (2. order) :-0.3770403E-01  (-0.3136116E-01)
 number of electron     241.0000002 magnetization       1.0000001
 augmentation part       11.8261893 magnetization       1.0459280

 DIPCOR: dipole corrections for dipol
 direction  3 min pos     1,
 dipolmoment           0.000225     -0.000044     -0.256421 electrons x Angstroem
 Tr[quadrupol]     -6380.994439

 energy correction for charged system         0.000000 eV
 dipol+quadrupol energy correction            0.001880 eV
 added-field ion interaction          0.000000 eV  (added to PSCEN)


 Free energy of the ion-electron system (eV)
  ---------------------------------------------------
  alpha Z        PSCENC =        98.80940666
  Ewald energy   TEWEN  =     38027.57169793
  -Hartree energ DENC   =    -46084.97174599
  -exchange      EXHF   =       543.88050318
  -V(xc)+E(xc)   XCENC  =       577.70282820
  PAW double counting   =     26430.90705429   -26429.17774179
  entropy T*S    EENTRO =        -0.00000000
  eigenvalues    EBANDS =     -3137.72366744
  atomic energy  EATOM  =      9363.02833311
  ---------------------------------------------------
  free energy    TOTEN  =      -609.97333185 eV

  energy without entropy =     -609.97333185  energy(sigma->0) =     -609.97333185
  exchange ACFDT corr.  =        -0.00000000  see jH, gK, PRB 81, 115126


--------------------------------------------------------------------------------------------------------




--------------------------------------- Iteration      1(  10)  ---------------------------------------


    POTLOK:  cpu time    1.4101: real time    1.4104
    SETDIJ:  cpu time    2.1152: real time    2.1155
    TRIAL :  cpu time  507.7190: real time  507.9029
    CORREC:  cpu time    0.0010: real time    0.0010
    CHARGE:  cpu time    1.6613: real time    1.6621
    --------------------------------------------
      LOOP:  cpu time  512.9093: real time  513.0947

 eigenvalue-minimisations  :     0
 total energy-change (2. order) :-0.2826289E-01  (-0.2355138E-01)
 number of electron     241.0000002 magnetization       1.0000001
 augmentation part       11.8313854 magnetization       1.0472862

 DIPCOR: dipole corrections for dipol
 direction  3 min pos     1,
 dipolmoment           0.000225     -0.000044     -0.257259 electrons x Angstroem
 Tr[quadrupol]     -6381.006033

 energy correction for charged system         0.000000 eV
 dipol+quadrupol energy correction            0.001892 eV
 added-field ion interaction          0.000000 eV  (added to PSCEN)


 Free energy of the ion-electron system (eV)
  ---------------------------------------------------
  alpha Z        PSCENC =        98.80941897
  Ewald energy   TEWEN  =     38027.57169793
  -Hartree energ DENC   =    -46085.61091953
  -exchange      EXHF   =       543.98566955
  -V(xc)+E(xc)   XCENC  =       577.76070904
  PAW double counting   =     26436.29069836   -26434.63395729
  entropy T*S    EENTRO =        -0.00000000
  eigenvalues    EBANDS =     -3137.20324487
  atomic energy  EATOM  =      9363.02833311
  ---------------------------------------------------
  free energy    TOTEN  =      -610.00159474 eV

  energy without entropy =     -610.00159474  energy(sigma->0) =     -610.00159474
  exchange ACFDT corr.  =        -0.00000000  see jH, gK, PRB 81, 115126


--------------------------------------------------------------------------------------------------------




--------------------------------------- Iteration      1(  11)  ---------------------------------------


    POTLOK:  cpu time    1.4008: real time    1.4014
    SETDIJ:  cpu time    2.0894: real time    2.0898
    TRIAL :  cpu time  507.4882: real time  507.6620
    CORREC:  cpu time    0.0011: real time    0.0013
    CHARGE:  cpu time    1.6580: real time    1.6582
    --------------------------------------------
      LOOP:  cpu time  512.6402: real time  512.8155

 eigenvalue-minimisations  :     0
 total energy-change (2. order) :-0.2142677E-01  (-0.1801365E-01)
 number of electron     241.0000002 magnetization       1.0000001
 augmentation part       11.8344477 magnetization       1.0491444

 DIPCOR: dipole corrections for dipol
 direction  3 min pos     1,
 dipolmoment           0.000227     -0.000044     -0.258727 electrons x Angstroem
 Tr[quadrupol]     -6381.012763

 energy correction for charged system         0.000000 eV
 dipol+quadrupol energy correction            0.001914 eV
 added-field ion interaction          0.000000 eV  (added to PSCEN)


 Free energy of the ion-electron system (eV)
  ---------------------------------------------------
  alpha Z        PSCENC =        98.80944063
  Ewald energy   TEWEN  =     38027.57169793
  -Hartree energ DENC   =    -46085.90036742
  -exchange      EXHF   =       544.06521270
  -V(xc)+E(xc)   XCENC  =       577.80349002
  PAW double counting   =     26438.85461259   -26437.25456149
  entropy T*S    EENTRO =        -0.00000000
  eigenvalues    EBANDS =     -3137.00087958
  atomic energy  EATOM  =      9363.02833311
  ---------------------------------------------------
  free energy    TOTEN  =      -610.02302151 eV

  energy without entropy =     -610.02302151  energy(sigma->0) =     -610.02302151
  exchange ACFDT corr.  =        -0.00000000  see jH, gK, PRB 81, 115126


--------------------------------------------------------------------------------------------------------




--------------------------------------- Iteration      1(  12)  ---------------------------------------


    POTLOK:  cpu time    1.4038: real time    1.4040
    SETDIJ:  cpu time    2.0831: real time    2.0834
    TRIAL :  cpu time  507.6660: real time  507.7545
    CORREC:  cpu time    0.0010: real time    0.0012
    CHARGE:  cpu time    1.6699: real time    1.6701
    --------------------------------------------
      LOOP:  cpu time  512.8263: real time  512.9157

 eigenvalue-minimisations  :     0
 total energy-change (2. order) :-0.1651899E-01  (-0.1398498E-01)
 number of electron     241.0000002 magnetization       1.0000001
 augmentation part       11.8364646 magnetization       1.0510305

 DIPCOR: dipole corrections for dipol
 direction  3 min pos     1,
 dipolmoment           0.000228     -0.000045     -0.260522 electrons x Angstroem
 Tr[quadrupol]     -6381.017847

 energy correction for charged system         0.000000 eV
 dipol+quadrupol energy correction            0.001941 eV
 added-field ion interaction          0.000000 eV  (added to PSCEN)


 Free energy of the ion-electron system (eV)
  ---------------------------------------------------
  alpha Z        PSCENC =        98.80946728
  Ewald energy   TEWEN  =     38027.57169793
  -Hartree energ DENC   =    -46086.07554757
  -exchange      EXHF   =       544.13014641
  -V(xc)+E(xc)   XCENC  =       577.83857595
  PAW double counting   =     26440.32069724   -26438.75678880
  entropy T*S    EENTRO =        -0.00000000
  eigenvalues    EBANDS =     -3136.90612206
  atomic energy  EATOM  =      9363.02833311
  ---------------------------------------------------
  free energy    TOTEN  =      -610.03954051 eV

  energy without entropy =     -610.03954051  energy(sigma->0) =     -610.03954051
  exchange ACFDT corr.  =        -0.00000000  see jH, gK, PRB 81, 115126


--------------------------------------------------------------------------------------------------------




--------------------------------------- Iteration      1(  13)  ---------------------------------------


    POTLOK:  cpu time    1.3979: real time    1.3981
    SETDIJ:  cpu time    2.1169: real time    2.1171
    TRIAL :  cpu time  508.9834: real time  509.1572
    CORREC:  cpu time    0.0010: real time    0.0012
    CHARGE:  cpu time    1.6654: real time    1.6658
    --------------------------------------------
      LOOP:  cpu time  514.1674: real time  514.3423

 eigenvalue-minimisations  :     0
 total energy-change (2. order) :-0.1291038E-01  (-0.1099472E-01)
 number of electron     241.0000002 magnetization       1.0000001
 augmentation part       11.8384432 magnetization       1.0525020

 DIPCOR: dipole corrections for dipol
 direction  3 min pos     1,
 dipolmoment           0.000230     -0.000045     -0.261983 electrons x Angstroem
 Tr[quadrupol]     -6381.022330

 energy correction for charged system         0.000000 eV
 dipol+quadrupol energy correction            0.001963 eV
 added-field ion interaction          0.000000 eV  (added to PSCEN)


 Free energy of the ion-electron system (eV)
  ---------------------------------------------------
  alpha Z        PSCENC =        98.80948911
  Ewald energy   TEWEN  =     38027.57169793
  -Hartree energ DENC   =    -46086.22445559
  -exchange      EXHF   =       544.18555542
  -V(xc)+E(xc)   XCENC  =       577.86877900
  PAW double counting   =     26441.63991927   -26440.10057908
  entropy T*S    EENTRO =        -0.00000000
  eigenvalues    EBANDS =     -3136.83119006
  atomic energy  EATOM  =      9363.02833311
  ---------------------------------------------------
  free energy    TOTEN  =      -610.05245089 eV

  energy without entropy =     -610.05245089  energy(sigma->0) =     -610.05245089
  exchange ACFDT corr.  =        -0.00000000  see jH, gK, PRB 81, 115126


--------------------------------------------------------------------------------------------------------




--------------------------------------- Iteration      1(  14)  ---------------------------------------


    POTLOK:  cpu time    1.3951: real time    1.3957
    SETDIJ:  cpu time    2.0857: real time    2.0860
    TRIAL :  cpu time  508.5882: real time  508.7924
    CORREC:  cpu time    0.0010: real time    0.0013
    CHARGE:  cpu time    1.6569: real time    1.6574
    --------------------------------------------
      LOOP:  cpu time  513.7290: real time  513.9350

 eigenvalue-minimisations  :     0
 total energy-change (2. order) :-0.1021883E-01  (-0.8747653E-02)
 number of electron     241.0000002 magnetization       1.0000001
 augmentation part       11.8405654 magnetization       1.0535347

 DIPCOR: dipole corrections for dipol
 direction  3 min pos     1,
 dipolmoment           0.000230     -0.000045     -0.262852 electrons x Angstroem
 Tr[quadrupol]     -6381.026515

 energy correction for charged system         0.000000 eV
 dipol+quadrupol energy correction            0.001976 eV
 added-field ion interaction          0.000000 eV  (added to PSCEN)


 Free energy of the ion-electron system (eV)
  ---------------------------------------------------
  alpha Z        PSCENC =        98.80950215
  Ewald energy   TEWEN  =     38027.57169793
  -Hartree energ DENC   =    -46086.37496295
  -exchange      EXHF   =       544.23380534
  -V(xc)+E(xc)   XCENC  =       577.89506061
  PAW double counting   =     26443.24392857   -26441.72792535
  entropy T*S    EENTRO =        -0.00000000
  eigenvalues    EBANDS =     -3136.74210912
  atomic energy  EATOM  =      9363.02833311
  ---------------------------------------------------
  free energy    TOTEN  =      -610.06266971 eV

  energy without entropy =     -610.06266971  energy(sigma->0) =     -610.06266971
  exchange ACFDT corr.  =        -0.00000000  see jH, gK, PRB 81, 115126


--------------------------------------------------------------------------------------------------------




--------------------------------------- Iteration      1(  15)  ---------------------------------------


    POTLOK:  cpu time    1.3936: real time    1.3940
    SETDIJ:  cpu time    2.1108: real time    2.1111
    TRIAL :  cpu time  508.4339: real time  508.5579
    CORREC:  cpu time    0.0010: real time    0.0012
    CHARGE:  cpu time    1.6572: real time    1.6573
    --------------------------------------------
      LOOP:  cpu time  513.5994: real time  513.7243

 eigenvalue-minimisations  :     0
 total energy-change (2. order) :-0.8177751E-02  (-0.7031819E-02)
 number of electron     241.0000002 magnetization       1.0000001
 augmentation part       11.8425022 magnetization       1.0543663

 DIPCOR: dipole corrections for dipol
 direction  3 min pos     1,
 dipolmoment           0.000231     -0.000045     -0.263371 electrons x Angstroem
 Tr[quadrupol]     -6381.030480

 energy correction for charged system         0.000000 eV
 dipol+quadrupol energy correction            0.001983 eV
 added-field ion interaction          0.000000 eV  (added to PSCEN)


 Free energy of the ion-electron system (eV)
  ---------------------------------------------------
  alpha Z        PSCENC =        98.80950995
  Ewald energy   TEWEN  =     38027.57169793
  -Hartree energ DENC   =    -46086.53191744
  -exchange      EXHF   =       544.27636573
  -V(xc)+E(xc)   XCENC  =       577.91809626
  PAW double counting   =     26445.27748259   -26443.78656187
  entropy T*S    EENTRO =        -0.00000000
  eigenvalues    EBANDS =     -3136.63385371
  atomic energy  EATOM  =      9363.02833311
  ---------------------------------------------------
  free energy    TOTEN  =      -610.07084746 eV

  energy without entropy =     -610.07084746  energy(sigma->0) =     -610.07084746
  exchange ACFDT corr.  =        -0.00000000  see jH, gK, PRB 81, 115126


--------------------------------------------------------------------------------------------------------




--------------------------------------- Iteration      1(  16)  ---------------------------------------


    POTLOK:  cpu time    1.3938: real time    1.3939
    SETDIJ:  cpu time    2.0795: real time    2.0796
    TRIAL :  cpu time  507.8221: real time  507.9336
    CORREC:  cpu time    0.0010: real time    0.0013
    CHARGE:  cpu time    1.6622: real time    1.6627
    --------------------------------------------
      LOOP:  cpu time  512.9615: real time  513.0739

 eigenvalue-minimisations  :     0
 total energy-change (2. order) :-0.6604708E-02  (-0.5714319E-02)
 number of electron     241.0000002 magnetization       1.0000001
 augmentation part       11.8440539 magnetization       1.0551304

 DIPCOR: dipole corrections for dipol
 direction  3 min pos     1,
 dipolmoment           0.000231     -0.000045     -0.263858 electrons x Angstroem
 Tr[quadrupol]     -6381.034064

 energy correction for charged system         0.000000 eV
 dipol+quadrupol energy correction            0.001991 eV
 added-field ion interaction          0.000000 eV  (added to PSCEN)


 Free energy of the ion-electron system (eV)
  ---------------------------------------------------
  alpha Z        PSCENC =        98.80951730
  Ewald energy   TEWEN  =     38027.57169793
  -Hartree energ DENC   =    -46086.68283480
  -exchange      EXHF   =       544.31414655
  -V(xc)+E(xc)   XCENC  =       577.93842219
  PAW double counting   =     26447.60816382   -26446.14103933
  entropy T*S    EENTRO =        -0.00000000
  eigenvalues    EBANDS =     -3136.52385894
  atomic energy  EATOM  =      9363.02833311
  ---------------------------------------------------
  free energy    TOTEN  =      -610.07745217 eV

  energy without entropy =     -610.07745217  energy(sigma->0) =     -610.07745217
  exchange ACFDT corr.  =        -0.00000000  see jH, gK, PRB 81, 115126


--------------------------------------------------------------------------------------------------------




--------------------------------------- Iteration      1(  17)  ---------------------------------------


    POTLOK:  cpu time    1.3867: real time    1.3872
    SETDIJ:  cpu time    2.0830: real time    2.0834
    TRIAL :  cpu time  508.0207: real time  508.1001
    CORREC:  cpu time    0.0010: real time    0.0013
    CHARGE:  cpu time    1.6584: real time    1.6587
    --------------------------------------------
      LOOP:  cpu time  513.1527: real time  513.2335

 eigenvalue-minimisations  :     0
 total energy-change (2. order) :-0.5388363E-02  (-0.4695023E-02)
 number of electron     241.0000002 magnetization       1.0000001
 augmentation part       11.8452719 magnetization       1.0558214

 DIPCOR: dipole corrections for dipol
 direction  3 min pos     1,
 dipolmoment           0.000232     -0.000045     -0.264397 electrons x Angstroem
 Tr[quadrupol]     -6381.037016

 energy correction for charged system         0.000000 eV
 dipol+quadrupol energy correction            0.001999 eV
 added-field ion interaction          0.000000 eV  (added to PSCEN)


 Free energy of the ion-electron system (eV)
  ---------------------------------------------------
  alpha Z        PSCENC =        98.80952544
  Ewald energy   TEWEN  =     38027.57169793
  -Hartree energ DENC   =    -46086.80941063
  -exchange      EXHF   =       544.34755961
  -V(xc)+E(xc)   XCENC  =       577.95626863
  PAW double counting   =     26449.95522393   -26448.50804949
  entropy T*S    EENTRO =        -0.00000000
  eigenvalues    EBANDS =     -3136.43398906
  atomic energy  EATOM  =      9363.02833311
  ---------------------------------------------------
  free energy    TOTEN  =      -610.08284053 eV

  energy without entropy =     -610.08284053  energy(sigma->0) =     -610.08284053
  exchange ACFDT corr.  =        -0.00000000  see jH, gK, PRB 81, 115126


--------------------------------------------------------------------------------------------------------




--------------------------------------- Iteration      1(  18)  ---------------------------------------


    POTLOK:  cpu time    1.3895: real time    1.3898
    SETDIJ:  cpu time    2.0828: real time    2.0831
    TRIAL :  cpu time  507.5001: real time  507.5750
    CORREC:  cpu time    0.0010: real time    0.0013
    CHARGE:  cpu time    1.6591: real time    1.6591
    --------------------------------------------
      LOOP:  cpu time  512.6351: real time  512.7109

 eigenvalue-minimisations  :     0
 total energy-change (2. order) :-0.4443079E-02  (-0.3898864E-02)
 number of electron     241.0000002 magnetization       1.0000001
 augmentation part       11.8462961 magnetization       1.0563975

 DIPCOR: dipole corrections for dipol
 direction  3 min pos     1,
 dipolmoment           0.000232     -0.000046     -0.264898 electrons x Angstroem
 Tr[quadrupol]     -6381.039259

 energy correction for charged system         0.000000 eV
 dipol+quadrupol energy correction            0.002006 eV
 added-field ion interaction          0.000000 eV  (added to PSCEN)


 Free energy of the ion-electron system (eV)
  ---------------------------------------------------
  alpha Z        PSCENC =        98.80953302
  Ewald energy   TEWEN  =     38027.57169793
  -Hartree energ DENC   =    -46086.90390074
  -exchange      EXHF   =       544.37691299
  -V(xc)+E(xc)   XCENC  =       577.97180340
  PAW double counting   =     26452.10040588   -26450.66934342
  entropy T*S    EENTRO =        -0.00000000
[...]
  augment    35.47082    38.19303    40.65387    -1.13876     0.00456     1.04703
  Kinetic  3561.95202  3576.91297  4062.52685     8.91646     0.28141     1.67002
  Fock     -300.83972  -303.03785  -277.87548     1.81651    -0.13212    -0.94902
  -------------------------------------------------------------------------------------
  Total     -30.05599   -51.29549    -0.11314     1.31008    -0.56423     1.14398
  in kB     -15.15794   -25.86951    -0.05706     0.66070    -0.28456     0.57694
  external pressure =      -13.69 kB  Pullay stress =        0.00 kB


 VOLUME and BASIS-vectors are now :
 -----------------------------------------------------------------------------
  energy-cutoff  :      500.00
  volume of cell :     3176.89
      direct lattice vectors                 reciprocal lattice vectors
    12.688400000  0.000000000  0.000000000     0.078812143 -0.000555449  0.000069147
     0.088565543 12.566487910  0.000000000     0.000000000  0.079576729 -0.000013686
    -0.017456691  0.003426670 19.924192058     0.000000000  0.000000000  0.050190241

  length of vectors
    12.688400000 12.566800000 19.924200000     0.078814131  0.079576730  0.050190241


 FORCES acting on ions:
    Electron-Ion                     Ewald-Force                    Non-Local-Force
 -----------------------------------------------------------------------------------------------
   -.570E+00 -.149E+01 0.402E+01   0.436E+00 0.153E+01 -.404E+01   0.861E-02 -.539E-01 0.311E-01
   0.139E+01 0.907E-01 0.234E+01   -.155E+01 -.112E+00 -.235E+01   0.118E+00 0.630E-01 0.126E-01
   0.107E+02 -.267E+01 0.138E+01   -.106E+02 0.276E+01 -.139E+01   0.481E-01 -.887E-01 -.200E-02
   0.239E+00 -.112E+01 0.416E+01   0.143E+00 0.118E+01 -.412E+01   -.332E+00 0.116E-01 -.328E-01
   -.171E+01 0.509E+01 0.236E+01   0.185E+01 -.529E+01 -.245E+01   -.162E+00 0.170E+00 0.825E-01
   0.106E+02 -.453E+01 -.226E+00   -.112E+02 0.451E+01 0.234E+00   0.474E+00 -.164E-01 0.652E-03
   0.135E+02 -.130E+01 0.254E+01   -.136E+02 0.119E+01 -.259E+01   0.131E+00 0.553E-01 0.548E-01
   -.238E+02 0.234E+02 -.113E+02   0.272E+02 -.269E+02 0.116E+02   -.316E+01 0.325E+01 -.286E+00
   0.680E+01 -.124E+01 0.181E+01   -.691E+01 0.125E+01 -.182E+01   0.127E+00 0.124E-01 0.198E-01
   0.403E+02 -.123E+02 -.193E+01   -.437E+02 0.128E+02 0.189E+01   0.353E+01 -.595E+00 0.514E-01
   0.833E+01 0.596E+01 0.191E+01   -.874E+01 -.602E+01 -.192E+01   0.296E+00 0.110E+00 0.252E-01
   0.392E+02 0.171E+02 0.179E+01   -.425E+02 -.177E+02 -.176E+01   0.331E+01 0.495E+00 -.985E-02
   -.516E+01 -.232E+02 0.470E+01   0.623E+01 0.260E+02 -.471E+01   -.975E+00 -.267E+01 -.591E-02
   0.302E+01 -.886E+01 0.171E+01   -.287E+01 0.936E+01 -.173E+01   -.994E-01 -.461E+00 0.631E-02
   -.204E+00 -.117E+01 -.431E+00   0.140E+00 0.132E+01 0.428E+00   0.325E-01 -.185E+00 -.909E-02
   0.133E+02 -.190E+01 -.374E+00   -.135E+02 0.209E+01 0.370E+00   0.236E+00 -.148E+00 -.116E-01
   0.529E+01 -.475E+01 0.412E+01   -.514E+01 0.500E+01 -.412E+01   -.116E+00 -.281E+00 0.916E-03
   -.598E+01 -.799E+01 0.117E+02   0.601E+01 0.841E+01 -.117E+02   -.882E-01 -.421E+00 0.360E-01
   -.791E+01 -.632E+01 0.571E+01   0.826E+01 0.685E+01 -.579E+01   -.382E+00 -.479E+00 0.740E-01
   -.711E+00 -.605E+01 0.799E+01   0.910E+00 0.635E+01 -.796E+01   -.101E+00 -.269E+00 -.360E-01
   -.546E+00 -.736E+01 0.931E+01   0.229E+00 0.809E+01 -.948E+01   0.295E+00 -.644E+00 0.155E+00
   -.943E+00 -.215E+02 -.415E+01   0.180E+01 0.230E+02 0.418E+01   -.552E+00 -.140E+01 -.307E-01
   -.108E+02 -.181E+02 0.122E+00   0.109E+02 0.193E+02 -.409E+00   -.790E-01 -.104E+01 0.394E+00
   -.157E+02 -.373E+01 0.236E+02   0.183E+02 0.668E+01 -.240E+02   -.236E+01 -.326E+01 0.444E+00
   0.846E+01 -.192E+02 0.140E+02   -.106E+02 0.227E+02 -.139E+02   0.192E+01 -.324E+01 -.421E-01
   -.111E+02 -.420E+01 0.191E+02   0.119E+02 0.540E+01 -.192E+02   -.645E+00 -.997E+00 0.970E-01
   -.681E+01 -.797E+01 0.184E+02   0.685E+01 0.863E+01 -.185E+02   0.179E-01 -.639E+00 0.149E+00
   -.392E+01 -.622E+01 0.759E+01   0.373E+01 0.665E+01 -.760E+01   0.138E+00 -.444E+00 0.497E-05
   -.490E+00 -.108E+02 0.120E+02   0.200E+00 0.115E+02 -.120E+02   0.175E+00 -.651E+00 -.406E-01
   -.369E+01 -.537E+01 0.137E+02   0.366E+01 0.590E+01 -.137E+02   0.140E-01 -.532E+00 -.142E-02
   -.614E+01 -.231E+01 0.260E+01   0.597E+01 0.242E+01 -.260E+01   0.457E-01 -.975E-01 -.874E-02
   -.757E+01 -.896E+01 0.592E+01   0.738E+01 0.945E+01 -.583E+01   0.138E+00 -.437E+00 -.773E-01
   0.542E+01 -.473E+01 0.629E+01   -.537E+01 0.511E+01 -.629E+01   0.634E-01 -.346E+00 0.812E-02
   0.106E+02 -.482E+01 0.294E+01   -.107E+02 0.507E+01 -.296E+01   0.133E+00 -.205E+00 0.267E-01
   0.754E+00 -.714E+01 0.324E+01   -.113E+01 0.723E+01 -.328E+01   0.342E+00 -.137E+00 0.459E-01
   0.463E+01 -.174E+02 -.110E+02   -.646E+01 0.171E+02 0.110E+02   0.159E+01 -.505E-02 -.758E-02
   0.759E+01 -.126E+02 0.308E+01   -.805E+01 0.134E+02 -.317E+01   0.456E+00 -.720E+00 0.756E-01
   0.130E+02 -.482E+01 -.446E+00   -.133E+02 0.499E+01 0.476E+00   0.378E+00 -.207E+00 -.341E-01
   0.596E+01 0.214E+00 -.130E+01   -.640E+01 0.611E-01 0.131E+01   0.316E+00 -.184E+00 0.103E-01
   -.162E+02 0.281E+02 -.532E+00   0.204E+02 -.288E+02 0.250E+00   -.400E+01 0.832E+00 0.267E+00
   0.115E+02 0.113E+02 -.871E+01   -.118E+02 -.121E+02 0.886E+01   0.425E+00 0.959E+00 -.134E+00
   -.328E+00 0.728E+01 0.233E+01   0.408E+00 -.740E+01 -.234E+01   -.179E+00 0.174E+00 0.184E-01
   -.189E+01 0.546E+01 0.431E+01   0.215E+01 -.594E+01 -.431E+01   -.251E+00 0.384E+00 0.109E-01
   -.144E+02 0.226E+01 0.793E+01   0.150E+02 -.227E+01 -.782E+01   -.692E+00 0.352E-01 -.111E+00
   -.959E+01 0.701E+01 0.555E+01   0.102E+02 -.757E+01 -.553E+01   -.525E+00 0.364E+00 -.147E-01
   0.668E+01 0.476E+01 0.288E+01   -.684E+01 -.502E+01 -.290E+01   0.262E+00 0.255E+00 0.230E-01
   -.493E+01 0.384E+01 0.169E+01   0.505E+01 -.386E+01 -.167E+01   -.117E+00 0.574E-01 -.266E-01
   -.856E+01 -.353E+01 0.892E+01   0.860E+01 0.362E+01 -.892E+01   -.525E-01 -.144E+00 0.722E-02
   -.110E+01 -.435E+00 0.615E+01   0.135E+01 0.701E+00 -.617E+01   -.246E+00 -.214E+00 0.967E-02
   0.838E+01 -.252E+01 0.623E+00   -.836E+01 0.250E+01 -.638E+00   0.251E-01 -.405E-01 0.776E-03
   -.555E+02 -.517E+02 -.225E+02   0.596E+02 0.581E+02 0.232E+02   -.471E+01 -.634E+01 -.862E+00
   0.294E+02 -.629E+02 -.321E+02   -.344E+02 0.706E+02 0.331E+02   0.509E+01 -.773E+01 -.941E+00
   -.107E+02 -.448E+02 -.166E+02   0.217E+02 0.622E+02 0.173E+02   -.108E+02 -.164E+02 -.644E+00
   -.666E+01 0.571E+02 0.242E+00   0.185E+02 -.773E+02 0.759E-01   -.114E+02 0.190E+02 -.359E+00
   0.191E+02 0.101E+03 -.808E+01   -.283E+02 -.121E+03 0.849E+01   0.861E+01 0.186E+02 -.471E+00
   0.116E+02 0.561E+02 0.472E+02   -.209E+02 -.711E+02 -.501E+02   0.915E+01 0.145E+02 0.279E+01
   -.446E+02 0.549E+02 0.108E+03   0.394E+02 -.528E+02 -.107E+03   0.348E+01 -.188E+01 -.197E+01
   -.487E+01 0.150E+02 -.282E+03   0.850E+01 -.198E+02 0.276E+03   -.180E+01 0.427E+01 0.763E+01
 -----------------------------------------------------------------------------------------------
   0.272E+01 -.117E+02 -.673E+01   -.291E-12 -.220E-12 0.000E+00   -.247E+01 0.996E+01 0.638E+01
 
 
 POSITION                                       TOTAL-FORCE (eV/Angst)
 -----------------------------------------------------------------------------------
      2.88329     12.54385      9.93640        -0.130598     -0.010077      0.010353
      0.68404      1.24301      9.94938        -0.048502      0.049279     -0.000123
      1.47324     12.55355      9.94347         0.144250     -0.008914     -0.006013
      3.50342      1.21129      9.95206         0.038066      0.071830      0.005231
      2.80343      2.44572      9.97164        -0.035504     -0.014001     -0.009488
      0.71590      3.75732      9.97041        -0.120167     -0.043447      0.007724
      1.39004      2.48455      9.96049         0.047673     -0.050624      0.005289
      3.52531      3.66882     10.02374         0.060801     -0.079197      0.030556
      0.83495      6.26849      9.95468         0.017941      0.015513      0.009237
      1.50411      4.98019      9.97663         0.319003     -0.059517      0.020714
      0.79939      8.78325      9.93705        -0.104575      0.050723      0.013531
      1.56003      7.54383      9.93981         0.260952     -0.015559      0.017616
      3.59000      8.82137      9.91321         0.038401      0.005618     -0.019369
      2.89782     10.06371      9.92664         0.041091      0.009852     -0.014835
      0.77952     11.29836      9.94283        -0.041408     -0.043547     -0.012807
      1.48063     10.04939      9.93866         0.016806      0.028223     -0.016832
      3.59286     11.30720      9.92261         0.038786     -0.046605      0.001770
      7.13047     12.55383      9.91121        -0.069964     -0.020442      0.009821
      4.91745      1.21535      9.95529        -0.054230      0.028901     -0.000342
      5.71591     12.54632      9.92119         0.097763      0.019320     -0.012675
      7.74528      1.22952      9.94882        -0.003206      0.062646     -0.005289
      7.04577      2.45916     10.02929         0.278920     -0.042567      0.000077
      5.60984      2.45798     10.01447        -0.069095      0.120288      0.130143
      7.09255      7.63048      9.90213         0.123114     -0.493323      0.092802
      5.01902      8.83181      9.87895        -0.101818      0.060894      0.021344
      7.82313      8.85229      9.88116         0.112341      0.140835      0.003645
      7.12476     10.08571      9.87018         0.063910     -0.012214      0.019618
      5.00437     11.31141      9.90678        -0.047867     -0.038519     -0.002059
      5.70511     10.07080      9.88302        -0.102746     -0.025182     -0.012738
      7.83262     11.31681      9.88826        -0.008220     -0.023437      0.015342
     11.35651     12.56309      9.93798        -0.135846      0.000730     -0.004403
      9.16039      1.25901      9.94793        -0.058765      0.026365      0.016163
      9.94794     12.56807      9.92673         0.128094      0.013666      0.012472
     11.95778      1.25989      9.94770         0.067337      0.030870      0.003210
     11.26519      2.52465      9.96121        -0.025486     -0.053884      0.001153
      9.10272      3.78278     10.04734        -0.176414     -0.273443     -0.018324
      9.84052      2.52862      9.97637         0.027685     -0.017305     -0.015953
     11.97948      3.78277      9.97279         0.119918     -0.053304     -0.006458
     11.27954      5.05242      9.98133        -0.097968      0.078482      0.014056
      9.14236      6.33638      9.99283        -0.025887      0.172443     -0.001362
      9.82892      5.06358     10.01879         0.108599      0.138987      0.010813
     12.06354      6.27796      9.95677        -0.115552      0.067647      0.016027
     11.35108      7.52574      9.94217        -0.002605     -0.079985      0.009984
      9.23843      8.81496      9.91357        -0.156912      0.032369     -0.007774
      9.91524      7.54524      9.94387         0.024546     -0.179300     -0.001358
     12.06436      8.78005      9.93563         0.120331      0.007790      0.002015
     11.36715     10.04390      9.93214        -0.011279      0.051543     -0.012482
      9.25010     11.31163      9.90568        -0.023958     -0.065832      0.005005
      9.94802     10.05815      9.91469         0.003452      0.040258     -0.001382
     12.05524     11.30099      9.93901         0.057908     -0.070075     -0.014687
      4.93870      3.70568     10.09162        -0.853316     -0.286688     -0.177519
      7.68949      3.71571     10.13897         0.340812     -0.463053      0.086705
      2.86848      4.88557     10.00397        -0.743411     -0.514162      0.036212
      2.93505      7.60568      9.93056        -0.506803      0.474302     -0.072825
      7.73423      6.42720     10.02560         0.098741      0.964059     -0.108504
      5.71243      7.61222      9.84645         0.675802      0.652104      0.177846
      4.42185      6.11663      9.83483        -1.067944      0.140849     -0.548354
      6.33633      5.14368     10.73539         1.467001     -0.472181      0.297481
 -----------------------------------------------------------------------------------
    total drift:                               -0.018077      0.006051      0.010212


--------------------------------------------------------------------------------------------------------



  FREE ENERGIE OF THE ION-ELECTRON SYSTEM (eV)
  ---------------------------------------------------
  free  energy   TOTEN  =      -610.11568121 eV

  energy  without entropy=     -610.11568121  energy(sigma->0) =     -610.11568121
 


--------------------------------------------------------------------------------------------------------


    POTLOK:  cpu time    3.4531: real time    3.4533


--------------------------------------------------------------------------------------------------------


 stress matrix after NEB project (eV)
    -30.05599      1.31010      1.14398
      1.31008    -51.29549     -0.56581
      1.14790     -0.56423     -0.11314
  FORCES: max atom, RMS     1.569568    0.402573
  FORCE total and by dimension    3.065904    1.467001
  Stress total and by dimension   59.508821   51.295486
 writing wavefunctions
     LOOP+:  cpu time27813.8882: real time27820.1798
    4ORBIT:  cpu time    0.0000: real time    0.0000
 


 total charge     
 
# of ion       s       p       d       tot
------------------------------------------
    1        0.871   1.787   0.000   2.658
    2        0.866   1.775   0.000   2.641
    3        0.866   1.771   0.000   2.638
    4        0.872   1.785   0.000   2.658
    5        0.872   1.799   0.000   2.672
    6        0.860   1.755   0.000   2.615
    7        0.868   1.765   0.000   2.633
    8        0.872   1.735   0.000   2.607
    9        0.844   1.736   0.000   2.579
   10        0.856   1.701   0.000   2.556
   11        0.862   1.757   0.000   2.618
   12        0.851   1.685   0.000   2.536
   13        0.860   1.751   0.000   2.612
   14        0.870   1.787   0.000   2.657
   15        0.866   1.778   0.000   2.644
   16        0.867   1.763   0.000   2.630
   17        0.869   1.788   0.000   2.656
   18        0.868   1.788   0.000   2.656
   19        0.871   1.789   0.000   2.660
   20        0.870   1.779   0.000   2.649
   21        0.873   1.784   0.000   2.657
   22        0.876   1.773   0.000   2.649
   23        0.876   1.753   0.000   2.629
   24        0.861   1.706   0.000   2.567
   25        0.858   1.743   0.000   2.602
   26        0.871   1.801   0.000   2.672
   27        0.871   1.785   0.000   2.657
   28        0.869   1.787   0.000   2.656
   29        0.869   1.790   0.000   2.659
   30        0.870   1.786   0.000   2.657
   31        0.865   1.768   0.000   2.633
   32        0.865   1.764   0.000   2.629
   33        0.867   1.768   0.000   2.635
   34        0.865   1.759   0.000   2.624
   35        0.861   1.751   0.000   2.612
   36        0.856   1.721   0.000   2.577
   37        0.862   1.741   0.000   2.603
   38        0.860   1.741   0.000   2.601
   39        0.853   1.724   0.000   2.577
   40        0.847   1.703   0.000   2.550
   41        0.852   1.716   0.000   2.567
   42        0.854   1.721   0.000   2.575
   43        0.858   1.753   0.000   2.611
   44        0.867   1.763   0.000   2.630
   45        0.861   1.755   0.000   2.617
   46        0.862   1.749   0.000   2.611
   47        0.863   1.765   0.000   2.628
   48        0.866   1.764   0.000   2.630
   49        0.866   1.770   0.000   2.636
   50        0.866   1.764   0.000   2.630
   51        0.868   1.699   0.000   2.568
   52        0.880   1.673   0.000   2.553
   53        1.237   2.688   0.000   3.925
   54        1.234   2.663   0.000   3.897
   55        1.230   2.676   0.000   3.906
   56        1.221   2.680   0.000   3.901
   57        0.417   0.449   6.084   6.950
   58        0.498   0.553   3.563   4.614
--------------------------------------------------
tot         50.801 103.022   9.646 163.470
 


 magnetization (x)
 
# of ion       s       p       d       tot
------------------------------------------
    1       -0.000  -0.002   0.000  -0.002
    2       -0.000  -0.002   0.000  -0.002
    3        0.000   0.001   0.000   0.001
    4        0.000  -0.001   0.000  -0.001
    5        0.000   0.000   0.000   0.001
    6        0.000  -0.003   0.000  -0.003
    7        0.000   0.004   0.000   0.005
    8        0.001   0.002   0.000   0.003
    9        0.000   0.003   0.000   0.003
   10        0.001   0.004   0.000   0.005
   11        0.000  -0.001   0.000  -0.001
   12        0.001   0.003   0.000   0.003
   13       -0.000   0.002   0.000   0.002
   14        0.000  -0.000   0.000  -0.000
   15       -0.000  -0.002   0.000  -0.002
   16        0.000   0.000   0.000   0.000
   17        0.000   0.002   0.000   0.002
   18       -0.000  -0.002   0.000  -0.002
   19        0.000   0.001   0.000   0.001
   20        0.000   0.003   0.000   0.003
   21        0.001   0.006   0.000   0.006
   22       -0.003  -0.014   0.000  -0.017
   23       -0.001  -0.002   0.000  -0.004
   24       -0.002  -0.006   0.000  -0.007
   25       -0.001  -0.004   0.000  -0.005
   26        0.000   0.003   0.000   0.004
   27       -0.000  -0.004   0.000  -0.004
   28       -0.000  -0.002   0.000  -0.002
   29       -0.000   0.002   0.000   0.001
   30        0.000   0.002   0.000   0.002
   31       -0.000  -0.005   0.000  -0.005
   32       -0.001  -0.009   0.000  -0.010
   33        0.000   0.004   0.000   0.004
   34        0.000   0.003   0.000   0.003
   35       -0.000  -0.002   0.000  -0.002
   36       -0.001  -0.015   0.000  -0.016
   37        0.001   0.007   0.000   0.008
   38        0.000   0.003   0.000   0.003
   39       -0.000  -0.003   0.000  -0.003
   40       -0.001  -0.006   0.000  -0.007
   41        0.001   0.009   0.000   0.010
   42        0.000   0.002   0.000   0.002
   43       -0.000  -0.003   0.000  -0.004
   44       -0.000  -0.002   0.000  -0.002
   45        0.000   0.003   0.000   0.004
   46        0.000   0.003   0.000   0.004
   47       -0.000  -0.003   0.000  -0.003
   48       -0.000  -0.004   0.000  -0.004
   49        0.000   0.003   0.000   0.003
   50        0.000   0.003   0.000   0.003
   51        0.018   0.050   0.000   0.067
   52        0.013   0.061   0.000   0.074
   53        0.007   0.016   0.000   0.024
   54        0.012   0.036   0.000   0.048
   55        0.007   0.042   0.000   0.048
   56       -0.004  -0.011   0.000  -0.016
   57        0.010  -0.009   3.363   3.363
   58       -0.071  -0.012  -2.431  -2.513
--------------------------------------------------
tot         -0.011   0.154   0.932   1.075
 

 total amount of memory used by VASP MPI-rank0   188848. kBytes
=======================================================================

   base      :      30000. kBytes
   nonl-proj :       5351. kBytes
   fftplans  :      14250. kBytes
   grid      :      36827. kBytes
   one-center:         62. kBytes
   HF        :         23. kBytes
   nonlr-proj:      25490. kBytes
   wavefun   :      76845. kBytes
 
  
  
 General timing and accounting informations for this job:
 ========================================================
  
                  Total CPU time used (sec):    27907.602
                            User time (sec):    27866.236
                          System time (sec):       41.365
                         Elapsed time (sec):    27915.370
  
                   Maximum memory used (kb):      428516.
                   Average memory used (kb):           0.
  
                          Minor page faults:       220135
                          Major page faults:            0
                 Voluntary context switches:         1149
