 vasp.5.4.4.18Apr17-6-g9f103f2a35 (build Feb 25 2019 10:51:38) complex          
  
 executed on             LinuxIFC date 2021.06.19  04:32:41
 running on   80 total cores
 distrk:  each k-point on   40 cores,    2 groups
 distr:  one band on NCORES_PER_BAND=  40 cores,    1 groups


--------------------------------------------------------------------------------------------------------


 INCAR:
 POTCAR:    PAW_PBE C 08Apr2002                   
 POTCAR:    PAW_PBE N 08Apr2002                   
 POTCAR:    PAW_PBE Fe 06Sep2000                  
 POTCAR:    PAW_PBE V 08Apr2002                   

 ----------------------------------------------------------------------------- 
|                                                                             |
|           W    W    AA    RRRRR   N    N  II  N    N   GGGG   !!!           |
|           W    W   A  A   R    R  NN   N  II  NN   N  G    G  !!!           |
|           W    W  A    A  R    R  N N  N  II  N N  N  G       !!!           |
|           W WW W  AAAAAA  RRRRR   N  N N  II  N  N N  G  GGG   !            |
|           WW  WW  A    A  R   R   N   NN  II  N   NN  G    G                |
|           W    W  A    A  R    R  N    N  II  N    N   GGGG   !!!           |
|                                                                             |
|      For optimal performance we recommend to set                            |
|        NCORE= 4 - approx SQRT( number of cores)                             |
|      NCORE specifies how many cores store one orbital (NPAR=cpu/NCORE).     |
|      This setting can  greatly improve the performance of VASP for DFT.     |
|      The default,   NCORE=1            might be grossly inefficient         |
|      on modern multi-core architectures or massively parallel machines.     |
|      Do your own testing !!!!                                               |
|      Unfortunately you need to use the default for GW and RPA calculations. |
|      (for HF NCORE is supported but not extensively tested yet)             |
|                                                                             |
 ----------------------------------------------------------------------------- 


 ----------------------------------------------------------------------------- 
|                                                                             |
|           W    W    AA    RRRRR   N    N  II  N    N   GGGG   !!!           |
|           W    W   A  A   R    R  NN   N  II  NN   N  G    G  !!!           |
|           W    W  A    A  R    R  N N  N  II  N N  N  G       !!!           |
|           W WW W  AAAAAA  RRRRR   N  N N  II  N  N N  G  GGG   !            |
|           WW  WW  A    A  R   R   N   NN  II  N   NN  G    G                |
|           W    W  A    A  R    R  N    N  II  N    N   GGGG   !!!           |
|                                                                             |
|      You have enabled k-point parallelism (KPAR>1).                         |
|      This developmental code was originally  written by Paul Kent at ORNL,  |
|      and carefully double checked in Vienna.                                |
|      GW as well as linear response parallelism added by Martijn Marsman     |
|      and Georg Kresse.                                                      |
|      Carefully verify results versus KPAR=1.                                |
|      Report problems to Paul Kent and Vienna.                               |
|                                                                             |
 ----------------------------------------------------------------------------- 

 POTCAR:    PAW_PBE C 08Apr2002                   
   VRHFIN =C: s2p2                                                              
   LEXCH  = PE                                                                  
   EATOM  =   147.1560 eV,   10.8157 Ry                                         
                                                                                
   TITEL  = PAW_PBE C 08Apr2002                                                 
   LULTRA =        F    use ultrasoft PP ?                                      
   IUNSCR =        1    unscreen: 0-lin 1-nonlin 2-no                           
   RPACOR =    1.200    partial core radius                                     
   POMASS =   12.011; ZVAL   =    4.000    mass and valenz                      
   RCORE  =    1.500    outmost cutoff radius                                   
   RWIGS  =    1.630; RWIGS  =    0.863    wigner-seitz radius (au A)           
   ENMAX  =  400.000; ENMIN  =  300.000 eV                                      
   ICORE  =        2    local potential                                         
   LCOR   =        T    correct aug charges                                     
   LPAW   =        T    paw PP                                                  
   EAUG   =  644.873                                                            
   DEXC   =    0.000                                                            
   RMAX   =    1.529    core radius for proj-oper                               
   RAUG   =    1.300    factor for augmentation sphere                          
   RDEP   =    1.501    radius for radial grids                                 
   RDEPT  =    1.300    core radius for aug-charge                              
                                                                                
   Atomic configuration                                                         
    4 entries                                                                   
     n  l   j            E        occ.                                          
     1  0  0.50      -273.3789   2.0000                                         
     2  0  0.50       -13.7508   2.0000                                         
     2  1  0.50        -5.2854   2.0000                                         
     3  2  1.50        -5.4423   0.0000                                         
   Description                                                                  
     l       E           TYP  RCUT    TYP  RCUT                                 
     0    -13.7508458     23  1.200                                             
     0     -8.2022199     23  1.200                                             
     1     -5.2854383     23  1.500                                             
     1     34.0145650     23  1.500                                             
     2     -5.4423304      7  1.500                                             
  local pseudopotential read in
  partial core-charges read in
  partial kinetic energy density read in
  atomic valenz-charges read in
  non local Contribution for L=           0  read in
    real space projection operators read in
  non local Contribution for L=           0  read in
    real space projection operators read in
  non local Contribution for L=           1  read in
    real space projection operators read in
  non local Contribution for L=           1  read in
    real space projection operators read in
    PAW grid and wavefunctions read in
 
   number of l-projection  operators is LMAX  =           4
   number of lm-projection operators is LMMAX =           8
 
 POTCAR:    PAW_PBE N 08Apr2002                   
   VRHFIN =N: s2p3                                                              
   LEXCH  = PE                                                                  
   EATOM  =   264.5486 eV,   19.4438 Ry                                         
                                                                                
   TITEL  = PAW_PBE N 08Apr2002                                                 
   LULTRA =        F    use ultrasoft PP ?                                      
   IUNSCR =        1    unscreen: 0-lin 1-nonlin 2-no                           
   RPACOR =    1.200    partial core radius                                     
   POMASS =   14.001; ZVAL   =    5.000    mass and valenz                      
   RCORE  =    1.500    outmost cutoff radius                                   
   RWIGS  =    1.400; RWIGS  =    0.741    wigner-seitz radius (au A)           
   ENMAX  =  400.000; ENMIN  =  300.000 eV                                      
   ICORE  =        2    local potential                                         
   LCOR   =        T    correct aug charges                                     
   LPAW   =        T    paw PP                                                  
   EAUG   =  627.112                                                            
   DEXC   =    0.000                                                            
   RMAX   =    1.529    core radius for proj-oper                               
   RAUG   =    1.300    factor for augmentation sphere                          
   RDEP   =    1.514    radius for radial grids                                 
   RDEPT  =    1.338    core radius for aug-charge                              
                                                                                
   Atomic configuration                                                         
    4 entries                                                                   
     n  l   j            E        occ.                                          
     1  0  0.50      -384.7179   2.0000                                         
     2  0  0.50       -18.5828   2.0000                                         
     2  1  0.50        -7.0898   3.0000                                         
     3  2  1.50        -6.8029   0.0000                                         
   Description                                                                  
     l       E           TYP  RCUT    TYP  RCUT                                 
     0    -18.5828119     23  1.200                                             
     0    -13.5018863     23  1.200                                             
     1     -7.0897853     23  1.500                                             
     1      9.5240782     23  1.500                                             
     2     -6.8029130      7  1.500                                             
  local pseudopotential read in
  partial core-charges read in
  partial kinetic energy density read in
  atomic valenz-charges read in
  non local Contribution for L=           0  read in
    real space projection operators read in
  non local Contribution for L=           0  read in
    real space projection operators read in
  non local Contribution for L=           1  read in
    real space projection operators read in
  non local Contribution for L=           1  read in
    real space projection operators read in
    PAW grid and wavefunctions read in
 
   number of l-projection  operators is LMAX  =           4
   number of lm-projection operators is LMMAX =           8
 
 POTCAR:    PAW_PBE Fe 06Sep2000                  
   VRHFIN =Fe:  d7 s1                                                           
   LEXCH  = PE                                                                  
   EATOM  =   594.3153 eV,   43.6809 Ry                                         
                                                                                
   TITEL  = PAW_PBE Fe 06Sep2000                                                
   LULTRA =        F    use ultrasoft PP ?                                      
   IUNSCR =        1    unscreen: 0-lin 1-nonlin 2-no                           
   RPACOR =    2.000    partial core radius                                     
   POMASS =   55.847; ZVAL   =    8.000    mass and valenz                      
   RCORE  =    2.300    outmost cutoff radius                                   
   RWIGS  =    2.460; RWIGS  =    1.302    wigner-seitz radius (au A)           
   ENMAX  =  267.882; ENMIN  =  200.911 eV                                      
   RCLOC  =    1.701    cutoff for local pot                                    
   LCOR   =        T    correct aug charges                                     
   LPAW   =        T    paw PP                                                  
   EAUG   =  511.368                                                            
   DEXC   =    0.000                                                            
   RMAX   =    2.356    core radius for proj-oper                               
   RAUG   =    1.300    factor for augmentation sphere                          
   RDEP   =    2.442    radius for radial grids                                 
   RDEPT  =    1.890    core radius for aug-charge                              
                                                                                
   Atomic configuration                                                         
    9 entries                                                                   
     n  l   j            E        occ.                                          
     1  0  0.50     -6993.8440   2.0000                                         
     2  0  0.50      -814.6047   2.0000                                         
     2  1  1.50      -693.3689   6.0000                                         
     3  0  0.50       -89.4732   2.0000                                         
     3  1  1.50       -55.6373   6.0000                                         
     3  2  2.50        -3.8151   7.0000                                         
     4  0  0.50        -4.2551   1.0000                                         
     4  1  1.50        -3.4015   0.0000                                         
     4  3  2.50        -1.3606   0.0000                                         
   Description                                                                  
     l       E           TYP  RCUT    TYP  RCUT                                 
     2     -3.8151135     23  2.300                                             
     2     -5.1756961     23  2.300                                             
     0     -4.2550963     23  2.300                                             
     0      7.2035603     23  2.300                                             
     1     -2.7211652     23  2.300                                             
     1     18.4316424     23  2.300                                             
  local pseudopotential read in
  partial core-charges read in
  partial kinetic energy density read in
  atomic valenz-charges read in
  non local Contribution for L=           2  read in
    real space projection operators read in
  non local Contribution for L=           2  read in
    real space projection operators read in
  non local Contribution for L=           0  read in
    real space projection operators read in
  non local Contribution for L=           0  read in
    real space projection operators read in
  non local Contribution for L=           1  read in
    real space projection operators read in
  non local Contribution for L=           1  read in
    real space projection operators read in
    PAW grid and wavefunctions read in
 
   number of l-projection  operators is LMAX  =           6
   number of lm-projection operators is LMMAX =          18
 
 POTCAR:    PAW_PBE V 08Apr2002                   
   VRHFIN =V: p6 d4 s1                                                          
   LEXCH  = PE                                                                  
   EATOM  =   170.8679 eV,   12.5584 Ry                                         
                                                                                
   TITEL  = PAW_PBE V 08Apr2002                                                 
   LULTRA =        F    use ultrasoft PP ?                                      
   IUNSCR =        1    unscreen: 0-lin 1-nonlin 2-no                           
   RPACOR =    2.000    partial core radius                                     
   POMASS =   50.941; ZVAL   =    5.000    mass and valenz                      
   RCORE  =    2.700    outmost cutoff radius                                   
   RWIGS  =    2.500; RWIGS  =    1.323    wigner-seitz radius (au A)           
   ENMAX  =  192.543; ENMIN  =  144.408 eV                                      
   RCLOC  =    1.779    cutoff for local pot                                    
   LCOR   =        T    correct aug charges                                     
   LPAW   =        T    paw PP                                                  
   EAUG   =  358.662                                                            
   DEXC   =    0.000                                                            
   RMAX   =    2.768    core radius for proj-oper                               
   RAUG   =    1.300    factor for augmentation sphere                          
   RDEP   =    2.762    radius for radial grids                                 
   RDEPT  =    2.240    core radius for aug-charge                              
                                                                                
   Atomic configuration                                                         
    9 entries                                                                   
     n  l   j            E        occ.                                          
     1  0  0.50     -5360.7193   2.0000                                         
     2  0  0.50      -598.4546   2.0000                                         
     2  1  1.50      -499.0155   6.0000                                         
     3  0  0.50       -66.5711   2.0000                                         
     3  1  1.50       -40.5282   6.0000                                         
     3  2  2.50        -2.4291   4.0000                                         
     4  0  0.50        -3.8743   1.0000                                         
     4  1  0.50        -2.7212   0.0000                                         
     4  3  2.50        -1.3606   0.0000                                         
   Description                                                                  
     l       E           TYP  RCUT    TYP  RCUT                                 
     2     -2.4290901     23  2.700                                             
     2     -3.7896727     23  2.700                                             
     0     -3.8742752     23  2.700                                             
     0     27.2116520     23  2.700                                             
     1     -2.7211652     23  2.700                                             
     1     27.2116520     23  2.700                                             
  local pseudopotential read in
  partial core-charges read in
  partial kinetic energy density read in
  atomic valenz-charges read in
  non local Contribution for L=           2  read in
    real space projection operators read in
  non local Contribution for L=           2  read in
    real space projection operators read in
  non local Contribution for L=           0  read in
    real space projection operators read in
  non local Contribution for L=           0  read in
    real space projection operators read in
  non local Contribution for L=           1  read in
    real space projection operators read in
  non local Contribution for L=           1  read in
    real space projection operators read in
    PAW grid and wavefunctions read in
 
   number of l-projection  operators is LMAX  =           6
   number of lm-projection operators is LMMAX =          18
 

 ----------------------------------------------------------------------------- 
|                                                                             |
|  ADVICE TO THIS USER RUNNING 'VASP/VAMP'   (HEAR YOUR MASTER'S VOICE ...):  |
|                                                                             |
|      You have a (more or less) 'large supercell' and for larger cells       |
|      it might be more efficient to use real space projection opertators     |
|      So try LREAL= Auto  in the INCAR   file.                               |
|      Mind:          For very  accurate calculation you might also keep the  |
|      reciprocal projection scheme          (i.e. LREAL=.FALSE.)             |
|                                                                             |
 ----------------------------------------------------------------------------- 

  PAW_PBE C 08Apr2002                   :
 energy of atom  1       EATOM= -147.1560
 kinetic energy error for atom=    0.0076 (will be added to EATOM!!)
  PAW_PBE N 08Apr2002                   :
 energy of atom  2       EATOM= -264.5486
 kinetic energy error for atom=    0.0138 (will be added to EATOM!!)
  PAW_PBE Fe 06Sep2000                  :
 energy of atom  3       EATOM= -594.3153
 kinetic energy error for atom=    0.0026 (will be added to EATOM!!)
  PAW_PBE V 08Apr2002                   :
 energy of atom  4       EATOM= -170.8679
 kinetic energy error for atom=    0.0003 (will be added to EATOM!!)
 
 
 POSCAR:  C  N Fe  V                             
  positions in cartesian coordinates
  No initial velocities read in
 exchange correlation table for  LEXCH =        8
   RHO(1)=    0.500       N(1)  =     2000
   RHO(2)=  100.500       N(2)  =     4000

 VTST: version 3.2, (02/03/18)

 CHAIN: initializing optimizer
 
 OPT: Using VASP Conjugate-Gradient optimizer
 CHAIN: Read ICHAIN            0
 
 POSCAR:  C  N Fe  V                             
  positions in cartesian coordinates
  No initial velocities read in
 


--------------------------------------------------------------------------------------------------------


 ion  position               nearest neighbor table
   1  0.221  0.000  0.500-   3 1.42  20 1.43   4 1.43
   2  0.055  0.101  0.500-  34 1.43   3 1.44   7 1.44
   3  0.110  0.000  0.500-   1 1.42   2 1.44  18 1.44
   4  0.277  0.099  0.500-  22 1.42   5 1.43   1 1.43
   5  0.224  0.200  0.500-   4 1.43   7 1.43   8 1.44
   6  0.056  0.300  0.500-   7 1.43  38 1.43  11 1.44
   7  0.111  0.201  0.500-   6 1.43   5 1.43   2 1.44
   8  0.284  0.298  0.500-  51 1.39   5 1.44   9 1.45
   9  0.226  0.398  0.500-  12 1.44  11 1.44   8 1.45
  10  0.056  0.500  0.500-  11 1.45  15 1.45  42 1.45
  11  0.113  0.400  0.500-   6 1.44   9 1.44  10 1.45
  12  0.281  0.499  0.500-  53 1.34   9 1.44  13 1.46
  13  0.226  0.601  0.500-  15 1.44  16 1.45  12 1.46
  14  0.056  0.699  0.500-  19 1.43  46 1.44  15 1.44
  15  0.113  0.600  0.500-  14 1.44  13 1.44  10 1.45
  16  0.282  0.702  0.500-  55 1.39  17 1.44  13 1.45
  17  0.223  0.800  0.500-  20 1.43  19 1.43  16 1.44
  18  0.055  0.899  0.500-  50 1.42   3 1.44  19 1.44
  19  0.111  0.799  0.500-  17 1.43  14 1.43  18 1.44
  20  0.276  0.901  0.500-  28 1.42   1 1.43  17 1.43
  21  0.554  0.000  0.500-  23 1.41  24 1.42  30 1.42
  22  0.388  0.099  0.500-  26 1.41  23 1.42   4 1.42
  23  0.444  0.000  0.500-  21 1.41  22 1.42  28 1.42
  24  0.610  0.099  0.500-  25 1.41  21 1.42  32 1.42
  25  0.555  0.197  0.500-  52 1.38  24 1.41  26 1.43
  26  0.443  0.197  0.500-  51 1.38  22 1.41  25 1.43
  27  0.556  0.804  0.500-  56 1.38  30 1.40  29 1.44
  28  0.388  0.902  0.500-  29 1.41  23 1.42  20 1.42
  29  0.443  0.804  0.500-  55 1.38  28 1.41  27 1.44
  30  0.610  0.902  0.500-  27 1.40  21 1.42  48 1.42
  31  0.889  0.000  0.500-  33 1.42  34 1.44  50 1.44
  32  0.722  0.099  0.500-  24 1.42  37 1.43  33 1.43
  33  0.777  1.000  0.500-  31 1.42  48 1.43  32 1.43
  34  0.943  0.101  0.500-   2 1.43  31 1.44  35 1.44
  35  0.887  0.201  0.500-  38 1.43  37 1.43  34 1.44
  36  0.715  0.298  0.500-  52 1.39  37 1.44  41 1.45
  37  0.775  0.200  0.500-  32 1.43  35 1.43  36 1.44
  38  0.943  0.300  0.500-  35 1.43   6 1.43  39 1.44
  39  0.886  0.400  0.500-  38 1.44  41 1.44  42 1.44
  40  0.717  0.499  0.500-  54 1.34  41 1.44  45 1.46
  41  0.772  0.398  0.500-  40 1.44  39 1.44  36 1.45
  42  0.942  0.500  0.500-  39 1.44  43 1.45  10 1.45
  43  0.885  0.600  0.500-  46 1.44  45 1.44  42 1.45
  44  0.716  0.702  0.500-  56 1.39  49 1.44  45 1.45
  45  0.772  0.601  0.500-  43 1.44  44 1.45  40 1.46
  46  0.943  0.699  0.500-  47 1.43  14 1.44  43 1.44
  47  0.888  0.799  0.500-  49 1.43  46 1.43  50 1.44
  48  0.722  0.901  0.500-  30 1.42  33 1.43  49 1.43
  49  0.775  0.800  0.500-  48 1.43  47 1.43  44 1.44
  50  0.943  0.899  0.500-  18 1.42  31 1.44  47 1.44
  51  0.393  0.295  0.500-  26 1.38   8 1.39  57 1.93
  52  0.605  0.295  0.500-  25 1.38  36 1.39  57 1.93
  53  0.386  0.499  0.500-  12 1.34  58 1.81  57 1.86
  54  0.612  0.499  0.499-  40 1.34  58 1.81  57 1.86
  55  0.392  0.707  0.500-  29 1.38  16 1.39  58 2.03
  56  0.607  0.707  0.500-  27 1.38  44 1.39  58 2.02
  57  0.499  0.405  0.500-  54 1.86  53 1.86  51 1.93  52 1.93  58 2.28
  58  0.499  0.587  0.499-  53 1.81  54 1.81  56 2.02  55 2.03  57 2.28
 
  LATTYP: Found a triclinic cell.
 ALAT       =    17.8354657671
 B/A-ratio  =     0.7138809923
 C/A-ratio  =     1.7932158956
 COS(alpha) =     0.0000473868
 COS(beta)  =     0.5469661201
 COS(gamma) =     0.7138198770
  
  Lattice vectors:
  
 A1 = ( -12.7313099808, -12.4906999524,   0.0000000000)
 A2 = ( -12.7324000000,   0.0000000000,   0.0000000000)
 A3 = (  -0.0015155640, -24.9774605758, -19.9756992697)


Analysis of symmetry for initial positions (statically):
=====================================================================
 Subroutine PRICEL returns:
 Original cell was already a primitive cell.
 

 Routine SETGRP: Setting up the symmetry group for a 
 triclinic supercell.


 Subroutine GETGRP returns: Found  1 space group operations
 (whereof  1 operations were pure point group operations)
 out of a pool of  2 trial point group operations.


The static configuration has the point symmetry C_1 .


Analysis of symmetry for dynamics (positions and initial velocities):
=====================================================================
 Subroutine PRICEL returns:
 Original cell was already a primitive cell.
 

 Routine SETGRP: Setting up the symmetry group for a 
 triclinic supercell.


 Subroutine GETGRP returns: Found  1 space group operations
 (whereof  1 operations were pure point group operations)
 out of a pool of  2 trial point group operations.


The dynamic configuration has the point symmetry C_1 .


Analysis of structural, dynamic, and magnetic symmetry:
=====================================================================
 Subroutine PRICEL returns:
 Original cell was already a primitive cell.
 

 Routine SETGRP: Setting up the symmetry group for a 
 triclinic supercell.


 Subroutine GETGRP returns: Found  1 space group operations
 (whereof  1 operations were pure point group operations)
 out of a pool of  2 trial point group operations.


The magnetic configuration has the point symmetry C_1 .


 Subroutine INISYM returns: Found  1 space group operations
 (whereof  1 operations are pure point group operations),
 and found     1 'primitive' translations

 
 
 KPOINTS: KPOINTS created by Atomic Simulation Env

Automatic generation of k-mesh.
Space group operators:
 irot       det(A)        alpha          n_x          n_y          n_z        tau_x        tau_y        tau_z
    1     1.000000     0.000000     1.000000     0.000000     0.000000     0.000000     0.000000     0.000000
 
 Subroutine IBZKPT returns following result:
 ===========================================
 
 Found      2 irreducible k-points:
 
 Following reciprocal coordinates:
            Coordinates               Weight
  0.250000  0.250000 -0.000000      2.000000
 -0.250000  0.250000  0.000000      2.000000
 
 Following cartesian coordinates:
            Coordinates               Weight
  0.019635  0.020017  0.000000      2.000000
 -0.019635  0.020013  0.000008      2.000000
 
 
 Subroutine IBZKPT_HF returns following result:
 ==============================================
 
 Found      4 k-points in 1st BZ
 the following      4 k-points will be used (e.g. in the exchange kernel)
 Following reciprocal coordinates:   # in IRBZ
  0.250000  0.250000 -0.000000    0.25000000   1 t-inv F
 -0.250000  0.250000  0.000000    0.25000000   2 t-inv F
 -0.250000 -0.250000  0.000000    0.25000000   1 t-inv T
  0.250000 -0.250000  0.000000    0.25000000   2 t-inv T


--------------------------------------------------------------------------------------------------------




 Dimension of arrays:
   k-points           NKPTS =      2   k-points in BZ     NKDIM =      4   number of bands    NBANDS=    155
   number of dos      NEDOS =    301   number of ions     NIONS =     58
   non local maximal  LDIM  =      6   non local SUM 2l+1 LMDIM =     18
   total plane-waves  NPLWV = ******
   max r-space proj   IRMAX =      1   max aug-charges    IRDMAX=  26586
   dimension x,y,z NGX =    96 NGY =   96 NGZ =  150
   dimension x,y,z NGXF=   192 NGYF=  192 NGZF=  300
   support grid    NGXF=   192 NGYF=  192 NGZF=  300
   ions per type =              50   6   1   1
   NGX,Y,Z   is equivalent  to a cutoff of  12.53, 12.78, 12.48 a.u.
   NGXF,Y,Z  is equivalent  to a cutoff of  25.07, 25.55, 24.97 a.u.

 SYSTEM =  unknown system                          
 POSCAR =   C  N Fe  V                             

 Startparameter for this run:
   NWRITE =      2    write-flag & timer
   PREC   = accura    normal or accurate (medium, high low for compatibility)
   ISTART =      1    job   : 0-new  1-cont  2-samecut
   ICHARG =      0    charge: 1-file 2-atom 10-const
   ISPIN  =      2    spin polarized calculation?
   LNONCOLLINEAR =      F non collinear calculations
   LSORBIT =      F    spin-orbit coupling
   INIWAV =      1    electr: 0-lowe 1-rand  2-diag
   LASPH  =      T    aspherical Exc in radial PAW
   METAGGA=      F    non-selfconsistent MetaGGA calc.

 Electronic Relaxation 1
   ENCUT  =  500.0 eV  36.75 Ry    6.06 a.u.  23.21 22.77 36.42*2*pi/ulx,y,z
   ENINI  =  500.0     initial cutoff
   ENAUG  =  644.9 eV  augmentation charge cutoff
   NELM   =    250;   NELMIN=  2; NELMDL=  0     # of ELM steps 
   EDIFF  = 0.1E-03   stopping-criterion for ELM
   LREAL  =      F    real-space projection
   NLSPLINE    = F    spline interpolate recip. space projectors
   LCOMPAT=      F    compatible to vasp.4.4
   GGA_COMPAT  = T    GGA compatible to vasp.4.4-vasp.4.6
   LMAXPAW     = -100 max onsite density
   LMAXMIX     =    2 max onsite mixed and CHGCAR
   VOSKOWN=      0    Vosko Wilk Nusair interpolation
   ROPT   =    0.00000   0.00000   0.00000   0.00000
 Ionic relaxation
   EDIFFG = -.3E-01   stopping-criterion for IOM
   NSW    =      0    number of steps for IOM
   NBLOCK =      1;   KBLOCK =      1    inner block; outer block 
   IBRION =     -1    ionic relax: 0-MD 1-quasi-New 2-CG
   NFREE  =      1    steps in history (QN), initial steepest desc. (CG)
   ISIF   =      2    stress and relaxation
   IWAVPR =     10    prediction:  0-non 1-charg 2-wave 3-comb
   ISYM   =      3    0-nonsym 1-usesym 2-fastsym
   LCORR  =      T    Harris-Foulkes like correction to forces

   POTIM  = 0.5000    time-step for ionic-motion
   TEIN   =    0.0    initial temperature
   TEBEG  =    0.0;   TEEND  =   0.0 temperature during run
   SMASS  =  -3.00    Nose mass-parameter (am)
   estimated Nose-frequenzy (Omega)   =  0.10E-29 period in steps =****** mass=  -0.370E-26a.u.
   SCALEE = 1.0000    scale energy and forces
   NPACO  =    256;   APACO  = 16.0  distance and # of slots for P.C.
   PSTRESS=    0.0 pullay stress

  Mass of Ions in am
   POMASS =  12.01 14.00 55.85 50.94
  Ionic Valenz
   ZVAL   =   4.00  5.00  8.00  5.00
  Atomic Wigner-Seitz radii
   RWIGS  =  -1.00 -1.00 -1.00 -1.00
  virtual crystal weights 
   VCA    =   1.00  1.00  1.00  1.00
   NELECT =     243.0000    total number of electrons
   NUPDOWN=      -1.0000    fix difference up-down

 DOS related values:
   EMIN   =  10.00;   EMAX   =-10.00  energy-range for DOS
   EFERMI =   0.00
   ISMEAR =     0;   SIGMA  =   0.10  broadening in eV -4-tet -1-fermi 0-gaus

 Electronic relaxation 2 (details)
   IALGO  =     53    algorithm
   LDIAG  =      T    sub-space diagonalisation (order eigenvalues)
   LSUBROT=      F    optimize rotation matrix (better conditioning)
   TURBO    =      0    0=normal 1=particle mesh
   IRESTART =      0    0=no restart 2=restart with 2 vectors
   NREBOOT  =      0    no. of reboots
   NMIN     =      0    reboot dimension
   EREF     =   0.00    reference energy to select bands
   IMIX   =      4    mixing-type and parameters
     AMIX     =   0.40;   BMIX     =  1.00
     AMIX_MAG =   1.60;   BMIX_MAG =  1.00
     AMIN     =   0.10
     WC   =   100.;   INIMIX=   1;  MIXPRE=   1;  MAXMIX= -45

 Intra band minimization:
   WEIMIN = 0.0000     energy-eigenvalue tresh-hold
   EBREAK =  0.16E-06  absolut break condition
   DEPER  =   0.30     relativ break condition  

   TIME   =   0.20     timestep for ELM

  volume/ion in A,a.u.               =      54.77       369.63
  Fermi-wavevector in a.u.,A,eV,Ry     =   0.694935  1.313236  6.570716  0.482934
  Thomas-Fermi vector in A             =   1.777566
 
 Write flags
   LWAVE        =      T    write WAVECAR
   LDOWNSAMPLE  =      F    k-point downsampling of WAVECAR
   LCHARG       =      T    write CHGCAR
   LVTOT        =      F    write LOCPOT, total local potential
   LVHAR        =      F    write LOCPOT, Hartree potential only
   LELF         =      F    write electronic localiz. function (ELF)
   LORBIT       =     11    0 simple, 1 ext, 2 COOP (PROOUT), +10 PAW based schemes


 Dipole corrections
   LMONO  =      F    monopole corrections only (constant potential shift)
   LDIPOL =      T    correct potential (dipole corrections)
   IDIPOL =      3    1-x, 2-y, 3-z, 4-all directions 
   EPSILON=  1.0000000 bulk dielectric constant

 Exchange correlation treatment:
   GGA     =    PE    GGA type
   LEXCH   =     8    internal setting for exchange type
   VOSKOWN=      0    Vosko Wilk Nusair interpolation
   EXXOEP  =     0    0=HF, 1=EXX-LHF (local Hartree Fock) 2=EXX OEP
   LHFCALC =     T    Hartree Fock is set to
   LSYMGRAD=     F    symmetrize gradient (conserves proper symmetry)
   PRECFOCK=normal    Normal, Fast or Accurate (Low or Medium for compatibility)
   LRHFCALC=     F    long range Hartree Fock
   LRSCOR  =     F    long range correlation only (use DFT for short range part)
   LTHOMAS =     F    Thomas Fermi screening in HF
   LMODELHF=     F    short range full HF, long range fraction AEXX
   ENCUT4O =  -1.0   cutoff for four orbital integrals eV
   LMAXFOCK=     4    L truncation for augmentation on plane wave grid
   LMAXFOCKAE=  -1    L truncation for all-electron charge restoration on plane wave grid
   NMAXFOCKAE=   1    number of basis functions for all-electron charge restoration
   LFOCKAEDFT=     F  apply the AE augmentation even for DFT
   NKREDX  =     1    reduce k-point grid by
   NKREDY  =     1    reduce k-point grid by
   NKREDZ  =     1    reduce k-point grid by
   SHIFTRED=     F    shift reduced grid of Gamma
   HFKIDENT=     F    idential grid for each k-point
   ODDONLY =     F    use only odd q-grid points
   EVENONLY=     F    use only even q-grid points
   HFALPHA =   -1.0000 decay constant for conv. correction
   MCALPHA =    0.0000 extent of test-charge in conv. correction in multipole expansion
   AEXX    =    0.2500 exact exchange contribution
   HFSCREEN=    0.2000 screening length (either q_TF or 0.3 A-1)
   HFSCREENC=   0.2000 screening length for correlation (either q_TF or 0.3 A-1)
   HFRCUT  =    0.0000 spherical cutoff for potential kernel
   ALDAX   =    0.7500 LDA exchange part
   AGGAX   =    0.7500 GGA exchange part
   ALDAC   =    1.0000 LDA correlation
   AGGAC   =    1.0000 GGA correlation
   ENCUTFOCK=  -1.0 apply spherical cutoff to Coloumb kernel
   NBANDSGWLOW=     1    first orbital included in HF term
   NBLOCK_FOCK=    64    blocking factor in FOCK_ACC
 Linear response parameters
   LEPSILON=     F    determine dielectric tensor
   LRPA    =     F    only Hartree local field effects (RPA)
   LNABLA  =     F    use nabla operator in PAW spheres
   LVEL    =     F    velocity operator in full k-point grid
   LINTERFAST=   F  fast interpolation
   KINTER  =     0    interpolate to denser k-point grid
   CSHIFT  =0.1000    complex shift for real part using Kramers Kronig
   OMEGAMAX=  -1.0    maximum frequency
   DEG_THRESHOLD= 0.2000000E-02 threshold for treating states as degnerate
   RTIME   =   -0.100 relaxation time in fs
  (WPLASMAI=    0.000 imaginary part of plasma frequency in eV, 0.658/RTIME)
   DFIELD  = 0.0000000 0.0000000 0.0000000 field for delta impulse in time
 
 Orbital magnetization related:
   ORBITALMAG=     F  switch on orbital magnetization
   LCHIMAG   =     F  perturbation theory with respect to B field
   DQ        =  0.001000  dq finite difference perturbation B field
   LLRAUG    =     F  two centre corrections for induced B field



--------------------------------------------------------------------------------------------------------


 Static calculation
 charge density and potential will be updated during run
 spin polarized calculation
 Conjugate gradient for all bands (Freysoldt, et al. PRB 79, 241103 (2009))
 perform sub-space diagonalisation
    before iterative eigenvector-optimisation
 modified Broyden-mixing scheme, WC =      100.0
 initial mixing is a Kerker type mixing with AMIX =  0.4000 and BMIX =      1.0000
 Hartree-type preconditioning will be used
 using additional bands           33
 reciprocal scheme for non local part
 use partial core corrections
 no Harris-corrections to forces 
 use gradient corrections 
 use of overlap-Matrix (Vanderbilt PP)
 Gauss-broadening in eV      SIGMA  =   0.10


--------------------------------------------------------------------------------------------------------


  energy-cutoff  :      500.00
  volume of cell :     3176.87
      direct lattice vectors                 reciprocal lattice vectors
    12.732400000  0.000000000  0.000000000     0.078539788  0.000006854 -0.000014529
    -0.001090019 12.490699952  0.000000000     0.000000000  0.080059565  0.000015788
     0.003695602 -0.003939329 19.975699270     0.000000000  0.000000000  0.050060826

  length of vectors
    12.732400000 12.490700000 19.975700000     0.078539790  0.080059566  0.050060826


 
 old parameters found on file WAVECAR:
  energy-cutoff  :      500.00
  volume of cell :     3176.87
      direct lattice vectors                 reciprocal lattice vectors
    12.732400000  0.000000000  0.000000000     0.078539788  0.000006854 -0.000014529
    -0.001090019 12.490699952  0.000000000     0.000000000  0.080059565  0.000015788
     0.003695602 -0.003939329 19.975699270     0.000000000  0.000000000  0.050060826

  length of vectors

 
 k-points in units of 2pi/SCALE and weight: KPOINTS created by Atomic Simulation Env
   0.01963495  0.02001660  0.00000031       0.500
  -0.01963495  0.02001318  0.00000758       0.500
 
 k-points in reciprocal lattice and weights: KPOINTS created by Atomic Simulation Env
   0.25000000  0.25000000 -0.00000000       0.500
  -0.25000000  0.25000000  0.00000000       0.500
 
 position of ions in fractional coordinates (direct lattice) 
   0.22101498  0.00002076  0.50001111
   0.05523223  0.10070656  0.50001236
   0.10952991  0.00002950  0.49999744
   0.27667684  0.09937987  0.50001922
   0.22391665  0.20002906  0.49999124
   0.05557251  0.30046652  0.50002156
   0.11129023  0.20078117  0.50001685
   0.28356445  0.29832049  0.49988900
   0.22601606  0.39843097  0.49991701
   0.05608066  0.49973162  0.50002686
   0.11279855  0.39952747  0.50000354
   0.28148013  0.49866180  0.49982461
   0.22636492  0.60074344  0.49998432
   0.05555498  0.69913845  0.50003176
   0.11317959  0.59995219  0.50003223
   0.28247384  0.70200304  0.50000828
   0.22314650  0.80007082  0.50002172
   0.05510373  0.89939749  0.49999146
   0.11080901  0.79917042  0.50001108
   0.27644704  0.90082611  0.50001918
   0.55447586  0.00047616  0.50002595
   0.38813491  0.09878842  0.50002186
   0.44393768  0.00047843  0.50004505
   0.61030624  0.09877503  0.50000472
   0.55534958  0.19663181  0.49994798
   0.44311014  0.19663684  0.49992503
   0.55558190  0.80436251  0.50004234
   0.38808383  0.90205350  0.50004287
   0.44280176  0.80436837  0.50004061
   0.61030607  0.90204216  0.50002844
   0.88888323  0.00001780  0.49999613
   0.72176360  0.09935384  0.50000391
   0.77739783  0.99999013  0.50000343
   0.94320998  0.10069484  0.50000614
   0.88717087  0.20076561  0.50001464
   0.71490543  0.29829047  0.49995001
   0.77454337  0.20000043  0.50000309
   0.94289586  0.30045554  0.50002762
   0.88566228  0.39950539  0.50003104
   0.71696171  0.49862032  0.49982244
   0.77244637  0.39840174  0.49996429
   0.94235739  0.49972290  0.50003485
   0.88523578  0.59993288  0.50003851
   0.71591596  0.70197065  0.50000748
   0.77204929  0.60071731  0.49998591
   0.94283702  0.69913193  0.50003258
   0.88757131  0.79915444  0.50001142
   0.72194333  0.90079922  0.50001321
   0.77523385  0.80004277  0.50002140
   0.94328329  0.89938736  0.49999251
   0.39301839  0.29475933  0.49979370
   0.60545282  0.29474973  0.49987187
   0.38640712  0.49920268  0.49951825
   0.61203768  0.49918225  0.49944781
   0.39157503  0.70678657  0.49999635
   0.60680921  0.70677729  0.50000417
   0.49922616  0.40471681  0.49953932
   0.49922504  0.58743878  0.49942222
 
 position of ions in cartesian coordinates  (Angst):
   2.81589891 -0.00171040  9.98807166
   0.70497698  1.25592570  9.98809655
   1.39642639 -0.00160114  9.98779853
   3.52449974  1.23935438  9.98823351
   2.85262612  2.49653329  9.98767466
   0.70909178  3.75106742  9.98828036
   1.41862074  2.50592764  9.98818614
   3.61197817  3.72426247  9.98563226
   2.87914005  4.97471242  9.98619181
   0.71534459  6.24002799  9.98838626
   1.43760864  4.98840810  9.98792042
   3.58522119  6.22666594  9.98434609
   2.88336162  7.50173643  9.98753641
   0.70843410  8.73075884  9.98848404
   1.44224183  7.49185305  9.98849345
   3.59765253  8.76653961  9.98801509
   2.84216626  9.99147475  9.98828354
   0.70247016 11.23213455  9.98767903
   1.41184141  9.98022825  9.98807094
   3.52070024 11.24997885  9.98823274
   7.06165578  0.00397776  9.98836796
   4.94362907  1.23196670  9.98828634
   5.65423952  0.00400606  9.98874955
   7.77240336  1.23179958  9.98794389
   7.07256631  2.45409947  9.98681050
   5.64348875  2.45416244  9.98635215
   7.07486223 10.04508089  9.98869547
   4.94210325 11.26530978  9.98870594
   5.63890036 10.04515409  9.98866083
   7.77152564 11.26516821  9.98841775
  11.31946463 -0.00174736  9.98777232
   9.19152235  1.23902937  9.98792779
   9.89889795 12.48860703  9.98791807
  12.01106484  1.25577935  9.98797234
  11.29744346  2.50573324  9.98814208
   9.10398439  3.72388725  9.98685104
   9.86342580  2.49617568  9.98791137
  12.00684760  3.75093020  9.98840138
  11.27801888  4.98813215  9.98846974
   9.12994692  6.22614784  9.98430280
   9.83650957  4.97434711  9.98713638
  11.99977448  6.23991905  9.98854570
  11.27237011  7.49161183  9.98861880
   9.11641109  8.76613510  9.98799902
   9.83123339  7.50141012  9.98756825
  12.00566391  8.73067742  9.98850050
  11.30188965  9.98002860  9.98807780
   9.19293722 11.24964301  9.98811358
   9.87156330  9.99112444  9.98827703
  12.01112754 11.23200801  9.98769996
   5.00559311  3.67978152  9.98372858
   7.71039358  3.67966131  9.98529010
   4.92119186  6.23342315  9.97822643
   7.79401021  6.23316824  9.97681919
   4.98676726  8.82628937  9.98777680
   7.72721499  8.82617341  9.98793303
   6.35775212  5.05322839  9.97864722
   6.35753819  7.33555415  9.97630817
 


--------------------------------------------------------------------------------------------------------


 k-point  1 :   0.2500 0.2500-0.0000  plane waves:   80621
 k-point  2 :  -0.2500 0.2500 0.0000  plane waves:   80630

 maximum and minimum number of plane-waves per node :      2046     1982

 maximum number of plane-waves:     80630
 maximum index in each direction: 
   IXMAX=   23   IYMAX=   22   IZMAX=   36
   IXMIN=  -23   IYMIN=  -23   IZMIN=  -36


 parallel 3D FFT for wavefunctions:
    minimum data exchange during FFTs selected (reduces bandwidth)
 parallel 3D FFT for charge:
    minimum data exchange during FFTs selected (reduces bandwidth)


 FFT grid for exact exchange (Hartree Fock) 
  NGX = 70; NGY = 70; NGZ =112

 
 Radii for the augmentation spheres in the non-local exchange
 for species   1 augmentation radius   0.874 (default was   0.699)
       energy cutoff for augmentation   2000.0
 for species   2 augmentation radius   0.886 (default was   0.709)
       energy cutoff for augmentation   2000.0
 for species   3 augmentation radius   1.263 (default was   1.010)
       energy cutoff for augmentation   2000.0
 for species   4 augmentation radius   1.508 (default was   1.206)
       energy cutoff for augmentation   2000.0

 real space projection operators:
  total allocation   :       2648.69 KBytes
  max/ min on nodes  :         91.48         48.52

 Maximum index for augmentation-charges in exchange          140
  SETUP_FOCK is finished

 total amount of memory used by VASP MPI-rank0   142026. kBytes
=======================================================================

   base      :      30000. kBytes
   nonl-proj :       4272. kBytes
   fftplans  :      11851. kBytes
   grid      :      31266. kBytes
   one-center:         62. kBytes
   HF        :         23. kBytes
   nonlr-proj:       2653. kBytes
   wavefun   :      61899. kBytes
 
     INWAV:  cpu time    2.7887: real time    5.3639
 Broyden mixing: mesh for mixing (old mesh)
   NGX = 47   NGY = 45   NGZ = 73
  (NGX  =192   NGY  =192   NGZ  =300)
  gives a total of 154395 points

 charge density for first step will be calculated from the start-wavefunctions


--------------------------------------------------------------------------------------------------------


 Maximum index for augmentation-charges          347 (set IRDMAX)


--------------------------------------------------------------------------------------------------------


 initial charge from wavefunction
 First call to EWALD:  gamma=   0.121
 Maximum number of real-space cells 3x 3x 2
 Maximum number of reciprocal cells 2x 2x 4

    FEWALD:  cpu time    0.0017: real time    0.0018


--------------------------------------- Iteration      1(   1)  ---------------------------------------


    POTLOK:  cpu time    0.9085: real time    0.9141
    SETDIJ:  cpu time    0.9817: real time    0.9843
    TRIAL :  cpu time  159.4818: real time  159.9649
    CORREC:  cpu time    0.0008: real time    0.0008
    CHARGE:  cpu time    0.7388: real time    0.7407
    --------------------------------------------
      LOOP:  cpu time  162.1321: real time  162.6268

 eigenvalue-minimisations  :     0
 total energy-change (2. order) :-0.6111064E+03  (-0.5686075E+00)
 number of electron     243.0000009 magnetization       2.5171413
 augmentation part       11.9118487 magnetization       1.5159934

 DIPCOR: dipole corrections for dipol
 direction  3 min pos     1,
 dipolmoment           0.000000     -0.000000      0.002423 electrons x Angstroem
 Tr[quadrupol]     -6579.615038

 energy correction for charged system         0.000000 eV
 dipol+quadrupol energy correction            0.000000 eV
 added-field ion interaction          0.000000 eV  (added to PSCEN)


 Free energy of the ion-electron system (eV)
  ---------------------------------------------------
  alpha Z        PSCENC =        99.78296569
  Ewald energy   TEWEN  =     39047.28508183
  -Hartree energ DENC   =    -47304.77626776
  -exchange      EXHF   =       549.43024227
  -V(xc)+E(xc)   XCENC  =       587.06999823
  PAW double counting   =     26182.94909923   -26183.12264550
  entropy T*S    EENTRO =        -0.04896396
  eigenvalues    EBANDS =     -3185.82191058
  atomic energy  EATOM  =      9596.15507312
  ---------------------------------------------------
  free energy    TOTEN  =      -611.10643176 eV

  energy without entropy =     -611.05746780  energy(sigma->0) =     -611.08194978
  exchange ACFDT corr.  =        -0.27776509  see jH, gK, PRB 81, 115126


--------------------------------------------------------------------------------------------------------




--------------------------------------- Iteration      1(   2)  ---------------------------------------


    POTLOK:  cpu time    0.9257: real time    0.9297
    SETDIJ:  cpu time    0.9789: real time    0.9823
    TRIAL :  cpu time  159.9418: real time  160.4046
    CORREC:  cpu time    0.0008: real time    0.0008
    CHARGE:  cpu time    0.7384: real time    0.7403
    --------------------------------------------
      LOOP:  cpu time  162.5880: real time  163.0641

 eigenvalue-minimisations  :     0
 total energy-change (2. order) :-0.4546943E+00  (-0.5324140E+00)
 number of electron     243.0000009 magnetization       2.7362704
 augmentation part       11.8344802 magnetization       1.6175097

 DIPCOR: dipole corrections for dipol
 direction  3 min pos     1,
 dipolmoment           0.000000     -0.000000      0.001490 electrons x Angstroem
 Tr[quadrupol]     -6579.381796

 energy correction for charged system         0.000000 eV
 dipol+quadrupol energy correction            0.000000 eV
 added-field ion interaction          0.000000 eV  (added to PSCEN)


 Free energy of the ion-electron system (eV)
  ---------------------------------------------------
  alpha Z        PSCENC =        99.78296559
  Ewald energy   TEWEN  =     39047.28508183
  -Hartree energ DENC   =    -47288.98196449
  -exchange      EXHF   =       549.37703779
  -V(xc)+E(xc)   XCENC  =       586.70205813
  PAW double counting   =     26324.04983354   -26324.12262707
  entropy T*S    EENTRO =        -0.03287651
  eigenvalues    EBANDS =     -3201.75962056
  atomic energy  EATOM  =      9596.15507312
  ---------------------------------------------------
  free energy    TOTEN  =      -611.56112609 eV

  energy without entropy =     -611.52824958  energy(sigma->0) =     -611.54468783
  exchange ACFDT corr.  =        -0.20119622  see jH, gK, PRB 81, 115126


--------------------------------------------------------------------------------------------------------




--------------------------------------- Iteration      1(   3)  ---------------------------------------


    POTLOK:  cpu time    0.9353: real time    0.9396
    SETDIJ:  cpu time    0.9903: real time    0.9929
    TRIAL :  cpu time  159.1676: real time  159.6076
    CORREC:  cpu time    0.0009: real time    0.0009
    CHARGE:  cpu time    0.7566: real time    0.7590
    --------------------------------------------
      LOOP:  cpu time  161.8527: real time  162.3053

 eigenvalue-minimisations  :     0
 total energy-change (2. order) :-0.4119339E+00  (-0.3551915E+00)
 number of electron     243.0000009 magnetization       2.8343064
 augmentation part       11.7877783 magnetization       1.6749774

 DIPCOR: dipole corrections for dipol
 direction  3 min pos     1,
 dipolmoment           0.000000     -0.000000      0.000452 electrons x Angstroem
 Tr[quadrupol]     -6579.133517

 energy correction for charged system         0.000000 eV
 dipol+quadrupol energy correction            0.000000 eV
 added-field ion interaction          0.000000 eV  (added to PSCEN)


 Free energy of the ion-electron system (eV)
  ---------------------------------------------------
  alpha Z        PSCENC =        99.78296553
  Ewald energy   TEWEN  =     39047.28508183
  -Hartree energ DENC   =    -47267.91104733
  -exchange      EXHF   =       549.36565499
  -V(xc)+E(xc)   XCENC  =       586.25962547
  PAW double counting   =     26482.49618803   -26481.69329378
  entropy T*S    EENTRO =        -0.02171554
  eigenvalues    EBANDS =     -3223.68043135
  atomic energy  EATOM  =      9596.15507312
  ---------------------------------------------------
  free energy    TOTEN  =      -611.97305997 eV

  energy without entropy =     -611.95134444  energy(sigma->0) =     -611.96220221
  exchange ACFDT corr.  =        -0.08233014  see jH, gK, PRB 81, 115126


--------------------------------------------------------------------------------------------------------




--------------------------------------- Iteration      1(   4)  ---------------------------------------


    POTLOK:  cpu time    0.9334: real time    0.9367
    SETDIJ:  cpu time    0.9834: real time    0.9860
    TRIAL :  cpu time  159.2022: real time  159.6302
    CORREC:  cpu time    0.0008: real time    0.0008
    CHARGE:  cpu time    0.7386: real time    0.7406
    --------------------------------------------
      LOOP:  cpu time  161.8598: real time  162.2995

 eigenvalue-minimisations  :     0
 total energy-change (2. order) :-0.2296257E+00  (-0.1657661E+00)
 number of electron     243.0000009 magnetization       2.8818306
 augmentation part       11.8036843 magnetization       1.7133782

 DIPCOR: dipole corrections for dipol
 direction  3 min pos     1,
 dipolmoment          -0.000000      0.000000     -0.000092 electrons x Angstroem
 Tr[quadrupol]     -6579.062219

 energy correction for charged system         0.000000 eV
 dipol+quadrupol energy correction            0.000000 eV
 added-field ion interaction          0.000000 eV  (added to PSCEN)


 Free energy of the ion-electron system (eV)
  ---------------------------------------------------
  alpha Z        PSCENC =        99.78296553
  Ewald energy   TEWEN  =     39047.28508183
  -Hartree energ DENC   =    -47259.51230050
  -exchange      EXHF   =       549.55151235
  -V(xc)+E(xc)   XCENC  =       586.12747654
  PAW double counting   =     26610.70032958   -26609.48246761
  entropy T*S    EENTRO =        -0.01664576
  eigenvalues    EBANDS =     -3232.78864098
  atomic energy  EATOM  =      9596.15507312
  ---------------------------------------------------
  free energy    TOTEN  =      -612.20268567 eV

  energy without entropy =     -612.18603991  energy(sigma->0) =     -612.19436279
  exchange ACFDT corr.  =        -0.02134341  see jH, gK, PRB 81, 115126


--------------------------------------------------------------------------------------------------------




--------------------------------------- Iteration      1(   5)  ---------------------------------------


    POTLOK:  cpu time    0.9343: real time    0.9378
    SETDIJ:  cpu time    0.9890: real time    0.9917
    TRIAL :  cpu time  158.7150: real time  159.1421
    CORREC:  cpu time    0.0008: real time    0.0008
    CHARGE:  cpu time    0.7355: real time    0.7375
    --------------------------------------------
      LOOP:  cpu time  161.3763: real time  161.8150

 eigenvalue-minimisations  :     0
 total energy-change (2. order) :-0.1202765E+00  (-0.9153608E-01)
 number of electron     243.0000009 magnetization       2.9205923
 augmentation part       11.8360559 magnetization       1.7495787

 DIPCOR: dipole corrections for dipol
 direction  3 min pos     1,
 dipolmoment           0.000000     -0.000000      0.000518 electrons x Angstroem
 Tr[quadrupol]     -6579.136417

 energy correction for charged system         0.000000 eV
 dipol+quadrupol energy correction            0.000000 eV
 added-field ion interaction          0.000000 eV  (added to PSCEN)


 Free energy of the ion-electron system (eV)
  ---------------------------------------------------
  alpha Z        PSCENC =        99.78296553
  Ewald energy   TEWEN  =     39047.28508183
  -Hartree energ DENC   =    -47263.10206077
  -exchange      EXHF   =       549.85632508
  -V(xc)+E(xc)   XCENC  =       586.23062186
  PAW double counting   =     26701.30522445   -26700.42840533
  entropy T*S    EENTRO =        -0.01211536
  eigenvalues    EBANDS =     -3229.39114221
  atomic energy  EATOM  =      9596.15507312
  ---------------------------------------------------
  free energy    TOTEN  =      -612.32296218 eV

  energy without entropy =     -612.31084682  energy(sigma->0) =     -612.31690450
  exchange ACFDT corr.  =        -0.01426995  see jH, gK, PRB 81, 115126


--------------------------------------------------------------------------------------------------------




--------------------------------------- Iteration      1(   6)  ---------------------------------------


    POTLOK:  cpu time    0.9322: real time    0.9355
    SETDIJ:  cpu time    0.9880: real time    0.9905
    TRIAL :  cpu time  159.3266: real time  159.7564
    CORREC:  cpu time    0.0011: real time    0.0011
    CHARGE:  cpu time    0.7371: real time    0.7391
    --------------------------------------------
      LOOP:  cpu time  161.9868: real time  162.4277

 eigenvalue-minimisations  :     0
 total energy-change (2. order) :-0.6987094E-01  (-0.5584935E-01)
 number of electron     243.0000009 magnetization       2.9482562
 augmentation part       11.8433039 magnetization       1.7795155

 DIPCOR: dipole corrections for dipol
 direction  3 min pos     1,
 dipolmoment           0.000000     -0.000000      0.001091 electrons x Angstroem
 Tr[quadrupol]     -6579.236669

 energy correction for charged system         0.000000 eV
 dipol+quadrupol energy correction            0.000000 eV
 added-field ion interaction          0.000000 eV  (added to PSCEN)


 Free energy of the ion-electron system (eV)
  ---------------------------------------------------
  alpha Z        PSCENC =        99.78296556
  Ewald energy   TEWEN  =     39047.28508183
  -Hartree energ DENC   =    -47269.23349679
  -exchange      EXHF   =       550.14975905
  -V(xc)+E(xc)   XCENC  =       586.37204098
  PAW double counting   =     26762.08692376   -26761.62561536
  entropy T*S    EENTRO =        -0.00851066
  eigenvalues    EBANDS =     -3223.35344990
  atomic energy  EATOM  =      9596.15507312
  ---------------------------------------------------
  free energy    TOTEN  =      -612.39283312 eV

  energy without entropy =     -612.38432246  energy(sigma->0) =     -612.38857779
  exchange ACFDT corr.  =        -0.00973110  see jH, gK, PRB 81, 115126


--------------------------------------------------------------------------------------------------------




--------------------------------------- Iteration      1(   7)  ---------------------------------------


    POTLOK:  cpu time    0.9282: real time    0.9386
    SETDIJ:  cpu time    0.9920: real time    0.9951
    TRIAL :  cpu time  159.2405: real time  159.6807
    CORREC:  cpu time    0.0008: real time    0.0008
    CHARGE:  cpu time    0.7329: real time    0.7349
    --------------------------------------------
      LOOP:  cpu time  161.8966: real time  162.3556

 eigenvalue-minimisations  :     0
 total energy-change (2. order) :-0.4715731E-01  (-0.4271399E-01)
 number of electron     243.0000009 magnetization       2.9663412
 augmentation part       11.8342877 magnetization       1.8031066

 DIPCOR: dipole corrections for dipol
 direction  3 min pos     1,
 dipolmoment           0.000000     -0.000000      0.001328 electrons x Angstroem
 Tr[quadrupol]     -6579.301900

 energy correction for charged system         0.000000 eV
 dipol+quadrupol energy correction            0.000000 eV
 added-field ion interaction          0.000000 eV  (added to PSCEN)


 Free energy of the ion-electron system (eV)
  ---------------------------------------------------
  alpha Z        PSCENC =        99.78296558
  Ewald energy   TEWEN  =     39047.28508183
  -Hartree energ DENC   =    -47273.09514666
  -exchange      EXHF   =       550.37661846
  -V(xc)+E(xc)   XCENC  =       586.48592774
  PAW double counting   =     26802.37994925   -26801.98346845
  entropy T*S    EENTRO =        -0.00592091
  eigenvalues    EBANDS =     -3219.81848064
  atomic energy  EATOM  =      9596.15507312
  ---------------------------------------------------
  free energy    TOTEN  =      -612.43999044 eV

  energy without entropy =     -612.43406953  energy(sigma->0) =     -612.43702998
  exchange ACFDT corr.  =        -0.00644523  see jH, gK, PRB 81, 115126


--------------------------------------------------------------------------------------------------------




--------------------------------------- Iteration      1(   8)  ---------------------------------------


    POTLOK:  cpu time    0.9275: real time    0.9320
    SETDIJ:  cpu time    0.9871: real time    0.9896
    TRIAL :  cpu time  159.6642: real time  160.0958
    CORREC:  cpu time    0.0007: real time    0.0007
    CHARGE:  cpu time    0.7334: real time    0.7354
    --------------------------------------------
      LOOP:  cpu time  162.3150: real time  162.7597

 eigenvalue-minimisations  :     0
 total energy-change (2. order) :-0.3687684E-01  (-0.3097786E-01)
 number of electron     243.0000009 magnetization       2.9779735
 augmentation part       11.8289873 magnetization       1.8235924

 DIPCOR: dipole corrections for dipol
 direction  3 min pos     1,
 dipolmoment           0.000000     -0.000000      0.001338 electrons x Angstroem
 Tr[quadrupol]     -6579.332929

 energy correction for charged system         0.000000 eV
 dipol+quadrupol energy correction            0.000000 eV
 added-field ion interaction          0.000000 eV  (added to PSCEN)


 Free energy of the ion-electron system (eV)
  ---------------------------------------------------
  alpha Z        PSCENC =        99.78296558
  Ewald energy   TEWEN  =     39047.28508183
  -Hartree energ DENC   =    -47274.92399259
  -exchange      EXHF   =       550.53971494
  -V(xc)+E(xc)   XCENC  =       586.57002528
  PAW double counting   =     26828.41816524   -26827.91626514
  entropy T*S    EENTRO =        -0.00411865
  eigenvalues    EBANDS =     -3218.38171464
  atomic energy  EATOM  =      9596.15507312
  ---------------------------------------------------
  free energy    TOTEN  =      -612.47686728 eV

  energy without entropy =     -612.47274864  energy(sigma->0) =     -612.47480796
  exchange ACFDT corr.  =        -0.00477180  see jH, gK, PRB 81, 115126


--------------------------------------------------------------------------------------------------------




--------------------------------------- Iteration      1(   9)  ---------------------------------------


    POTLOK:  cpu time    0.9277: real time    0.9306
    SETDIJ:  cpu time    0.9864: real time    0.9893
    TRIAL :  cpu time  159.3491: real time  159.7799
    CORREC:  cpu time    0.0008: real time    0.0008
    CHARGE:  cpu time    0.7327: real time    0.7346
    --------------------------------------------
      LOOP:  cpu time  161.9984: real time  162.4406

 eigenvalue-minimisations  :     0
 total energy-change (2. order) :-0.2741923E-01  (-0.2401228E-01)
 number of electron     243.0000009 magnetization       2.9855241
 augmentation part       11.8316310 magnetization       1.8435620

 DIPCOR: dipole corrections for dipol
 direction  3 min pos     1,
 dipolmoment           0.000000     -0.000000      0.001237 electrons x Angstroem
 Tr[quadrupol]     -6579.348683

 energy correction for charged system         0.000000 eV
 dipol+quadrupol energy correction            0.000000 eV
 added-field ion interaction          0.000000 eV  (added to PSCEN)


 Free energy of the ion-electron system (eV)
  ---------------------------------------------------
  alpha Z        PSCENC =        99.78296557
  Ewald energy   TEWEN  =     39047.28508183
  -Hartree energ DENC   =    -47275.96941005
  -exchange      EXHF   =       550.65055345
  -V(xc)+E(xc)   XCENC  =       586.62730745
  PAW double counting   =     26844.32363651   -26843.78192302
  entropy T*S    EENTRO =        -0.00287379
  eigenvalues    EBANDS =     -3217.57345274
  atomic energy  EATOM  =      9596.15507312
  ---------------------------------------------------
  free energy    TOTEN  =      -612.50428651 eV

  energy without entropy =     -612.50141272  energy(sigma->0) =     -612.50284961
  exchange ACFDT corr.  =        -0.00323246  see jH, gK, PRB 81, 115126


--------------------------------------------------------------------------------------------------------




--------------------------------------- Iteration      1(  10)  ---------------------------------------


    POTLOK:  cpu time    0.9208: real time    0.9279
    SETDIJ:  cpu time    0.9824: real time    0.9849
    TRIAL :  cpu time  159.0930: real time  159.5447
    CORREC:  cpu time    0.0010: real time    0.0010
    CHARGE:  cpu time    0.7358: real time    0.7378
    --------------------------------------------
      LOOP:  cpu time  161.7345: real time  162.2018

 eigenvalue-minimisations  :     0
 total energy-change (2. order) :-0.2208169E-01  (-0.2028183E-01)
 number of electron     243.0000009 magnetization       2.9904373
 augmentation part       11.8368437 magnetization       1.8634636

 DIPCOR: dipole corrections for dipol
 direction  3 min pos     1,
 dipolmoment           0.000000     -0.000000      0.001137 electrons x Angstroem
 Tr[quadrupol]     -6579.359748

 energy correction for charged system         0.000000 eV
 dipol+quadrupol energy correction            0.000000 eV
 added-field ion interaction          0.000000 eV  (added to PSCEN)


 Free energy of the ion-electron system (eV)
  ---------------------------------------------------
  alpha Z        PSCENC =        99.78296556
  Ewald energy   TEWEN  =     39047.28508183
  -Hartree energ DENC   =    -47276.59870847
  -exchange      EXHF   =       550.72107617
  -V(xc)+E(xc)   XCENC  =       586.65897487
  PAW double counting   =     26852.72258592   -26852.22242004
  entropy T*S    EENTRO =        -0.00203536
  eigenvalues    EBANDS =     -3217.02812338
  atomic energy  EATOM  =      9596.15507312
  ---------------------------------------------------
  free energy    TOTEN  =      -612.52636820 eV

  energy without entropy =     -612.52433284  energy(sigma->0) =     -612.52535052
  exchange ACFDT corr.  =        -0.00217143  see jH, gK, PRB 81, 115126


--------------------------------------------------------------------------------------------------------




--------------------------------------- Iteration      1(  11)  ---------------------------------------


    POTLOK:  cpu time    0.9253: real time    0.9284
    SETDIJ:  cpu time    0.9854: real time    0.9884
    TRIAL :  cpu time  159.6778: real time  160.1232
    CORREC:  cpu time    0.0007: real time    0.0007
    CHARGE:  cpu time    0.7317: real time    0.7336
    --------------------------------------------
      LOOP:  cpu time  162.3222: real time  162.7800

 eigenvalue-minimisations  :     0
 total energy-change (2. order) :-0.1903672E-01  (-0.1774895E-01)
 number of electron     243.0000009 magnetization       2.9936640
 augmentation part       11.8400776 magnetization       1.8830242

 DIPCOR: dipole corrections for dipol
 direction  3 min pos     1,
 dipolmoment           0.000000     -0.000000      0.001119 electrons x Angstroem
 Tr[quadrupol]     -6579.368916

 energy correction for charged system         0.000000 eV
 dipol+quadrupol energy correction            0.000000 eV
 added-field ion interaction          0.000000 eV  (added to PSCEN)


 Free energy of the ion-electron system (eV)
  ---------------------------------------------------
  alpha Z        PSCENC =        99.78296556
  Ewald energy   TEWEN  =     39047.28508183
  -Hartree energ DENC   =    -47276.89057820
  -exchange      EXHF   =       550.77034355
  -V(xc)+E(xc)   XCENC  =       586.67633084
  PAW double counting   =     26856.52435259   -26856.07692734
  entropy T*S    EENTRO =        -0.00149688
  eigenvalues    EBANDS =     -3216.77001152
  atomic energy  EATOM  =      9596.15507312
  ---------------------------------------------------
  free energy    TOTEN  =      -612.54540492 eV

  energy without entropy =     -612.54390804  energy(sigma->0) =     -612.54465648
  exchange ACFDT corr.  =        -0.00149587  see jH, gK, PRB 81, 115126


--------------------------------------------------------------------------------------------------------




--------------------------------------- Iteration      1(  12)  ---------------------------------------


    POTLOK:  cpu time    0.9189: real time    0.9226
    SETDIJ:  cpu time    0.9910: real time    0.9936
    TRIAL :  cpu time  160.0572: real time  160.5317
    CORREC:  cpu time    0.0008: real time    0.0008
    CHARGE:  cpu time    0.7310: real time    0.7329
    --------------------------------------------
      LOOP:  cpu time  162.7008: real time  163.1871

 eigenvalue-minimisations  :     0
 total energy-change (2. order) :-0.1698099E-01  (-0.1625725E-01)
 number of electron     243.0000009 magnetization       2.9958668
 augmentation part       11.8412392 magnetization       1.9020884

 DIPCOR: dipole corrections for dipol
 direction  3 min pos     1,
 dipolmoment           0.000000     -0.000000      0.001190 electrons x Angstroem
 Tr[quadrupol]     -6579.376443

 energy correction for charged system         0.000000 eV
 dipol+quadrupol energy correction            0.000000 eV
 added-field ion interaction          0.000000 eV  (added to PSCEN)


 Free energy of the ion-electron system (eV)
  ---------------------------------------------------
  alpha Z        PSCENC =        99.78296557
  Ewald energy   TEWEN  =     39047.28508183
  -Hartree energ DENC   =    -47277.04408232
  -exchange      EXHF   =       550.81641817
  -V(xc)+E(xc)   XCENC  =       586.69420798
  PAW double counting   =     26858.82566491   -26858.40768855
  entropy T*S    EENTRO =        -0.00117036
  eigenvalues    EBANDS =     -3216.66852975
  atomic energy  EATOM  =      9596.15507312
  ---------------------------------------------------
  free energy    TOTEN  =      -612.56238591 eV

  energy without entropy =     -612.56121555  energy(sigma->0) =     -612.56180073
  exchange ACFDT corr.  =        -0.00108657  see jH, gK, PRB 81, 115126


--------------------------------------------------------------------------------------------------------




--------------------------------------- Iteration      1(  13)  ---------------------------------------


    POTLOK:  cpu time    0.9271: real time    0.9312
    SETDIJ:  cpu time    0.9887: real time    0.9913
    TRIAL :  cpu time  159.5966: real time  160.0275
    CORREC:  cpu time    0.0007: real time    0.0007
    CHARGE:  cpu time    0.7305: real time    0.7324
    --------------------------------------------
      LOOP:  cpu time  162.2460: real time  162.6889

 eigenvalue-minimisations  :     0
 total energy-change (2. order) :-0.1575143E-01  (-0.1527643E-01)
 number of electron     243.0000009 magnetization       2.9974310
 augmentation part       11.8420765 magnetization       1.9207269

 DIPCOR: dipole corrections for dipol
 direction  3 min pos     1,
 dipolmoment           0.000000     -0.000000      0.001287 electrons x Angstroem
 Tr[quadrupol]     -6579.382407

 energy correction for charged system         0.000000 eV
 dipol+quadrupol energy correction            0.000000 eV
 added-field ion interaction          0.000000 eV  (added to PSCEN)


 Free energy of the ion-electron system (eV)
  ---------------------------------------------------
  alpha Z        PSCENC =        99.78296557
  Ewald energy   TEWEN  =     39047.28508183
  -Hartree energ DENC   =    -47277.20412049
  -exchange      EXHF   =       550.86425581
  -V(xc)+E(xc)   XCENC  =       586.71679484
  PAW double counting   =     26861.16944678   -26860.76841194
  entropy T*S    EENTRO =        -0.00098783
  eigenvalues    EBANDS =     -3216.57805250
  atomic energy  EATOM  =      9596.15507312
  ---------------------------------------------------
  free energy    TOTEN  =      -612.57813733 eV

  energy without entropy =     -612.57714950  energy(sigma->0) =     -612.57764342
  exchange ACFDT corr.  =        -0.00085564  see jH, gK, PRB 81, 115126


--------------------------------------------------------------------------------------------------------




--------------------------------------- Iteration      1(  14)  ---------------------------------------


    POTLOK:  cpu time    0.9161: real time    0.9192
    SETDIJ:  cpu time    0.9905: real time    0.9934
    TRIAL :  cpu time  159.4730: real time  159.9142
    CORREC:  cpu time    0.0008: real time    0.0008
    CHARGE:  cpu time    0.7322: real time    0.7347
    --------------------------------------------
      LOOP:  cpu time  162.1145: real time  162.5677

 eigenvalue-minimisations  :     0
 total energy-change (2. order) :-0.1489294E-01  (-0.1457607E-01)
 number of electron     243.0000009 magnetization       2.9985202
 augmentation part       11.8433789 magnetization       1.9390724

 DIPCOR: dipole corrections for dipol
 direction  3 min pos     1,
 dipolmoment           0.000000     -0.000000      0.001359 electrons x Angstroem
 Tr[quadrupol]     -6579.387005

 energy correction for charged system         0.000000 eV
 dipol+quadrupol energy correction            0.000000 eV
 added-field ion interaction          0.000000 eV  (added to PSCEN)


 Free energy of the ion-electron system (eV)
  ---------------------------------------------------
  alpha Z        PSCENC =        99.78296558
  Ewald energy   TEWEN  =     39047.28508183
  -Hartree energ DENC   =    -47277.36551416
  -exchange      EXHF   =       550.90993697
  -V(xc)+E(xc)   XCENC  =       586.73966815
  PAW double counting   =     26863.71963054   -26863.33873388
  entropy T*S    EENTRO =        -0.00090327
  eigenvalues    EBANDS =     -3216.48015061
  atomic energy  EATOM  =      9596.15507312
  ---------------------------------------------------
  free energy    TOTEN  =      -612.59303028 eV

  energy without entropy =     -612.59212700  energy(sigma->0) =     -612.59257864
  exchange ACFDT corr.  =        -0.00073922  see jH, gK, PRB 81, 115126


--------------------------------------------------------------------------------------------------------




--------------------------------------- Iteration      1(  15)  ---------------------------------------


    POTLOK:  cpu time    0.9104: real time    0.9143
    SETDIJ:  cpu time    0.9776: real time    0.9806
    TRIAL :  cpu time  159.7666: real time  160.1924
    CORREC:  cpu time    0.0008: real time    0.0008
    CHARGE:  cpu time    0.7380: real time    0.7403
    --------------------------------------------
      LOOP:  cpu time  162.3960: real time  162.8345

 eigenvalue-minimisations  :     0
 total energy-change (2. order) :-0.1427941E-01  (-0.1407207E-01)
 number of electron     243.0000009 magnetization       2.9992115
 augmentation part       11.8448073 magnetization       1.9571339

 DIPCOR: dipole corrections for dipol
 direction  3 min pos     1,
 dipolmoment           0.000000     -0.000000      0.001388 electrons x Angstroem
 Tr[quadrupol]     -6579.390598

 energy correction for charged system         0.000000 eV
 dipol+quadrupol energy correction            0.000000 eV
 added-field ion interaction          0.000000 eV  (added to PSCEN)


 Free energy of the ion-electron system (eV)
  ---------------------------------------------------
  alpha Z        PSCENC =        99.78296558
  Ewald energy   TEWEN  =     39047.28508183
  -Hartree energ DENC   =    -47277.47574964
  -exchange      EXHF   =       550.95040219
  -V(xc)+E(xc)   XCENC  =       586.75899332
  PAW double counting   =     26866.35882279   -26866.00331084
  entropy T*S    EENTRO =        -0.00088465
  eigenvalues    EBANDS =     -3216.41868477
  atomic energy  EATOM  =      9596.15507312
  ---------------------------------------------------
  free energy    TOTEN  =      -612.60730968 eV

  energy without entropy =     -612.60642504  energy(sigma->0) =     -612.60686736
  exchange ACFDT corr.  =        -0.00069370  see jH, gK, PRB 81, 115126


--------------------------------------------------------------------------------------------------------




--------------------------------------- Iteration      1(  16)  ---------------------------------------


    POTLOK:  cpu time    0.9119: real time    0.9148
    SETDIJ:  cpu time    0.9817: real time    0.9843
    TRIAL :  cpu time  159.5534: real time  159.9792
    CORREC:  cpu time    0.0008: real time    0.0008
    CHARGE:  cpu time    0.7354: real time    0.7374
    --------------------------------------------
      LOOP:  cpu time  162.1850: real time  162.6221

 eigenvalue-minimisations  :     0
 total energy-change (2. order) :-0.1381554E-01  (-0.1363396E-01)
 number of electron     243.0000009 magnetization       2.9996024
 augmentation part       11.8458832 magnetization       1.9748204

 DIPCOR: dipole corrections for dipol
 direction  3 min pos     1,
 dipolmoment           0.000000     -0.000000      0.001396 electrons x Angstroem
 Tr[quadrupol]     -6579.393706

 energy correction for charged system         0.000000 eV
 dipol+quadrupol energy correction            0.000000 eV
 added-field ion interaction          0.000000 eV  (added to PSCEN)


 Free energy of the ion-electron system (eV)
  ---------------------------------------------------
  alpha Z        PSCENC =        99.78296558
  Ewald energy   TEWEN  =     39047.28508183
  -Hartree energ DENC   =    -47277.53456321
  -exchange      EXHF   =       550.98698438
  -V(xc)+E(xc)   XCENC  =       586.77537405
  PAW double counting   =     26869.07336566   -26868.74345379
  entropy T*S    EENTRO =        -0.00090544
  eigenvalues    EBANDS =     -3216.40106821
  atomic energy  EATOM  =      9596.15507312
  ---------------------------------------------------
  free energy    TOTEN  =      -612.62112522 eV

  energy without entropy =     -612.62021978  energy(sigma->0) =     -612.62067250
  exchange ACFDT corr.  =        -0.00068976  see jH, gK, PRB 81, 115126


--------------------------------------------------------------------------------------------------------




--------------------------------------- Iteration      1(  17)  ---------------------------------------


    POTLOK:  cpu time    0.9078: real time    0.9112
    SETDIJ:  cpu time    0.9882: real time    0.9908
    TRIAL :  cpu time  159.3699: real time  159.7958
    CORREC:  cpu time    0.0007: real time    0.0007
    CHARGE:  cpu time    0.7346: real time    0.7365
    --------------------------------------------
      LOOP:  cpu time  162.0031: real time  162.4405

 eigenvalue-minimisations  :     0
 total energy-change (2. order) :-0.1339977E-01  (-0.1322884E-01)
 number of electron     243.0000009 magnetization       2.9998051
 augmentation part       11.8465406 magnetization       1.9920807

 DIPCOR: dipole corrections for dipol
 direction  3 min pos     1,
 dipolmoment           0.000000     -0.000000      0.001407 electrons x Angstroem
 Tr[quadrupol]     -6579.396637

 energy correction for charged system         0.000000 eV
 dipol+quadrupol energy correction            0.000000 eV
 added-field ion interaction          0.000000 eV  (added to PSCEN)


 Free energy of the ion-electron system (eV)
  ---------------------------------------------------
  alpha Z        PSCENC =        99.78296558
  Ewald energy   TEWEN  =     39047.28508183
  -Hartree energ DENC   =    -47277.57599276
  -exchange      EXHF   =       551.02250263
  -V(xc)+E(xc)   XCENC  =       586.79128048
  PAW double counting   =     26871.80518690   -26871.49780267
  entropy T*S    EENTRO =        -0.00094365
  eigenvalues    EBANDS =     -3216.40191466
  atomic energy  EATOM  =      9596.15507312
  ---------------------------------------------------
  free energy    TOTEN  =      -612.63452499 eV

  energy without entropy =     -612.63358134  energy(sigma->0) =     -612.63405316
  exchange ACFDT corr.  =        -0.00070682  see jH, gK, PRB 81, 115126


--------------------------------------------------------------------------------------------------------




[...]
  augment    34.70413    37.44744    44.43838    -0.00242     0.00813     0.00150
  Kinetic  3601.57605  3662.70124  4157.13391     0.08227     0.05712    -0.00547
  Fock     -294.94378  -297.47159  -279.03928     0.00366    -0.00310    -0.00246
  -------------------------------------------------------------------------------------
  Total     -45.68406   -40.48232    -0.42938     0.10592    -0.00575     0.00079
  in kB     -23.03967   -20.41630    -0.21655     0.05342    -0.00290     0.00040
  external pressure =      -14.56 kB  Pullay stress =        0.00 kB


 VOLUME and BASIS-vectors are now :
 -----------------------------------------------------------------------------
  energy-cutoff  :      500.00
  volume of cell :     3176.87
      direct lattice vectors                 reciprocal lattice vectors
    12.732400000  0.000000000  0.000000000     0.078539788  0.000006854 -0.000014529
    -0.001090019 12.490699952  0.000000000     0.000000000  0.080059565  0.000015788
     0.003695602 -0.003939329 19.975699270     0.000000000  0.000000000  0.050060826

  length of vectors
    12.732400000 12.490700000 19.975700000     0.078539790  0.080059566  0.050060826


 FORCES acting on ions:
    Electron-Ion                     Ewald-Force                    Non-Local-Force
 -----------------------------------------------------------------------------------------------
   0.607E+01 0.152E+01 -.122E+00   -.641E+01 -.161E+01 0.122E+00   0.356E+00 0.975E-01 0.140E-02
   -.254E+00 -.141E+01 -.157E+00   0.228E+00 0.148E+01 0.158E+00   0.297E-01 -.691E-01 -.157E-02
   0.924E+01 0.119E+01 -.596E-02   -.944E+01 -.121E+01 0.558E-02   0.167E+00 0.168E-01 0.142E-02
   0.155E+02 0.675E+01 -.340E+00   -.159E+02 -.695E+01 0.338E+00   0.405E+00 0.207E+00 -.805E-03
   0.170E+02 -.207E+01 -.276E+00   -.174E+02 0.208E+01 0.277E+00   0.437E+00 -.922E-02 -.297E-02
   0.318E+01 -.353E+01 -.277E+00   -.326E+01 0.376E+01 0.277E+00   0.110E+00 -.270E+00 0.220E-03
   0.694E+01 -.591E+00 -.266E+00   -.736E+01 0.891E+00 0.266E+00   0.345E+00 -.229E+00 -.612E-03
   0.428E+02 -.785E+01 0.961E-01   -.462E+02 0.835E+01 -.931E-01   0.358E+01 -.585E+00 -.236E-02
   0.178E+02 -.563E+00 -.113E+00   -.180E+02 0.128E+01 0.115E+00   0.119E+00 -.502E+00 -.333E-02
   0.327E+01 -.218E+01 -.310E+00   -.334E+01 0.228E+01 0.308E+00   0.160E+00 -.265E-01 0.229E-02
   0.627E+01 -.497E+01 -.308E+00   -.638E+01 0.517E+01 0.310E+00   0.941E-01 -.186E+00 -.190E-02
   0.481E+02 -.114E+02 0.313E-01   -.514E+02 0.115E+02 -.149E-01   0.311E+01 -.249E-01 -.179E-01
   0.699E+01 -.285E+01 -.445E+00   -.691E+01 0.230E+01 0.444E+00   0.239E-01 0.297E+00 -.341E-02
   0.173E+01 0.413E+01 -.268E+00   -.180E+01 -.444E+01 0.269E+00   0.125E+00 0.270E+00 -.394E-03
   0.461E+01 0.177E+01 -.421E+00   -.469E+01 -.196E+01 0.421E+00   -.687E-01 0.117E+00 -.162E-02
   0.295E+02 0.135E+02 -.413E+00   -.329E+02 -.141E+02 0.409E+00   0.354E+01 0.587E+00 0.307E-02
   0.115E+02 0.416E+01 -.254E+00   -.118E+02 -.427E+01 0.256E+00   0.370E+00 0.149E+00 -.113E-02
   -.123E+01 0.301E+01 0.483E-01   0.122E+01 -.309E+01 -.477E-01   0.473E-01 0.851E-01 0.680E-03
   0.607E+01 0.245E+01 -.101E+00   -.645E+01 -.273E+01 0.101E+00   0.326E+00 0.262E+00 0.808E-03
   0.124E+02 0.274E+00 -.146E+00   -.127E+02 -.197E+00 0.145E+00   0.347E+00 -.108E+00 0.273E-02
   -.581E+01 0.505E+01 -.259E+00   0.546E+01 -.511E+01 0.258E+00   0.294E+00 0.583E-01 0.212E-02
   0.910E+01 0.140E+02 -.480E+00   -.909E+01 -.146E+02 0.482E+00   0.609E-01 0.560E+00 -.465E-02
   0.582E+01 0.504E+01 -.432E+00   -.547E+01 -.510E+01 0.433E+00   -.293E+00 0.606E-01 -.209E-02
   -.910E+01 0.140E+02 -.300E+00   0.909E+01 -.146E+02 0.302E+00   -.628E-01 0.561E+00 -.142E-02
   0.201E+01 0.362E+02 -.296E+00   -.306E+01 -.389E+02 0.302E+00   0.134E+01 0.284E+01 -.827E-02
   -.201E+01 0.361E+02 -.152E+00   0.306E+01 -.388E+02 0.158E+00   -.134E+01 0.284E+01 -.582E-02
   0.113E+02 -.114E+02 -.575E+00   -.125E+02 0.142E+02 0.582E+00   0.132E+01 -.277E+01 -.476E-02
   0.674E+01 -.516E+01 -.359E+00   -.670E+01 0.557E+01 0.362E+00   0.163E-01 -.422E+00 -.585E-03
   -.113E+02 -.115E+02 -.546E+00   0.125E+02 0.143E+02 0.551E+00   -.131E+01 -.277E+01 -.241E-02
   -.674E+01 -.519E+01 -.253E+00   0.670E+01 0.560E+01 0.255E+00   -.127E-01 -.422E+00 0.413E-03
   -.924E+01 0.116E+01 -.130E-01   0.944E+01 -.118E+01 0.131E-01   -.166E+00 0.158E-01 0.197E-03
   -.155E+02 0.676E+01 -.183E+00   0.159E+02 -.695E+01 0.182E+00   -.407E+00 0.209E+00 0.828E-03
   -.607E+01 0.154E+01 -.838E-01   0.641E+01 -.162E+01 0.841E-01   -.355E+00 0.101E+00 -.132E-04
   0.252E+00 -.138E+01 -.909E-01   -.225E+00 0.144E+01 0.910E-01   -.318E-01 -.679E-01 0.503E-03
   -.693E+01 -.600E+00 -.201E+00   0.736E+01 0.899E+00 0.201E+00   -.348E+00 -.228E+00 0.766E-03
   -.428E+02 -.780E+01 -.266E+00   0.462E+02 0.830E+01 0.264E+00   -.358E+01 -.583E+00 -.213E-02
   -.170E+02 -.207E+01 -.287E+00   0.174E+02 0.208E+01 0.288E+00   -.440E+00 -.723E-02 -.173E-02
   -.319E+01 -.353E+01 -.289E+00   0.327E+01 0.377E+01 0.289E+00   -.113E+00 -.269E+00 0.111E-02
   -.628E+01 -.494E+01 -.461E+00   0.638E+01 0.515E+01 0.463E+00   -.965E-01 -.184E+00 -.267E-02
   -.482E+02 -.114E+02 0.735E-02   0.515E+02 0.114E+02 0.123E-01   -.311E+01 -.228E-01 -.219E-01
   -.178E+02 -.621E+00 -.417E+00   0.180E+02 0.133E+01 0.419E+00   -.121E+00 -.500E+00 -.497E-02
   -.327E+01 -.223E+01 -.342E+00   0.334E+01 0.233E+01 0.339E+00   -.161E+00 -.255E-01 0.344E-02
   -.461E+01 0.182E+01 -.455E+00   0.469E+01 -.201E+01 0.456E+00   0.685E-01 0.118E+00 -.227E-02
   -.295E+02 0.136E+02 -.399E+00   0.328E+02 -.142E+02 0.393E+00   -.354E+01 0.588E+00 0.489E-02
   -.699E+01 -.292E+01 -.453E+00   0.691E+01 0.238E+01 0.453E+00   -.234E-01 0.299E+00 -.379E-02
   -.173E+01 0.409E+01 -.267E+00   0.180E+01 -.440E+01 0.267E+00   -.122E+00 0.270E+00 0.877E-04
   -.607E+01 0.246E+01 -.104E+00   0.646E+01 -.275E+01 0.104E+00   -.322E+00 0.263E+00 0.112E-02
   -.124E+02 0.288E+00 -.130E+00   0.127E+02 -.212E+00 0.129E+00   -.344E+00 -.106E+00 0.180E-02
   -.115E+02 0.414E+01 -.264E+00   0.118E+02 -.424E+01 0.266E+00   -.366E+00 0.151E+00 -.151E-02
   0.123E+01 0.303E+01 0.325E-01   -.122E+01 -.311E+01 -.319E-01   -.434E-01 0.861E-01 0.387E-03
   0.216E+02 -.296E+02 0.682E+00   -.120E+02 0.468E+02 -.739E+00   -.948E+01 -.167E+02 0.595E-01
   -.215E+02 -.297E+02 -.550E-01   0.120E+02 0.469E+02 0.285E-01   0.948E+01 -.167E+02 0.274E-01
   0.531E+00 -.400E+02 0.271E+01   0.135E+02 0.430E+02 -.282E+01   -.129E+02 -.211E+01 0.112E+00
   -.548E+00 -.401E+02 0.349E+01   -.134E+02 0.430E+02 -.365E+01   0.129E+02 -.211E+01 0.150E+00
   -.246E+02 0.644E+02 -.741E+00   0.353E+02 -.832E+02 0.738E+00   -.102E+02 0.179E+02 -.637E-02
   0.246E+02 0.643E+02 -.842E+00   -.353E+02 -.832E+02 0.844E+00   0.102E+02 0.178E+02 -.118E-01
   0.178E-01 -.702E+01 0.341E+01   -.189E-01 0.373E+01 -.338E+01   0.756E-03 0.452E+00 -.213E-01
   0.270E-01 -.608E+02 0.351E+01   -.248E-01 0.635E+02 -.346E+01   -.303E-02 -.416E+00 -.499E-01
 -----------------------------------------------------------------------------------------------
   0.675E-02 0.971E+00 -.203E+00   0.226E-12 -.277E-12 0.266E-14   -.436E-02 -.115E+01 0.180E+00
 
 
 POSITION                                       TOTAL-FORCE (eV/Angst)
 -----------------------------------------------------------------------------------
      2.81590     -0.00171      9.98807         0.030709      0.015955      0.001452
      0.70498      1.25593      9.98810        -0.001604     -0.009758     -0.000717
      1.39643     -0.00160      9.98780        -0.016357     -0.004544      0.001150
      3.52450      1.23935      9.98823         0.029719      0.021968     -0.002998
      2.85263      2.49653      9.98767         0.015324     -0.006673     -0.002170
      0.70909      3.75107      9.98828         0.040340     -0.049165      0.000031
      1.41862      2.50593      9.98819        -0.059902      0.061309     -0.001119
      3.61198      3.72426      9.98563         0.415104     -0.123002      0.000511
      2.87914      4.97471      9.98619        -0.108963      0.195410     -0.001288
      0.71534      6.24003      9.98839         0.097160      0.074878      0.000047
      1.43761      4.98841      9.98792        -0.009862      0.003906     -0.000083
      3.58522      6.22667      9.98435         0.021163      0.025195     -0.002658
      2.88336      7.50174      9.98754         0.098863     -0.236808     -0.004591
      0.70843      8.73076      9.98848         0.065103     -0.031888      0.000521
      1.44224      7.49185      9.98849        -0.161145     -0.063075     -0.001092
      3.59765      8.76654      9.98802         0.387910      0.048710     -0.000758
      2.84217      9.99147      9.98828         0.058224      0.056548      0.000455
      0.70247     11.23213      9.98768         0.034192      0.016760      0.001389
      1.41184      9.98023      9.98807        -0.035679     -0.011891      0.000775
      3.52070     11.24998      9.98823         0.021627     -0.037498      0.002029
      7.06166      0.00398      9.98837        -0.044297      0.004391      0.001554
      4.94363      1.23197      9.98829         0.069295     -0.012337     -0.003246
      5.65424      0.00401      9.98875         0.044924      0.007591     -0.000948
      7.77240      1.23180      9.98794        -0.071457     -0.009568     -0.000209
      7.07257      2.45410      9.98681         0.359421      0.308101     -0.002829
      5.64349      2.45416      9.98635        -0.361258      0.308931     -0.000129
      7.07486     10.04508      9.98870         0.194872     -0.169234      0.001360
      4.94210     11.26531      9.98871         0.058780     -0.042893      0.001889
      5.63890     10.04515      9.98866        -0.193529     -0.169028      0.002517
      7.77153     11.26517      9.98842        -0.055168     -0.041048      0.002493
     11.31946     -0.00175      9.98777         0.016754     -0.005149      0.000311
      9.19152      1.23903      9.98793        -0.031405      0.023520      0.000128
      9.89890     12.48861      9.98792        -0.029448      0.018833      0.000257
     12.01106      1.25578      9.98797        -0.000561     -0.008254      0.000667
     11.29744      2.50573      9.98814         0.057547      0.061242      0.000562
      9.10398      3.72389      9.98685        -0.417502     -0.121682     -0.003785
      9.86343      2.49618      9.98791        -0.016888     -0.005229     -0.001152
     12.00685      3.75093      9.98840        -0.043024     -0.048017      0.001293
     11.27802      4.98813      9.98847         0.007491      0.006035     -0.001133
      9.12995      6.22615      9.98430        -0.021401      0.027568     -0.003657
      9.83651      4.97435      9.98714         0.106893      0.196865     -0.003199
     11.99977      6.23992      9.98855        -0.097533      0.075388      0.000552
     11.27237      7.49161      9.98862         0.160212     -0.062243     -0.000946
      9.11641      8.76614      9.98800        -0.386978      0.049729     -0.000345
      9.83123      7.50141      9.98757        -0.098891     -0.236432     -0.004389
     12.00566      8.73068      9.98850        -0.062721     -0.031922      0.000839
     11.30189      9.98003      9.98808         0.039194     -0.011867      0.000909
      9.19294     11.24964      9.98811        -0.018784     -0.035749      0.001055
      9.87156      9.99112      9.98828        -0.054778      0.058427      0.000192
     12.01113     11.23201      9.98770        -0.030355      0.017922      0.001034
      5.00559      3.67978      9.98373        -0.763785     -0.903464      0.008355
      7.71039      3.67966      9.98529         0.762086     -0.903736      0.003240
      4.92119      6.23342      9.97823         0.003252      0.664440      0.002495
      7.79401      6.23317      9.97682        -0.004605      0.666763      0.007108
      4.98677      8.82629      9.98778        -0.323192      0.567574     -0.009746
      7.72721      8.82617      9.98793         0.325764      0.567836     -0.010308
      6.35775      5.05323      9.97865        -0.000336     -1.999927      0.009516
      6.35754      7.33555      9.97631        -0.000514      1.240287      0.006809
 -----------------------------------------------------------------------------------
    total drift:                                0.002031      0.000669     -0.000883


--------------------------------------------------------------------------------------------------------



  FREE ENERGIE OF THE ION-ELECTRON SYSTEM (eV)
  ---------------------------------------------------
  free  energy   TOTEN  =      -612.85180353 eV

  energy  without entropy=     -612.85171974  energy(sigma->0) =     -612.85176164
 


--------------------------------------------------------------------------------------------------------


    POTLOK:  cpu time    1.9518: real time    1.9577


--------------------------------------------------------------------------------------------------------


 stress matrix after NEB project (eV)
    -45.68406      0.10592      0.00079
      0.10592    -40.48232     -0.00619
      0.00084     -0.00575     -0.42938
  FORCES: max atom, RMS     1.999950    0.450122
  FORCE total and by dimension    3.428028    1.999927
  Stress total and by dimension   61.041450   45.684061
 writing wavefunctions
     LOOP+:  cpu time14486.4302: real time14532.6078
    4ORBIT:  cpu time    0.0000: real time    0.0000
 


 total charge     
 
# of ion       s       p       d       tot
------------------------------------------
    1        0.866   1.783   0.000   2.649
    2        0.863   1.759   0.000   2.622
    3        0.865   1.765   0.000   2.630
    4        0.870   1.769   0.000   2.639
    5        0.863   1.764   0.000   2.627
    6        0.862   1.758   0.000   2.620
    7        0.862   1.753   0.000   2.615
    8        0.852   1.697   0.000   2.549
    9        0.857   1.758   0.000   2.615
   10        0.855   1.736   0.000   2.590
   11        0.859   1.739   0.000   2.599
   12        0.863   1.727   0.000   2.590
   13        0.853   1.745   0.000   2.599
   14        0.861   1.755   0.000   2.616
   15        0.859   1.735   0.000   2.593
   16        0.852   1.702   0.000   2.554
   17        0.864   1.765   0.000   2.629
   18        0.864   1.761   0.000   2.625
   19        0.863   1.754   0.000   2.617
   20        0.869   1.769   0.000   2.637
   21        0.870   1.801   0.000   2.671
   22        0.873   1.800   0.000   2.673
   23        0.870   1.801   0.000   2.671
   24        0.873   1.800   0.000   2.673
   25        0.867   1.760   0.000   2.627
   26        0.867   1.760   0.000   2.627
   27        0.866   1.757   0.000   2.623
   28        0.873   1.800   0.000   2.672
   29        0.866   1.757   0.000   2.623
   30        0.873   1.800   0.000   2.672
   31        0.865   1.765   0.000   2.630
   32        0.870   1.769   0.000   2.639
   33        0.866   1.783   0.000   2.649
   34        0.863   1.759   0.000   2.622
   35        0.862   1.753   0.000   2.615
   36        0.852   1.697   0.000   2.549
   37        0.863   1.764   0.000   2.627
   38        0.862   1.758   0.000   2.620
   39        0.859   1.739   0.000   2.599
   40        0.863   1.727   0.000   2.591
   41        0.857   1.758   0.000   2.615
   42        0.855   1.736   0.000   2.590
   43        0.859   1.735   0.000   2.593
   44        0.852   1.702   0.000   2.554
   45        0.853   1.745   0.000   2.598
   46        0.861   1.755   0.000   2.616
   47        0.863   1.754   0.000   2.617
   48        0.868   1.769   0.000   2.637
   49        0.864   1.765   0.000   2.629
   50        0.864   1.761   0.000   2.625
   51        1.230   2.655   0.000   3.885
   52        1.230   2.655   0.000   3.885
   53        1.255   2.634   0.000   3.890
   54        1.255   2.635   0.000   3.890
   55        1.234   2.663   0.000   3.897
   56        1.234   2.663   0.000   3.897
   57        0.503   0.703   6.337   7.543
   58        0.573   1.025   3.798   5.395
--------------------------------------------------
tot         51.654 105.455  10.135 167.244
 


 magnetization (x)
 
# of ion       s       p       d       tot
------------------------------------------
    1       -0.001  -0.013   0.000  -0.014
    2       -0.000  -0.003   0.000  -0.003
    3       -0.000  -0.003   0.000  -0.003
    4        0.001   0.005   0.000   0.005
    5       -0.001  -0.010   0.000  -0.011
    6       -0.001  -0.013   0.000  -0.014
    7        0.000   0.004   0.000   0.004
    8        0.001   0.004   0.000   0.005
    9       -0.002  -0.021   0.000  -0.023
   10       -0.000  -0.004   0.000  -0.004
   11        0.000   0.001   0.000   0.001
   12        0.002   0.020   0.000   0.022
   13       -0.002  -0.017   0.000  -0.019
   14       -0.000  -0.008   0.000  -0.009
   15       -0.000  -0.003   0.000  -0.004
   16        0.002   0.026   0.000   0.028
   17       -0.001  -0.009   0.000  -0.010
   18       -0.000  -0.004   0.000  -0.005
   19        0.000  -0.002   0.000  -0.002
   20        0.001   0.020   0.000   0.021
   21       -0.000  -0.006   0.000  -0.006
   22       -0.000  -0.004   0.000  -0.004
   23       -0.000  -0.006   0.000  -0.006
   24       -0.000  -0.004   0.000  -0.004
   25        0.000  -0.005   0.000  -0.005
   26        0.000  -0.005   0.000  -0.005
   27        0.001   0.018   0.000   0.019
   28       -0.001  -0.009   0.000  -0.010
   29        0.001   0.017   0.000   0.019
   30       -0.001  -0.009   0.000  -0.010
   31       -0.000  -0.003   0.000  -0.003
   32        0.001   0.005   0.000   0.005
   33       -0.001  -0.013   0.000  -0.014
   34       -0.000  -0.003   0.000  -0.003
   35        0.000   0.004   0.000   0.004
   36        0.001   0.004   0.000   0.005
   37       -0.001  -0.010   0.000  -0.011
   38       -0.001  -0.013   0.000  -0.014
   39        0.000   0.001   0.000   0.001
   40        0.002   0.020   0.000   0.022
   41       -0.002  -0.021   0.000  -0.023
   42       -0.000  -0.004   0.000  -0.004
   43       -0.000  -0.003   0.000  -0.004
   44        0.002   0.026   0.000   0.028
   45       -0.002  -0.017   0.000  -0.019
   46       -0.000  -0.009   0.000  -0.009
   47        0.000  -0.002   0.000  -0.002
   48        0.001   0.020   0.000   0.021
   49       -0.001  -0.009   0.000  -0.010
   50       -0.000  -0.004   0.000  -0.005
   51       -0.008  -0.080   0.000  -0.088
   52       -0.008  -0.080   0.000  -0.088
   53       -0.010  -0.110   0.000  -0.120
   54       -0.010  -0.110   0.000  -0.120
   55       -0.005  -0.033   0.000  -0.037
   56       -0.005  -0.033   0.000  -0.038
   57        0.009   0.019   1.884   1.911
   58        0.070   0.020   1.490   1.579
--------------------------------------------------
tot          0.032  -0.486   3.373   2.919
 

 total amount of memory used by VASP MPI-rank0   164895. kBytes
=======================================================================

   base      :      30000. kBytes
   nonl-proj :       4272. kBytes
   fftplans  :      11851. kBytes
   grid      :      31266. kBytes
   one-center:         62. kBytes
   HF        :         23. kBytes
   nonlr-proj:      25522. kBytes
   wavefun   :      61899. kBytes
 
  
  
 General timing and accounting informations for this job:
 ========================================================
  
                  Total CPU time used (sec):    14522.150
                            User time (sec):    14473.476
                          System time (sec):       48.674
                         Elapsed time (sec):    14575.133
  
                   Maximum memory used (kb):      395360.
                   Average memory used (kb):           0.
  
                          Minor page faults:      1491737
                          Major page faults:          196
                 Voluntary context switches:       213233
