 vasp.5.4.4.18Apr17-6-g9f103f2a35 (build Feb 25 2019 10:51:38) complex          
  
 executed on             LinuxIFC date 2021.08.09  11:58:45
 running on   32 total cores
 distrk:  each k-point on   32 cores,    1 groups
 distr:  one band on NCORES_PER_BAND=  32 cores,    1 groups


--------------------------------------------------------------------------------------------------------


 INCAR:
 POTCAR:    PAW_PBE C 08Apr2002                   
 POTCAR:    PAW_PBE N 08Apr2002                   
 POTCAR:    PAW_PBE Fe 06Sep2000                  
 POTCAR:    PAW_PBE Ni 02Aug2007                  

 ----------------------------------------------------------------------------- 
|                                                                             |
|           W    W    AA    RRRRR   N    N  II  N    N   GGGG   !!!           |
|           W    W   A  A   R    R  NN   N  II  NN   N  G    G  !!!           |
|           W    W  A    A  R    R  N N  N  II  N N  N  G       !!!           |
|           W WW W  AAAAAA  RRRRR   N  N N  II  N  N N  G  GGG   !            |
|           WW  WW  A    A  R   R   N   NN  II  N   NN  G    G                |
|           W    W  A    A  R    R  N    N  II  N    N   GGGG   !!!           |
|                                                                             |
|      For optimal performance we recommend to set                            |
|        NCORE= 4 - approx SQRT( number of cores)                             |
|      NCORE specifies how many cores store one orbital (NPAR=cpu/NCORE).     |
|      This setting can  greatly improve the performance of VASP for DFT.     |
|      The default,   NCORE=1            might be grossly inefficient         |
|      on modern multi-core architectures or massively parallel machines.     |
|      Do your own testing !!!!                                               |
|      Unfortunately you need to use the default for GW and RPA calculations. |
|      (for HF NCORE is supported but not extensively tested yet)             |
|                                                                             |
 ----------------------------------------------------------------------------- 

 POTCAR:    PAW_PBE C 08Apr2002                   
   VRHFIN =C: s2p2                                                              
   LEXCH  = PE                                                                  
   EATOM  =   147.1560 eV,   10.8157 Ry                                         
                                                                                
   TITEL  = PAW_PBE C 08Apr2002                                                 
   LULTRA =        F    use ultrasoft PP ?                                      
   IUNSCR =        1    unscreen: 0-lin 1-nonlin 2-no                           
   RPACOR =    1.200    partial core radius                                     
   POMASS =   12.011; ZVAL   =    4.000    mass and valenz                      
   RCORE  =    1.500    outmost cutoff radius                                   
   RWIGS  =    1.630; RWIGS  =    0.863    wigner-seitz radius (au A)           
   ENMAX  =  400.000; ENMIN  =  300.000 eV                                      
   ICORE  =        2    local potential                                         
   LCOR   =        T    correct aug charges                                     
   LPAW   =        T    paw PP                                                  
   EAUG   =  644.873                                                            
   DEXC   =    0.000                                                            
   RMAX   =    1.529    core radius for proj-oper                               
   RAUG   =    1.300    factor for augmentation sphere                          
   RDEP   =    1.501    radius for radial grids                                 
   RDEPT  =    1.300    core radius for aug-charge                              
                                                                                
   Atomic configuration                                                         
    4 entries                                                                   
     n  l   j            E        occ.                                          
     1  0  0.50      -273.3789   2.0000                                         
     2  0  0.50       -13.7508   2.0000                                         
     2  1  0.50        -5.2854   2.0000                                         
     3  2  1.50        -5.4423   0.0000                                         
   Description                                                                  
     l       E           TYP  RCUT    TYP  RCUT                                 
     0    -13.7508458     23  1.200                                             
     0     -8.2022199     23  1.200                                             
     1     -5.2854383     23  1.500                                             
     1     34.0145650     23  1.500                                             
     2     -5.4423304      7  1.500                                             
  local pseudopotential read in
  partial core-charges read in
  partial kinetic energy density read in
  atomic valenz-charges read in
  non local Contribution for L=           0  read in
    real space projection operators read in
  non local Contribution for L=           0  read in
    real space projection operators read in
  non local Contribution for L=           1  read in
    real space projection operators read in
  non local Contribution for L=           1  read in
    real space projection operators read in
    PAW grid and wavefunctions read in
 
   number of l-projection  operators is LMAX  =           4
   number of lm-projection operators is LMMAX =           8
 
 POTCAR:    PAW_PBE N 08Apr2002                   
   VRHFIN =N: s2p3                                                              
   LEXCH  = PE                                                                  
   EATOM  =   264.5486 eV,   19.4438 Ry                                         
                                                                                
   TITEL  = PAW_PBE N 08Apr2002                                                 
   LULTRA =        F    use ultrasoft PP ?                                      
   IUNSCR =        1    unscreen: 0-lin 1-nonlin 2-no                           
   RPACOR =    1.200    partial core radius                                     
   POMASS =   14.001; ZVAL   =    5.000    mass and valenz                      
   RCORE  =    1.500    outmost cutoff radius                                   
   RWIGS  =    1.400; RWIGS  =    0.741    wigner-seitz radius (au A)           
   ENMAX  =  400.000; ENMIN  =  300.000 eV                                      
   ICORE  =        2    local potential                                         
   LCOR   =        T    correct aug charges                                     
   LPAW   =        T    paw PP                                                  
   EAUG   =  627.112                                                            
   DEXC   =    0.000                                                            
   RMAX   =    1.529    core radius for proj-oper                               
   RAUG   =    1.300    factor for augmentation sphere                          
   RDEP   =    1.514    radius for radial grids                                 
   RDEPT  =    1.338    core radius for aug-charge                              
                                                                                
   Atomic configuration                                                         
    4 entries                                                                   
     n  l   j            E        occ.                                          
     1  0  0.50      -384.7179   2.0000                                         
     2  0  0.50       -18.5828   2.0000                                         
     2  1  0.50        -7.0898   3.0000                                         
     3  2  1.50        -6.8029   0.0000                                         
   Description                                                                  
     l       E           TYP  RCUT    TYP  RCUT                                 
     0    -18.5828119     23  1.200                                             
     0    -13.5018863     23  1.200                                             
     1     -7.0897853     23  1.500                                             
     1      9.5240782     23  1.500                                             
     2     -6.8029130      7  1.500                                             
  local pseudopotential read in
  partial core-charges read in
  partial kinetic energy density read in
  atomic valenz-charges read in
  non local Contribution for L=           0  read in
    real space projection operators read in
  non local Contribution for L=           0  read in
    real space projection operators read in
  non local Contribution for L=           1  read in
    real space projection operators read in
  non local Contribution for L=           1  read in
    real space projection operators read in
    PAW grid and wavefunctions read in
 
   number of l-projection  operators is LMAX  =           4
   number of lm-projection operators is LMMAX =           8
 
 POTCAR:    PAW_PBE Fe 06Sep2000                  
   VRHFIN =Fe:  d7 s1                                                           
   LEXCH  = PE                                                                  
   EATOM  =   594.3153 eV,   43.6809 Ry                                         
                                                                                
   TITEL  = PAW_PBE Fe 06Sep2000                                                
   LULTRA =        F    use ultrasoft PP ?                                      
   IUNSCR =        1    unscreen: 0-lin 1-nonlin 2-no                           
   RPACOR =    2.000    partial core radius                                     
   POMASS =   55.847; ZVAL   =    8.000    mass and valenz                      
   RCORE  =    2.300    outmost cutoff radius                                   
   RWIGS  =    2.460; RWIGS  =    1.302    wigner-seitz radius (au A)           
   ENMAX  =  267.882; ENMIN  =  200.911 eV                                      
   RCLOC  =    1.701    cutoff for local pot                                    
   LCOR   =        T    correct aug charges                                     
   LPAW   =        T    paw PP                                                  
   EAUG   =  511.368                                                            
   DEXC   =    0.000                                                            
   RMAX   =    2.356    core radius for proj-oper                               
   RAUG   =    1.300    factor for augmentation sphere                          
   RDEP   =    2.442    radius for radial grids                                 
   RDEPT  =    1.890    core radius for aug-charge                              
                                                                                
   Atomic configuration                                                         
    9 entries                                                                   
     n  l   j            E        occ.                                          
     1  0  0.50     -6993.8440   2.0000                                         
     2  0  0.50      -814.6047   2.0000                                         
     2  1  1.50      -693.3689   6.0000                                         
     3  0  0.50       -89.4732   2.0000                                         
     3  1  1.50       -55.6373   6.0000                                         
     3  2  2.50        -3.8151   7.0000                                         
     4  0  0.50        -4.2551   1.0000                                         
     4  1  1.50        -3.4015   0.0000                                         
     4  3  2.50        -1.3606   0.0000                                         
   Description                                                                  
     l       E           TYP  RCUT    TYP  RCUT                                 
     2     -3.8151135     23  2.300                                             
     2     -5.1756961     23  2.300                                             
     0     -4.2550963     23  2.300                                             
     0      7.2035603     23  2.300                                             
     1     -2.7211652     23  2.300                                             
     1     18.4316424     23  2.300                                             
  local pseudopotential read in
  partial core-charges read in
  partial kinetic energy density read in
  atomic valenz-charges read in
  non local Contribution for L=           2  read in
    real space projection operators read in
  non local Contribution for L=           2  read in
    real space projection operators read in
  non local Contribution for L=           0  read in
    real space projection operators read in
  non local Contribution for L=           0  read in
    real space projection operators read in
  non local Contribution for L=           1  read in
    real space projection operators read in
  non local Contribution for L=           1  read in
    real space projection operators read in
    PAW grid and wavefunctions read in
 
   number of l-projection  operators is LMAX  =           6
   number of lm-projection operators is LMMAX =          18
 
 POTCAR:    PAW_PBE Ni 02Aug2007                  
   VRHFIN =Ni:                                                                  
   LEXCH  = PE                                                                  
   EATOM  =  1077.6739 eV,   79.2068 Ry                                         
                                                                                
   TITEL  = PAW_PBE Ni 02Aug2007                                                
   LULTRA =        F    use ultrasoft PP ?                                      
   IUNSCR =        1    unscreen: 0-lin 1-nonlin 2-no                           
   RPACOR =    2.000    partial core radius                                     
   POMASS =   58.690; ZVAL   =   10.000    mass and valenz                      
   RCORE  =    2.300    outmost cutoff radius                                   
   RWIGS  =    2.430; RWIGS  =    1.286    wigner-seitz radius (au A)           
   ENMAX  =  269.532; ENMIN  =  202.149 eV                                      
   RCLOC  =    1.201    cutoff for local pot                                    
   LCOR   =        T    correct aug charges                                     
   LPAW   =        T    paw PP                                                  
   EAUG   =  544.565                                                            
   DEXC   =    0.000                                                            
   RMAX   =    2.357    core radius for proj-oper                               
   RAUG   =    1.300    factor for augmentation sphere                          
   RDEP   =    2.390    radius for radial grids                                 
   RDEPT  =    1.838    core radius for aug-charge                              
                                                                                
   Atomic configuration                                                         
    9 entries                                                                   
     n  l   j            E        occ.                                          
     1  0  0.50     -8206.4253   2.0000                                         
     2  0  0.50      -976.1748   2.0000                                         
     2  1  1.50      -839.0571   6.0000                                         
     3  0  0.50      -105.9991   2.0000                                         
     3  1  1.50       -66.4603   6.0000                                         
     3  2  2.50        -4.6458   9.0000                                         
     4  0  0.50        -4.4926   1.0000                                         
     4  1  1.50        -4.0817   0.0000                                         
     4  3  2.50        -1.3606   0.0000                                         
   Description                                                                  
     l       E           TYP  RCUT    TYP  RCUT                                 
     2     -4.6457903     23  2.300                                             
     2     -6.0063729     23  2.300                                             
     0     -4.4925590     23  2.300                                             
     0      5.0102601     23  2.300                                             
     1     -2.7211652     23  2.300                                             
     1     16.5183231     23  2.300                                             
  local pseudopotential read in
  partial core-charges read in
  partial kinetic energy density read in
  atomic valenz-charges read in
  non local Contribution for L=           2  read in
    real space projection operators read in
  non local Contribution for L=           2  read in
    real space projection operators read in
  non local Contribution for L=           0  read in
    real space projection operators read in
  non local Contribution for L=           0  read in
    real space projection operators read in
  non local Contribution for L=           1  read in
    real space projection operators read in
  non local Contribution for L=           1  read in
    real space projection operators read in
    PAW grid and wavefunctions read in
 
   number of l-projection  operators is LMAX  =           6
   number of lm-projection operators is LMMAX =          18
 

 ----------------------------------------------------------------------------- 
|                                                                             |
|  ADVICE TO THIS USER RUNNING 'VASP/VAMP'   (HEAR YOUR MASTER'S VOICE ...):  |
|                                                                             |
|      You have a (more or less) 'large supercell' and for larger cells       |
|      it might be more efficient to use real space projection opertators     |
|      So try LREAL= Auto  in the INCAR   file.                               |
|      Mind:          For very  accurate calculation you might also keep the  |
|      reciprocal projection scheme          (i.e. LREAL=.FALSE.)             |
|                                                                             |
 ----------------------------------------------------------------------------- 

  PAW_PBE C 08Apr2002                   :
 energy of atom  1       EATOM= -147.1560
 kinetic energy error for atom=    0.0076 (will be added to EATOM!!)
  PAW_PBE N 08Apr2002                   :
 energy of atom  2       EATOM= -264.5486
 kinetic energy error for atom=    0.0138 (will be added to EATOM!!)
  PAW_PBE Fe 06Sep2000                  :
 energy of atom  3       EATOM= -594.3153
 kinetic energy error for atom=    0.0026 (will be added to EATOM!!)
  PAW_PBE Ni 02Aug2007                  :
 energy of atom  4       EATOM=-1077.6739
 kinetic energy error for atom=    0.0030 (will be added to EATOM!!)
 
 
 POSCAR:  C  N Fe Ni                             
  positions in cartesian coordinates
  No initial velocities read in
 exchange correlation table for  LEXCH =        8
   RHO(1)=    0.500       N(1)  =     2000
   RHO(2)=  100.500       N(2)  =     4000

 VTST: version 3.2, (02/03/18)

 CHAIN: initializing optimizer
 
 OPT: Using VASP Conjugate-Gradient optimizer
 CHAIN: Read ICHAIN            0
 
 POSCAR:  C  N Fe Ni                             
  positions in cartesian coordinates
  No initial velocities read in
 


--------------------------------------------------------------------------------------------------------


 ion  position               nearest neighbor table
   1  0.221  0.999  0.500-   4 1.42  19 1.43   3 1.43
   2  0.052  0.101  0.500-   7 1.42   3 1.42  34 1.44
   3  0.109  0.001  0.500-  17 1.42   2 1.42   1 1.43
   4  0.275  0.099  0.500-   1 1.42   5 1.42  21 1.43
   5  0.218  0.200  0.500-   8 1.41   4 1.42   7 1.43
   6  0.052  0.301  0.500-   7 1.41  11 1.43  38 1.43
   7  0.107  0.201  0.500-   6 1.41   2 1.42   5 1.43
   8  0.273  0.298  0.500-  51 1.38   5 1.41   9 1.43
   9  0.218  0.400  0.500-  50 1.39  11 1.42   8 1.43
  10  0.055  0.502  0.500-  11 1.41  41 1.42  14 1.43
  11  0.108  0.400  0.500-  10 1.41   9 1.42   6 1.43
  12  0.225  0.596  0.500-  50 1.38  14 1.43  15 1.47
  13  0.057  0.701  0.500-  18 1.42  14 1.43  45 1.43
  14  0.113  0.600  0.500-  13 1.43  12 1.43  10 1.43
  15  0.283  0.698  0.500-  53 1.37  16 1.44  12 1.47
  16  0.224  0.798  0.500-  19 1.42  18 1.44  15 1.44
  17  0.055  0.901  0.500-   3 1.42  18 1.43  49 1.44
  18  0.112  0.801  0.500-  13 1.42  17 1.43  16 1.44
  19  0.278  0.898  0.500-  16 1.42  28 1.43   1 1.43
  20  0.553  0.001  0.500-  22 1.42  30 1.44  23 1.45
  21  0.386  0.101  0.500-   4 1.43  22 1.43  25 1.44
  22  0.443  1.000  0.500-  20 1.42  21 1.43  28 1.44
  23  0.606  0.104  0.500-  24 1.44  32 1.44  20 1.45
  24  0.549  0.206  0.500-  23 1.44  25 1.44  26 1.46
  25  0.437  0.205  0.500-  51 1.38  24 1.44  21 1.44
  26  0.605  0.309  0.500-  52 1.34  36 1.45  24 1.46
  27  0.558  0.794  0.500-  54 1.38  30 1.46  29 1.49
  28  0.389  0.897  0.500-  19 1.43  22 1.44  29 1.45
  29  0.442  0.792  0.500-  53 1.37  28 1.45  27 1.49
  30  0.609  0.899  0.500-  47 1.44  20 1.44  27 1.46
  31  0.886  0.003  0.500-  34 1.42  49 1.43  33 1.44
  32  0.718  0.105  0.500-  33 1.43  37 1.44  23 1.44
  33  0.775  0.004  0.500-  32 1.43  47 1.43  31 1.44
  34  0.941  0.103  0.500-  31 1.42  35 1.43   2 1.44
  35  0.885  0.204  0.500-  38 1.43  34 1.43  37 1.44
  36  0.718  0.309  0.500-  37 1.43  40 1.45  26 1.45
  37  0.773  0.207  0.500-  36 1.43  35 1.44  32 1.44
  38  0.941  0.303  0.500-  39 1.42  35 1.43   6 1.43
  39  0.887  0.405  0.500-  38 1.42  41 1.43  40 1.44
  40  0.776  0.409  0.501-  55 1.37  39 1.44  36 1.45
  41  0.945  0.503  0.500-  42 1.42  10 1.42  39 1.43
  42  0.891  0.604  0.500-  44 1.41  41 1.42  45 1.42
  43  0.723  0.705  0.500-  54 1.39  48 1.42  44 1.44
  44  0.782  0.604  0.501-  55 1.37  42 1.41  43 1.44
  45  0.947  0.703  0.500-  46 1.42  42 1.42  13 1.43
  46  0.889  0.803  0.500-  49 1.42  45 1.42  48 1.44
  47  0.720  0.903  0.500-  48 1.42  33 1.43  30 1.44
  48  0.778  0.804  0.500-  43 1.42  47 1.42  46 1.44
  49  0.944  0.903  0.500-  46 1.42  31 1.43  17 1.44
  50  0.275  0.496  0.499-  12 1.38   9 1.39  56 1.95
  51  0.380  0.301  0.499-   8 1.38  25 1.38  56 2.01
  52  0.553  0.404  0.500-  26 1.34  57 1.74  56 1.80
  53  0.389  0.697  0.500-  29 1.37  15 1.37
  54  0.616  0.698  0.500-  27 1.38  43 1.39  57 1.97
  55  0.728  0.510  0.501-  44 1.37  40 1.37  57 1.85
  56  0.422  0.458  0.498-  52 1.80  50 1.95  51 2.01  57 2.37
  57  0.586  0.541  0.500-  52 1.74  55 1.85  54 1.97  56 2.37
 
  LATTYP: Found a triclinic cell.
 ALAT       =    17.6610964577
 B/A-ratio  =     0.6943921726
 C/A-ratio  =     1.1377796987
 COS(alpha) =     0.0003710765
 COS(beta)  =     0.0015022875
 COS(gamma) =     0.6835142270
  
  Lattice vectors:
  
 A1 = ( -12.7998078257,  12.1687746530,  -0.0130826877)
 A2 = (   0.0927630964,  12.2633760995,  -0.0022357717)
 A3 = (  -0.0173828665,   0.0039248010, -20.0944291037)


Analysis of symmetry for initial positions (statically):
=====================================================================
 Subroutine PRICEL returns:
 Original cell was already a primitive cell.
 

 Routine SETGRP: Setting up the symmetry group for a 
 triclinic supercell.


 Subroutine GETGRP returns: Found  1 space group operations
 (whereof  1 operations were pure point group operations)
 out of a pool of  2 trial point group operations.


The static configuration has the point symmetry C_1 .


Analysis of symmetry for dynamics (positions and initial velocities):
=====================================================================
 Subroutine PRICEL returns:
 Original cell was already a primitive cell.
 

 Routine SETGRP: Setting up the symmetry group for a 
 triclinic supercell.


 Subroutine GETGRP returns: Found  1 space group operations
 (whereof  1 operations were pure point group operations)
 out of a pool of  2 trial point group operations.


The dynamic configuration has the point symmetry C_1 .


Analysis of structural, dynamic, and magnetic symmetry:
=====================================================================
 Subroutine PRICEL returns:
 Original cell was already a primitive cell.
 

 Routine SETGRP: Setting up the symmetry group for a 
 triclinic supercell.


 Subroutine GETGRP returns: Found  1 space group operations
 (whereof  1 operations were pure point group operations)
 out of a pool of  2 trial point group operations.


The magnetic configuration has the point symmetry C_1 .


 Subroutine INISYM returns: Found  1 space group operations
 (whereof  1 operations are pure point group operations),
 and found     1 'primitive' translations

 
 
 KPOINTS: KPOINTS created by Atomic Simulation Env

Automatic generation of k-mesh.
Space group operators:
 irot       det(A)        alpha          n_x          n_y          n_z        tau_x        tau_y        tau_z
    1     1.000000     0.000000     1.000000     0.000000     0.000000     0.000000     0.000000     0.000000
 
 Subroutine IBZKPT returns following result:
 ===========================================
 
 Found      2 irreducible k-points:
 
 Following reciprocal coordinates:
            Coordinates               Weight
  0.250000  0.250000  0.000000      2.000000
 -0.250000  0.250000 -0.000000      2.000000
 
 Following cartesian coordinates:
            Coordinates               Weight
  0.019243  0.020240 -0.000013      2.000000
 -0.019542  0.020534  0.000021      2.000000
 
 
 Subroutine IBZKPT_HF returns following result:
 ==============================================
 
 Found      4 k-points in 1st BZ
 the following      4 k-points will be used (e.g. in the exchange kernel)
 Following reciprocal coordinates:   # in IRBZ
  0.250000  0.250000  0.000000    0.25000000   1 t-inv F
 -0.250000  0.250000 -0.000000    0.25000000   2 t-inv F
 -0.250000 -0.250000 -0.000000    0.25000000   1 t-inv T
  0.250000 -0.250000  0.000000    0.25000000   2 t-inv T


--------------------------------------------------------------------------------------------------------




 Dimension of arrays:
   k-points           NKPTS =      2   k-points in BZ     NKDIM =      4   number of bands    NBANDS=    155
   number of dos      NEDOS =    301   number of ions     NIONS =     57
   non local maximal  LDIM  =      6   non local SUM 2l+1 LMDIM =     18
   total plane-waves  NPLWV = ******
   max r-space proj   IRMAX =      1   max aug-charges    IRDMAX=  14730
   dimension x,y,z NGX =    96 NGY =   90 NGZ =  150
   dimension x,y,z NGXF=   192 NGYF=  180 NGZF=  300
   support grid    NGXF=   192 NGYF=  180 NGZF=  300
   ions per type =              49   6   1   1
   NGX,Y,Z   is equivalent  to a cutoff of  12.38, 12.20, 12.41 a.u.
   NGXF,Y,Z  is equivalent  to a cutoff of  24.76, 24.40, 24.82 a.u.

 SYSTEM =  unknown system                          
 POSCAR =   C  N Fe Ni                             

 Startparameter for this run:
   NWRITE =      2    write-flag & timer
   PREC   = accura    normal or accurate (medium, high low for compatibility)
   ISTART =      1    job   : 0-new  1-cont  2-samecut
   ICHARG =      0    charge: 1-file 2-atom 10-const
   ISPIN  =      2    spin polarized calculation?
   LNONCOLLINEAR =      F non collinear calculations
   LSORBIT =      F    spin-orbit coupling
   INIWAV =      1    electr: 0-lowe 1-rand  2-diag
   LASPH  =      T    aspherical Exc in radial PAW
   METAGGA=      F    non-selfconsistent MetaGGA calc.

 Electronic Relaxation 1
   ENCUT  =  500.0 eV  36.75 Ry    6.06 a.u.  23.51 22.36 36.64*2*pi/ulx,y,z
   ENINI  =  500.0     initial cutoff
   ENAUG  =  644.9 eV  augmentation charge cutoff
   NELM   =    250;   NELMIN=  2; NELMDL=  0     # of ELM steps 
   EDIFF  = 0.1E-03   stopping-criterion for ELM
   LREAL  =      F    real-space projection
   NLSPLINE    = F    spline interpolate recip. space projectors
   LCOMPAT=      F    compatible to vasp.4.4
   GGA_COMPAT  = T    GGA compatible to vasp.4.4-vasp.4.6
   LMAXPAW     = -100 max onsite density
   LMAXMIX     =    2 max onsite mixed and CHGCAR
   VOSKOWN=      0    Vosko Wilk Nusair interpolation
   ROPT   =    0.00000   0.00000   0.00000   0.00000
 Ionic relaxation
   EDIFFG = -.3E-01   stopping-criterion for IOM
   NSW    =      0    number of steps for IOM
   NBLOCK =      1;   KBLOCK =      1    inner block; outer block 
   IBRION =     -1    ionic relax: 0-MD 1-quasi-New 2-CG
   NFREE  =      1    steps in history (QN), initial steepest desc. (CG)
   ISIF   =      2    stress and relaxation
   IWAVPR =     10    prediction:  0-non 1-charg 2-wave 3-comb
   ISYM   =      3    0-nonsym 1-usesym 2-fastsym
   LCORR  =      T    Harris-Foulkes like correction to forces

   POTIM  = 0.5000    time-step for ionic-motion
   TEIN   =    0.0    initial temperature
   TEBEG  =    0.0;   TEEND  =   0.0 temperature during run
   SMASS  =  -3.00    Nose mass-parameter (am)
   estimated Nose-frequenzy (Omega)   =  0.10E-29 period in steps =****** mass=  -0.380E-26a.u.
   SCALEE = 1.0000    scale energy and forces
   NPACO  =    256;   APACO  = 16.0  distance and # of slots for P.C.
   PSTRESS=    0.0 pullay stress

  Mass of Ions in am
   POMASS =  12.01 14.00 55.85 58.69
  Ionic Valenz
   ZVAL   =   4.00  5.00  8.00 10.00
  Atomic Wigner-Seitz radii
   RWIGS  =  -1.00 -1.00 -1.00 -1.00
  virtual crystal weights 
   VCA    =   1.00  1.00  1.00  1.00
   NELECT =     244.0000    total number of electrons
   NUPDOWN=      -1.0000    fix difference up-down

 DOS related values:
   EMIN   =  10.00;   EMAX   =-10.00  energy-range for DOS
   EFERMI =   0.00
   ISMEAR =     0;   SIGMA  =   0.10  broadening in eV -4-tet -1-fermi 0-gaus

 Electronic relaxation 2 (details)
   IALGO  =     53    algorithm
   LDIAG  =      T    sub-space diagonalisation (order eigenvalues)
   LSUBROT=      F    optimize rotation matrix (better conditioning)
   TURBO    =      0    0=normal 1=particle mesh
   IRESTART =      0    0=no restart 2=restart with 2 vectors
   NREBOOT  =      0    no. of reboots
   NMIN     =      0    reboot dimension
   EREF     =   0.00    reference energy to select bands
   IMIX   =      4    mixing-type and parameters
     AMIX     =   0.40;   BMIX     =  1.00
     AMIX_MAG =   1.60;   BMIX_MAG =  1.00
     AMIN     =   0.10
     WC   =   100.;   INIMIX=   1;  MIXPRE=   1;  MAXMIX= -45

 Intra band minimization:
   WEIMIN = 0.0000     energy-eigenvalue tresh-hold
   EBREAK =  0.16E-06  absolut break condition
   DEPER  =   0.30     relativ break condition  

   TIME   =   0.20     timestep for ELM

  volume/ion in A,a.u.               =      55.73       376.12
  Fermi-wavevector in a.u.,A,eV,Ry     =   0.695886  1.315033  6.588713  0.484257
  Thomas-Fermi vector in A             =   1.778782
 
 Write flags
   LWAVE        =      T    write WAVECAR
   LDOWNSAMPLE  =      F    k-point downsampling of WAVECAR
   LCHARG       =      T    write CHGCAR
   LVTOT        =      F    write LOCPOT, total local potential
   LVHAR        =      F    write LOCPOT, Hartree potential only
   LELF         =      F    write electronic localiz. function (ELF)
   LORBIT       =     11    0 simple, 1 ext, 2 COOP (PROOUT), +10 PAW based schemes


 Dipole corrections
   LMONO  =      F    monopole corrections only (constant potential shift)
   LDIPOL =      T    correct potential (dipole corrections)
   IDIPOL =      3    1-x, 2-y, 3-z, 4-all directions 
   EPSILON=  1.0000000 bulk dielectric constant

 Exchange correlation treatment:
   GGA     =    PE    GGA type
   LEXCH   =     8    internal setting for exchange type
   VOSKOWN=      0    Vosko Wilk Nusair interpolation
   EXXOEP  =     0    0=HF, 1=EXX-LHF (local Hartree Fock) 2=EXX OEP
   LHFCALC =     T    Hartree Fock is set to
   LSYMGRAD=     F    symmetrize gradient (conserves proper symmetry)
   PRECFOCK=normal    Normal, Fast or Accurate (Low or Medium for compatibility)
   LRHFCALC=     F    long range Hartree Fock
   LRSCOR  =     F    long range correlation only (use DFT for short range part)
   LTHOMAS =     F    Thomas Fermi screening in HF
   LMODELHF=     F    short range full HF, long range fraction AEXX
   ENCUT4O =  -1.0   cutoff for four orbital integrals eV
   LMAXFOCK=     4    L truncation for augmentation on plane wave grid
   LMAXFOCKAE=  -1    L truncation for all-electron charge restoration on plane wave grid
   NMAXFOCKAE=   1    number of basis functions for all-electron charge restoration
   LFOCKAEDFT=     F  apply the AE augmentation even for DFT
   NKREDX  =     1    reduce k-point grid by
   NKREDY  =     1    reduce k-point grid by
   NKREDZ  =     1    reduce k-point grid by
   SHIFTRED=     F    shift reduced grid of Gamma
   HFKIDENT=     F    idential grid for each k-point
   ODDONLY =     F    use only odd q-grid points
   EVENONLY=     F    use only even q-grid points
   HFALPHA =   -1.0000 decay constant for conv. correction
   MCALPHA =    0.0000 extent of test-charge in conv. correction in multipole expansion
   AEXX    =    0.2500 exact exchange contribution
   HFSCREEN=    0.2000 screening length (either q_TF or 0.3 A-1)
   HFSCREENC=   0.2000 screening length for correlation (either q_TF or 0.3 A-1)
   HFRCUT  =    0.0000 spherical cutoff for potential kernel
   ALDAX   =    0.7500 LDA exchange part
   AGGAX   =    0.7500 GGA exchange part
   ALDAC   =    1.0000 LDA correlation
   AGGAC   =    1.0000 GGA correlation
   ENCUTFOCK=  -1.0 apply spherical cutoff to Coloumb kernel
   NBANDSGWLOW=     1    first orbital included in HF term
   NBLOCK_FOCK=    64    blocking factor in FOCK_ACC
 Linear response parameters
   LEPSILON=     F    determine dielectric tensor
   LRPA    =     F    only Hartree local field effects (RPA)
   LNABLA  =     F    use nabla operator in PAW spheres
   LVEL    =     F    velocity operator in full k-point grid
   LINTERFAST=   F  fast interpolation
   KINTER  =     0    interpolate to denser k-point grid
   CSHIFT  =0.1000    complex shift for real part using Kramers Kronig
   OMEGAMAX=  -1.0    maximum frequency
   DEG_THRESHOLD= 0.2000000E-02 threshold for treating states as degnerate
   RTIME   =   -0.100 relaxation time in fs
  (WPLASMAI=    0.000 imaginary part of plasma frequency in eV, 0.658/RTIME)
   DFIELD  = 0.0000000 0.0000000 0.0000000 field for delta impulse in time
 
 Orbital magnetization related:
   ORBITALMAG=     F  switch on orbital magnetization
   LCHIMAG   =     F  perturbation theory with respect to B field
   DQ        =  0.001000  dq finite difference perturbation B field
   LLRAUG    =     F  two centre corrections for induced B field



--------------------------------------------------------------------------------------------------------


 Static calculation
 charge density and potential will be updated during run
 spin polarized calculation
 Conjugate gradient for all bands (Freysoldt, et al. PRB 79, 241103 (2009))
 perform sub-space diagonalisation
    before iterative eigenvector-optimisation
 modified Broyden-mixing scheme, WC =      100.0
 initial mixing is a Kerker type mixing with AMIX =  0.4000 and BMIX =      1.0000
 Hartree-type preconditioning will be used
 using additional bands           33
 reciprocal scheme for non local part
 use partial core corrections
 no Harris-corrections to forces 
 use gradient corrections 
 use of overlap-Matrix (Vanderbilt PP)
 Gauss-broadening in eV      SIGMA  =   0.10


--------------------------------------------------------------------------------------------------------


  energy-cutoff  :      500.00
  volume of cell :     3176.88
      direct lattice vectors                 reciprocal lattice vectors
    12.892570922  0.094601447  0.010846916     0.077568411 -0.000586758 -0.000067216
     0.092763096 12.263376100 -0.002235772    -0.000598387  0.081548143  0.000016445
     0.017382866 -0.003924801 20.094429104    -0.000041938  0.000009390  0.049765075

  length of vectors
    12.892922557 12.263727139 20.094437006     0.077570659  0.081550340  0.049765093


 
 old parameters found on file WAVECAR:
  energy-cutoff  :      500.00
  volume of cell :     3176.88
      direct lattice vectors                 reciprocal lattice vectors
    12.810000000  0.000000000  0.000000000     0.078064012  0.000000000  0.000000000
     0.000000000 12.400000000  0.000000000     0.000000000  0.080645161  0.000000000
     0.000000000  0.000000000 20.000000000     0.000000000  0.000000000  0.050000000

  length of vectors

 
 k-points in units of 2pi/SCALE and weight: KPOINTS created by Atomic Simulation Env
   0.01924251  0.02024035 -0.00001269       0.500
  -0.01954170  0.02053373  0.00002092       0.500
 
 k-points in reciprocal lattice and weights: KPOINTS created by Atomic Simulation Env
   0.25000000  0.25000000  0.00000000       0.500
  -0.25000000  0.25000000 -0.00000000       0.500
 
 position of ions in fractional coordinates (direct lattice) 
   0.22073703  0.99942579  0.50012446
   0.05219821  0.10103057  0.50013863
   0.10944890  0.00074440  0.50011994
   0.27492335  0.09933164  0.49997830
   0.21791885  0.19960071  0.49990055
   0.05186544  0.30107906  0.50007567
   0.10708035  0.20051012  0.50009061
   0.27324842  0.29818960  0.49950174
   0.21827145  0.40016719  0.49951016
   0.05510773  0.50157684  0.49993272
   0.10846811  0.40014033  0.49985638
   0.22461507  0.59561193  0.49963623
   0.05739487  0.70145148  0.49992198
   0.11342481  0.60025518  0.49982133
   0.28319066  0.69794059  0.49984307
   0.22368828  0.79819439  0.50001142
   0.05498916  0.90112023  0.50001661
   0.11229273  0.80060149  0.49997926
   0.27805736  0.89847356  0.50009303
   0.55319803  0.00094185  0.49996293
   0.38575386  0.10086958  0.49985319
   0.44272970  0.99977330  0.49998452
   0.60622354  0.10408553  0.49991079
   0.54927149  0.20587910  0.49974769
   0.43745602  0.20458422  0.49956433
   0.60503773  0.30881860  0.49994301
   0.55779614  0.79361186  0.50012918
   0.38912277  0.89741082  0.50006206
   0.44248743  0.79246518  0.50003476
   0.60917759  0.89877118  0.50003873
   0.88601400  0.00300313  0.49996851
   0.71787640  0.10532363  0.50000568
   0.77451543  0.00421931  0.49993996
   0.94082157  0.10280310  0.50008441
   0.88457423  0.20379751  0.50017979
   0.71786096  0.30893289  0.50036466
   0.77293494  0.20658902  0.50019463
   0.94094728  0.30293117  0.50022479
   0.88708643  0.40462712  0.50036705
   0.77566020  0.40937645  0.50058084
   0.94494810  0.50297880  0.50021098
   0.89104648  0.60446458  0.50022605
   0.72272083  0.70453131  0.50032087
   0.78188141  0.60444185  0.50051538
   0.94661191  0.70344495  0.50000953
   0.88939527  0.80307087  0.49999271
   0.72038185  0.90299031  0.49997958
   0.77801563  0.80353905  0.50007817
   0.94358507  0.90281969  0.49995073
   0.27478652  0.49574144  0.49929884
   0.38010723  0.30056189  0.49919172
   0.55291974  0.40384192  0.49964996
   0.38924871  0.69687886  0.49988509
   0.61552146  0.69812078  0.50026923
   0.72756878  0.50971457  0.50084610
   0.42192586  0.45770016  0.49841748
   0.58635863  0.54076933  0.50017394
 
 position of ions in cartesian coordinates  (Angst):
   2.94727126 12.27525351 10.04987524
   0.69103486  1.24195099 10.05034052
   1.41984029  0.01752002 10.05081026
   3.56237420  1.24218709 10.04953844
   2.83673946  2.46643205 10.04713367
   0.70530069  3.69518955 10.04862454
   1.40783401  2.46709827 10.04974850
   3.55921839  3.68070044 10.03949959
   2.85988381  4.92608906 10.03884436
   0.76569842  6.15427662 10.04533903
   1.44424001  4.91537072 10.04461053
   2.95980160  7.32350105 10.04100946
   0.81372632  8.60563085 10.04470100
   1.52670722  7.36992342 10.04351256
   3.72448754  8.58393642 10.04557245
   2.96665158  9.80775685 10.04808587
   0.80123411 11.05401593 10.04613018
   1.53069933  9.82673792 10.04622596
   3.67691241 11.04266102 10.05009127
   7.14092301  0.06192139 10.05246794
   4.99140479  1.27153269 10.04822324
   5.80935735 12.30051647 10.04947042
   7.83412522  1.33182756 10.05176497
   7.10930663  2.57477327 10.04764204
   5.66759454  2.54831653 10.04274765
   7.83782922  3.84243386 10.05194174
   7.27373787  9.78316617 10.05408645
   5.10873199 11.04013535 10.05067597
   5.78700415  9.75819593 10.05094097
   7.94593019 11.07763553 10.05259108
  11.43196784  0.11868440 10.05618558
   9.27373404  1.35757303 10.05487996
   9.99457694  0.12305105 10.05439980
  12.14783799  1.34775346 10.05888594
  11.43203547  2.58096446 10.05996656
   9.29242871  3.85450713 10.06163799
   9.99297714  2.60463645 10.05904767
  12.16802578  3.80201054 10.06126076
  11.48305694  5.04405031 10.06330775
  10.04693065  5.09175130 10.06638453
  12.23816341  6.25564842 10.06057931
  11.55264732  7.49510746 10.06007066
   9.39178104  8.70633918 10.05992629
  10.14523178  7.48450039 10.06470036
  12.27820647  8.71419838 10.05610117
  11.54977820  9.93053577 10.05491979
   9.38002941 11.13989668 10.05259936
  10.11385330  9.92574027 10.05542797
  12.25767633 11.15891970 10.05444099
   3.59737049  6.10349923 10.03499744
   4.93711787  3.71990302 10.03442355
   7.17470393  5.00281138 10.04527522
   5.09175074  8.58094906 10.04756951
   8.00910998  8.61758343 10.05774024
   9.43622097  6.31768479 10.07096880
   5.49083068  5.65090775 10.01896803
   7.61852806  6.68516495 10.05586089
 


--------------------------------------------------------------------------------------------------------


 k-point  1 :   0.2500 0.2500 0.0000  plane waves:   80661
 k-point  2 :  -0.2500 0.2500-0.0000  plane waves:   80674

 maximum and minimum number of plane-waves per node :      2547     2480

 maximum number of plane-waves:     80674
 maximum index in each direction: 
   IXMAX=   23   IYMAX=   22   IZMAX=   36
   IXMIN=  -23   IYMIN=  -22   IZMIN=  -36


 parallel 3D FFT for wavefunctions:
    minimum data exchange during FFTs selected (reduces bandwidth)
 parallel 3D FFT for charge:
    minimum data exchange during FFTs selected (reduces bandwidth)


 FFT grid for exact exchange (Hartree Fock) 
  NGX = 72; NGY = 70; NGZ =112

 
 Radii for the augmentation spheres in the non-local exchange
 for species   1 augmentation radius   0.874 (default was   0.699)
       energy cutoff for augmentation   2000.0
 for species   2 augmentation radius   0.886 (default was   0.709)
       energy cutoff for augmentation   2000.0
 for species   3 augmentation radius   1.263 (default was   1.010)
       energy cutoff for augmentation   2000.0
 for species   4 augmentation radius   1.224 (default was   0.979)
       energy cutoff for augmentation   2000.0

 real space projection operators:
  total allocation   :       2468.98 KBytes
  max/ min on nodes  :        105.60         54.08

 Maximum index for augmentation-charges in exchange          147
  SETUP_FOCK is finished

 total amount of memory used by VASP MPI-rank0   161816. kBytes
=======================================================================

   base      :      30000. kBytes
   nonl-proj :       5273. kBytes
   fftplans  :      13453. kBytes
   grid      :      34560. kBytes
   one-center:         62. kBytes
   HF        :         23. kBytes
   nonlr-proj:       1636. kBytes
   wavefun   :      76809. kBytes
 
     INWAV:  cpu time    3.5671: real time    3.5812
 Broyden mixing: mesh for mixing (old mesh)
   NGX = 47   NGY = 45   NGZ = 73
  (NGX  =192   NGY  =180   NGZ  =300)
  gives a total of 154395 points

 charge density for first step will be calculated from the start-wavefunctions


--------------------------------------------------------------------------------------------------------


 Maximum index for augmentation-charges           96 (set IRDMAX)


--------------------------------------------------------------------------------------------------------


 initial charge from wavefunction
 First call to EWALD:  gamma=   0.121
 Maximum number of real-space cells 3x 3x 2
 Maximum number of reciprocal cells 2x 2x 4

    FEWALD:  cpu time    0.0035: real time    0.0035


--------------------------------------- Iteration      1(   1)  ---------------------------------------


    POTLOK:  cpu time    1.3224: real time    1.3236
    SETDIJ:  cpu time    2.1050: real time    2.1060
    TRIAL :  cpu time  525.9895: real time  526.2790
    CORREC:  cpu time    0.0022: real time    0.0025
    CHARGE:  cpu time    1.6567: real time    1.6573
    --------------------------------------------
      LOOP:  cpu time  531.0919: real time  531.3866

 eigenvalue-minimisations  :     0
 total energy-change (2. order) :-0.5943387E+03  (-0.5489213E+00)
 number of electron     244.0000003 magnetization       3.7378049
 augmentation part       16.2729811 magnetization       2.2781609

 DIPCOR: dipole corrections for dipol
 direction  3 min pos     1,
 dipolmoment           0.000006     -0.000001      0.007146 electrons x Angstroem
 Tr[quadrupol]     -6493.484311

 energy correction for charged system         0.000000 eV
 dipol+quadrupol energy correction            0.000001 eV
 added-field ion interaction          0.000000 eV  (added to PSCEN)


 Free energy of the ion-electron system (eV)
  ---------------------------------------------------
  alpha Z        PSCENC =        97.77143525
  Ewald energy   TEWEN  =     39732.27067804
  -Hartree energ DENC   =    -48694.69547023
  -exchange      EXHF   =       559.34511131
  -V(xc)+E(xc)   XCENC  =       636.77512512
  PAW double counting   =     26601.93359505   -26703.56292277
  entropy T*S    EENTRO =        -0.02742903
  eigenvalues    EBANDS =     -3181.91720284
  atomic energy  EATOM  =     10357.77412991
  ---------------------------------------------------
  free energy    TOTEN  =      -594.33874440 eV

  energy without entropy =     -594.31131537  energy(sigma->0) =     -594.32502988
  exchange ACFDT corr.  =        -0.05464349  see jH, gK, PRB 81, 115126


--------------------------------------------------------------------------------------------------------




--------------------------------------- Iteration      1(   2)  ---------------------------------------


    POTLOK:  cpu time    1.3298: real time    1.3303
    SETDIJ:  cpu time    2.0895: real time    2.0898
    TRIAL :  cpu time  524.3001: real time  524.6169
    CORREC:  cpu time    0.0022: real time    0.0025
    CHARGE:  cpu time    1.6393: real time    1.6399
    --------------------------------------------
      LOOP:  cpu time  529.3637: real time  529.6821

 eigenvalue-minimisations  :     0
 total energy-change (2. order) :-0.3970994E+00  (-0.4615888E+00)
 number of electron     244.0000003 magnetization       3.7829173
 augmentation part       16.2631000 magnetization       2.3225886

 DIPCOR: dipole corrections for dipol
 direction  3 min pos     1,
 dipolmoment           0.000008     -0.000002      0.009252 electrons x Angstroem
 Tr[quadrupol]     -6493.335250

 energy correction for charged system         0.000000 eV
 dipol+quadrupol energy correction            0.000002 eV
 added-field ion interaction          0.000000 eV  (added to PSCEN)


 Free energy of the ion-electron system (eV)
  ---------------------------------------------------
  alpha Z        PSCENC =        97.77143624
  Ewald energy   TEWEN  =     39732.27067804
  -Hartree energ DENC   =    -48685.61793953
  -exchange      EXHF   =       559.37199048
  -V(xc)+E(xc)   XCENC  =       636.57391176
  PAW double counting   =     26731.27414667   -26833.63802507
  entropy T*S    EENTRO =        -0.02358211
  eigenvalues    EBANDS =     -3190.48874325
  atomic energy  EATOM  =     10357.77412991
  ---------------------------------------------------
  free energy    TOTEN  =      -594.73584378 eV

  energy without entropy =     -594.71226168  energy(sigma->0) =     -594.72405273
  exchange ACFDT corr.  =        -0.04352415  see jH, gK, PRB 81, 115126


--------------------------------------------------------------------------------------------------------




--------------------------------------- Iteration      1(   3)  ---------------------------------------


    POTLOK:  cpu time    1.3340: real time    1.3345
    SETDIJ:  cpu time    2.1009: real time    2.1012
    TRIAL :  cpu time  525.8633: real time  526.1887
    CORREC:  cpu time    0.0023: real time    0.0025
    CHARGE:  cpu time    1.6463: real time    1.6468
    --------------------------------------------
      LOOP:  cpu time  530.9496: real time  531.2764

 eigenvalue-minimisations  :     0
 total energy-change (2. order) :-0.3374607E+00  (-0.2351220E+00)
 number of electron     244.0000003 magnetization       3.8237855
 augmentation part       16.2396623 magnetization       2.3610318

 DIPCOR: dipole corrections for dipol
 direction  3 min pos     1,
 dipolmoment           0.000007     -0.000002      0.008440 electrons x Angstroem
 Tr[quadrupol]     -6493.167924

 energy correction for charged system         0.000000 eV
 dipol+quadrupol energy correction            0.000002 eV
 added-field ion interaction          0.000000 eV  (added to PSCEN)


 Free energy of the ion-electron system (eV)
  ---------------------------------------------------
  alpha Z        PSCENC =        97.77143583
  Ewald energy   TEWEN  =     39732.27067804
  -Hartree energ DENC   =    -48670.31920092
  -exchange      EXHF   =       559.29135916
  -V(xc)+E(xc)   XCENC  =       636.17711638
  PAW double counting   =     26890.16775364   -26991.88230006
  entropy T*S    EENTRO =        -0.02032322
  eigenvalues    EBANDS =     -3206.30069437
  atomic energy  EATOM  =     10357.77412991
  ---------------------------------------------------
  free energy    TOTEN  =      -595.07330449 eV

  energy without entropy =     -595.05298127  energy(sigma->0) =     -595.06314288
  exchange ACFDT corr.  =        -0.01871340  see jH, gK, PRB 81, 115126


--------------------------------------------------------------------------------------------------------




--------------------------------------- Iteration      1(   4)  ---------------------------------------


    POTLOK:  cpu time    1.3350: real time    1.3354
    SETDIJ:  cpu time    2.0996: real time    2.0999
    TRIAL :  cpu time  524.6349: real time  524.9754
    CORREC:  cpu time    0.0022: real time    0.0024
    CHARGE:  cpu time    1.6370: real time    1.6373
    --------------------------------------------
      LOOP:  cpu time  529.7113: real time  530.0531

 eigenvalue-minimisations  :     0
 total energy-change (2. order) :-0.1708527E+00  (-0.1443079E+00)
 number of electron     244.0000003 magnetization       3.8602060
 augmentation part       16.2371141 magnetization       2.3861273

 DIPCOR: dipole corrections for dipol
 direction  3 min pos     1,
 dipolmoment           0.000007     -0.000002      0.008259 electrons x Angstroem
 Tr[quadrupol]     -6493.092991

 energy correction for charged system         0.000000 eV
 dipol+quadrupol energy correction            0.000002 eV
 added-field ion interaction          0.000000 eV  (added to PSCEN)


 Free energy of the ion-electron system (eV)
  ---------------------------------------------------
  alpha Z        PSCENC =        97.77143574
  Ewald energy   TEWEN  =     39732.27067804
  -Hartree energ DENC   =    -48661.67247626
  -exchange      EXHF   =       559.38664280
  -V(xc)+E(xc)   XCENC  =       635.98843441
  PAW double counting   =     27024.46584716   -27125.44660621
  entropy T*S    EENTRO =        -0.01723886
  eigenvalues    EBANDS =     -3215.76191959
  atomic energy  EATOM  =     10357.77412991
  ---------------------------------------------------
  free energy    TOTEN  =      -595.24415720 eV

  energy without entropy =     -595.22691835  energy(sigma->0) =     -595.23553778
  exchange ACFDT corr.  =        -0.01519847  see jH, gK, PRB 81, 115126


--------------------------------------------------------------------------------------------------------




--------------------------------------- Iteration      1(   5)  ---------------------------------------


    POTLOK:  cpu time    1.3347: real time    1.3354
    SETDIJ:  cpu time    2.0930: real time    2.0948
    TRIAL :  cpu time  523.7428: real time  523.9329
    CORREC:  cpu time    0.0020: real time    0.0022
    CHARGE:  cpu time    1.6390: real time    1.6392
    --------------------------------------------
      LOOP:  cpu time  528.8143: real time  529.0073

 eigenvalue-minimisations  :     0
 total energy-change (2. order) :-0.1096509E+00  (-0.8387990E-01)
 number of electron     244.0000003 magnetization       3.8874947
 augmentation part       16.2500138 magnetization       2.3996369

 DIPCOR: dipole corrections for dipol
 direction  3 min pos     1,
 dipolmoment           0.000008     -0.000002      0.008758 electrons x Angstroem
 Tr[quadrupol]     -6493.119825

 energy correction for charged system         0.000000 eV
 dipol+quadrupol energy correction            0.000002 eV
 added-field ion interaction          0.000000 eV  (added to PSCEN)


 Free energy of the ion-electron system (eV)
  ---------------------------------------------------
  alpha Z        PSCENC =        97.77143599
  Ewald energy   TEWEN  =     39732.27067804
  -Hartree energ DENC   =    -48663.11472775
  -exchange      EXHF   =       559.66748905
  -V(xc)+E(xc)   XCENC  =       636.07068317
  PAW double counting   =     27122.65559165   -27223.68880358
  entropy T*S    EENTRO =        -0.01469695
  eigenvalues    EBANDS =     -3214.74304576
  atomic energy  EATOM  =     10357.77412991
  ---------------------------------------------------
  free energy    TOTEN  =      -595.35380813 eV

  energy without entropy =     -595.33911118  energy(sigma->0) =     -595.34645966
  exchange ACFDT corr.  =        -0.01224363  see jH, gK, PRB 81, 115126


--------------------------------------------------------------------------------------------------------




--------------------------------------- Iteration      1(   6)  ---------------------------------------


    POTLOK:  cpu time    1.3323: real time    1.3323
    SETDIJ:  cpu time    2.1225: real time    2.1227
    TRIAL :  cpu time  522.7065: real time  522.8516
    CORREC:  cpu time    0.0021: real time    0.0024
    CHARGE:  cpu time    1.6434: real time    1.6481
    --------------------------------------------
      LOOP:  cpu time  527.8095: real time  527.9598

 eigenvalue-minimisations  :     0
 total energy-change (2. order) :-0.6925753E-01  (-0.5875049E-01)
 number of electron     244.0000003 magnetization       3.9081646
 augmentation part       16.2609383 magnetization       2.4069590

 DIPCOR: dipole corrections for dipol
 direction  3 min pos     1,
 dipolmoment           0.000008     -0.000002      0.008883 electrons x Angstroem
 Tr[quadrupol]     -6493.182382

 energy correction for charged system         0.000000 eV
 dipol+quadrupol energy correction            0.000002 eV
 added-field ion interaction          0.000000 eV  (added to PSCEN)


 Free energy of the ion-electron system (eV)
  ---------------------------------------------------
  alpha Z        PSCENC =        97.77143605
  Ewald energy   TEWEN  =     39732.27067804
  -Hartree energ DENC   =    -48667.99148813
  -exchange      EXHF   =       559.97032829
  -V(xc)+E(xc)   XCENC  =       636.23228617
  PAW double counting   =     27187.71277580   -27288.99206669
  entropy T*S    EENTRO =        -0.01260626
  eigenvalues    EBANDS =     -3210.15644818
  atomic energy  EATOM  =     10357.77412991
  ---------------------------------------------------
  free energy    TOTEN  =      -595.42306566 eV

  energy without entropy =     -595.41045940  energy(sigma->0) =     -595.41676253
  exchange ACFDT corr.  =        -0.01120080  see jH, gK, PRB 81, 115126


--------------------------------------------------------------------------------------------------------




--------------------------------------- Iteration      1(   7)  ---------------------------------------


    POTLOK:  cpu time    1.3314: real time    1.3316
    SETDIJ:  cpu time    2.0954: real time    2.0954
    TRIAL :  cpu time  522.6663: real time  522.8063
    CORREC:  cpu time    0.0021: real time    0.0023
    CHARGE:  cpu time    1.6396: real time    1.6396
    --------------------------------------------
      LOOP:  cpu time  527.7373: real time  527.8779

 eigenvalue-minimisations  :     0
 total energy-change (2. order) :-0.4936948E-01  (-0.3879795E-01)
 number of electron     244.0000003 magnetization       3.9246853
 augmentation part       16.2658665 magnetization       2.4116922

 DIPCOR: dipole corrections for dipol
 direction  3 min pos     1,
 dipolmoment           0.000008     -0.000002      0.008724 electrons x Angstroem
 Tr[quadrupol]     -6493.232026

 energy correction for charged system         0.000000 eV
 dipol+quadrupol energy correction            0.000002 eV
 added-field ion interaction          0.000000 eV  (added to PSCEN)


 Free energy of the ion-electron system (eV)
  ---------------------------------------------------
  alpha Z        PSCENC =        97.77143597
  Ewald energy   TEWEN  =     39732.27067804
  -Hartree energ DENC   =    -48671.62451826
  -exchange      EXHF   =       560.20163246
  -V(xc)+E(xc)   XCENC  =       636.35772720
  PAW double counting   =     27226.51086303   -27327.84555017
  entropy T*S    EENTRO =        -0.01080576
  eigenvalues    EBANDS =     -3206.87622708
  atomic energy  EATOM  =     10357.77412991
  ---------------------------------------------------
  free energy    TOTEN  =      -595.47243514 eV

  energy without entropy =     -595.46162938  energy(sigma->0) =     -595.46703226
  exchange ACFDT corr.  =        -0.00909322  see jH, gK, PRB 81, 115126


--------------------------------------------------------------------------------------------------------




--------------------------------------- Iteration      1(   8)  ---------------------------------------


    POTLOK:  cpu time    1.3319: real time    1.3320
    SETDIJ:  cpu time    2.0965: real time    2.0966
    TRIAL :  cpu time  521.7344: real time  521.8621
    CORREC:  cpu time    0.0022: real time    0.0024
    CHARGE:  cpu time    1.6372: real time    1.6373
    --------------------------------------------
      LOOP:  cpu time  526.8049: real time  526.9330

 eigenvalue-minimisations  :     0
 total energy-change (2. order) :-0.3355111E-01  (-0.2803892E-01)
 number of electron     244.0000003 magnetization       3.9376141
 augmentation part       16.2684642 magnetization       2.4149018

 DIPCOR: dipole corrections for dipol
 direction  3 min pos     1,
 dipolmoment           0.000008     -0.000002      0.008709 electrons x Angstroem
 Tr[quadrupol]     -6493.257049

 energy correction for charged system         0.000000 eV
 dipol+quadrupol energy correction            0.000002 eV
 added-field ion interaction          0.000000 eV  (added to PSCEN)


 Free energy of the ion-electron system (eV)
  ---------------------------------------------------
  alpha Z        PSCENC =        97.77143596
  Ewald energy   TEWEN  =     39732.27067804
  -Hartree energ DENC   =    -48673.50468250
  -exchange      EXHF   =       560.35660705
  -V(xc)+E(xc)   XCENC  =       636.43860178
  PAW double counting   =     27247.42586274   -27348.75214380
  entropy T*S    EENTRO =        -0.00930450
  eigenvalues    EBANDS =     -3205.27566968
  atomic energy  EATOM  =     10357.77412991
  ---------------------------------------------------
  free energy    TOTEN  =      -595.50598625 eV

  energy without entropy =     -595.49668175  energy(sigma->0) =     -595.50133400
  exchange ACFDT corr.  =        -0.00742503  see jH, gK, PRB 81, 115126


--------------------------------------------------------------------------------------------------------




--------------------------------------- Iteration      1(   9)  ---------------------------------------


    POTLOK:  cpu time    1.3291: real time    1.3292
    SETDIJ:  cpu time    2.0938: real time    2.0938
    TRIAL :  cpu time  520.9314: real time  521.0699
    CORREC:  cpu time    0.0022: real time    0.0025
    CHARGE:  cpu time    1.6400: real time    1.6403
    --------------------------------------------
      LOOP:  cpu time  525.9988: real time  526.1380

 eigenvalue-minimisations  :     0
 total energy-change (2. order) :-0.2471270E-01  (-0.2011233E-01)
 number of electron     244.0000003 magnetization       3.9472743
 augmentation part       16.2712837 magnetization       2.4175785

 DIPCOR: dipole corrections for dipol
 direction  3 min pos     1,
 dipolmoment           0.000008     -0.000002      0.008845 electrons x Angstroem
 Tr[quadrupol]     -6493.264689

 energy correction for charged system         0.000000 eV
 dipol+quadrupol energy correction            0.000002 eV
 added-field ion interaction          0.000000 eV  (added to PSCEN)


 Free energy of the ion-electron system (eV)
  ---------------------------------------------------
  alpha Z        PSCENC =        97.77143603
  Ewald energy   TEWEN  =     39732.27067804
  -Hartree energ DENC   =    -48674.36628509
  -exchange      EXHF   =       560.45724447
  -V(xc)+E(xc)   XCENC  =       636.49027337
  PAW double counting   =     27257.97748985   -27359.35063236
  entropy T*S    EENTRO =        -0.00812270
  eigenvalues    EBANDS =     -3204.54572868
  atomic energy  EATOM  =     10357.77412991
  ---------------------------------------------------
  free energy    TOTEN  =      -595.53069896 eV

  energy without entropy =     -595.52257626  energy(sigma->0) =     -595.52663761
  exchange ACFDT corr.  =        -0.00612642  see jH, gK, PRB 81, 115126


--------------------------------------------------------------------------------------------------------




--------------------------------------- Iteration      1(  10)  ---------------------------------------


    POTLOK:  cpu time    1.3252: real time    1.3254
    SETDIJ:  cpu time    2.0878: real time    2.0887
    TRIAL :  cpu time  520.4628: real time  520.6332
    CORREC:  cpu time    0.0022: real time    0.0024
    CHARGE:  cpu time    1.6434: real time    1.6437
    --------------------------------------------
      LOOP:  cpu time  525.5234: real time  525.6953

 eigenvalue-minimisations  :     0
 total energy-change (2. order) :-0.1801229E-01  (-0.1504362E-01)
 number of electron     244.0000003 magnetization       3.9544919
 augmentation part       16.2738507 magnetization       2.4200120

 DIPCOR: dipole corrections for dipol
 direction  3 min pos     1,
 dipolmoment           0.000008     -0.000002      0.008934 electrons x Angstroem
 Tr[quadrupol]     -6493.264675

 energy correction for charged system         0.000000 eV
 dipol+quadrupol energy correction            0.000002 eV
 added-field ion interaction          0.000000 eV  (added to PSCEN)


 Free energy of the ion-electron system (eV)
  ---------------------------------------------------
  alpha Z        PSCENC =        97.77143608
  Ewald energy   TEWEN  =     39732.27067804
  -Hartree energ DENC   =    -48674.66972875
  -exchange      EXHF   =       560.52384059
  -V(xc)+E(xc)   XCENC  =       636.52142961
  PAW double counting   =     27263.37015219   -27364.81227289
  entropy T*S    EENTRO =        -0.00720032
  eigenvalues    EBANDS =     -3204.29025334
  atomic energy  EATOM  =     10357.77412991
  ---------------------------------------------------
  free energy    TOTEN  =      -595.54871125 eV

  energy without entropy =     -595.54151093  energy(sigma->0) =     -595.54511109
  exchange ACFDT corr.  =        -0.00514959  see jH, gK, PRB 81, 115126


--------------------------------------------------------------------------------------------------------




--------------------------------------- Iteration      1(  11)  ---------------------------------------


    POTLOK:  cpu time    1.3243: real time    1.3244
    SETDIJ:  cpu time    2.0902: real time    2.0911
    TRIAL :  cpu time  521.1295: real time  521.2874
    CORREC:  cpu time    0.0021: real time    0.0021
    CHARGE:  cpu time    1.6435: real time    1.6437
    --------------------------------------------
      LOOP:  cpu time  526.1920: real time  526.3510

 eigenvalue-minimisations  :     0
 total energy-change (2. order) :-0.1373998E-01  (-0.1159123E-01)
 number of electron     244.0000002 magnetization       3.9600967
 augmentation part       16.2754821 magnetization       2.4220180

 DIPCOR: dipole corrections for dipol
 direction  3 min pos     1,
 dipolmoment           0.000008     -0.000002      0.008930 electrons x Angstroem
 Tr[quadrupol]     -6493.263173

 energy correction for charged system         0.000000 eV
 dipol+quadrupol energy correction            0.000002 eV
 added-field ion interaction          0.000000 eV  (added to PSCEN)


 Free energy of the ion-electron system (eV)
  ---------------------------------------------------
  alpha Z        PSCENC =        97.77143607
  Ewald energy   TEWEN  =     39732.27067804
  -Hartree energ DENC   =    -48674.67922138
  -exchange      EXHF   =       560.57149321
  -V(xc)+E(xc)   XCENC  =       636.53977467
  PAW double counting   =     27266.29702711   -27367.77753979
  entropy T*S    EENTRO =        -0.00645707
  eigenvalues    EBANDS =     -3204.32302876
  atomic energy  EATOM  =     10357.77412991
  ---------------------------------------------------
  free energy    TOTEN  =      -595.56245123 eV

  energy without entropy =     -595.55599416  energy(sigma->0) =     -595.55922269
  exchange ACFDT corr.  =        -0.00441480  see jH, gK, PRB 81, 115126


--------------------------------------------------------------------------------------------------------




--------------------------------------- Iteration      1(  12)  ---------------------------------------


    POTLOK:  cpu time    1.3224: real time    1.3226
    SETDIJ:  cpu time    2.0945: real time    2.0946
    TRIAL :  cpu time  521.0185: real time  521.2781
    CORREC:  cpu time    0.0022: real time    0.0024
    CHARGE:  cpu time    1.6348: real time    1.6350
    --------------------------------------------
      LOOP:  cpu time  526.0747: real time  526.3350

 eigenvalue-minimisations  :     0
 total energy-change (2. order) :-0.1068735E-01  (-0.9148615E-02)
 number of electron     244.0000002 magnetization       3.9645507
 augmentation part       16.2766523 magnetization       2.4234433

 DIPCOR: dipole corrections for dipol
 direction  3 min pos     1,
 dipolmoment           0.000008     -0.000002      0.008915 electrons x Angstroem
 Tr[quadrupol]     -6493.262689

 energy correction for charged system         0.000000 eV
 dipol+quadrupol energy correction            0.000002 eV
 added-field ion interaction          0.000000 eV  (added to PSCEN)


 Free energy of the ion-electron system (eV)
  ---------------------------------------------------
  alpha Z        PSCENC =        97.77143607
  Ewald energy   TEWEN  =     39732.27067804
  -Hartree energ DENC   =    -48674.64807624
  -exchange      EXHF   =       560.61060853
  -V(xc)+E(xc)   XCENC  =       636.55429387
  PAW double counting   =     27268.14293567   -27369.63875519
  entropy T*S    EENTRO =        -0.00584777
  eigenvalues    EBANDS =     -3204.40393216
  atomic energy  EATOM  =     10357.77412991
  ---------------------------------------------------
  free energy    TOTEN  =      -595.57313858 eV

  energy without entropy =     -595.56729081  energy(sigma->0) =     -595.57021469
  exchange ACFDT corr.  =        -0.00384579  see jH, gK, PRB 81, 115126


--------------------------------------------------------------------------------------------------------




--------------------------------------- Iteration      1(  13)  ---------------------------------------


    POTLOK:  cpu time    1.3197: real time    1.3201
    SETDIJ:  cpu time    2.0865: real time    2.0865
    TRIAL :  cpu time  520.9137: real time  521.0682
    CORREC:  cpu time    0.0020: real time    0.0023
    CHARGE:  cpu time    1.6389: real time    1.6389
    --------------------------------------------
      LOOP:  cpu time  525.9636: real time  526.1190

 eigenvalue-minimisations  :     0
 total energy-change (2. order) :-0.8558768E-02  (-0.7468147E-02)
 number of electron     244.0000002 magnetization       3.9680580
 augmentation part       16.2776554 magnetization       2.4241788

 DIPCOR: dipole corrections for dipol
 direction  3 min pos     1,
 dipolmoment           0.000008     -0.000002      0.008937 electrons x Angstroem
 Tr[quadrupol]     -6493.263619

 energy correction for charged system         0.000000 eV
 dipol+quadrupol energy correction            0.000002 eV
 added-field ion interaction          0.000000 eV  (added to PSCEN)


 Free energy of the ion-electron system (eV)
  ---------------------------------------------------
  alpha Z        PSCENC =        97.77143608
  Ewald energy   TEWEN  =     39732.27067804
  -Hartree energ DENC   =    -48674.73935460
  -exchange      EXHF   =       560.64654605
  -V(xc)+E(xc)   XCENC  =       636.57043519
  PAW double counting   =     27269.81900402   -27371.33851571
  entropy T*S    EENTRO =        -0.00535518
  eigenvalues    EBANDS =     -3204.35020856
  atomic energy  EATOM  =     10357.77412991
  ---------------------------------------------------
  free energy    TOTEN  =      -595.58169734 eV

  energy without entropy =     -595.57634216  energy(sigma->0) =     -595.57901975
  exchange ACFDT corr.  =        -0.00339690  see jH, gK, PRB 81, 115126


--------------------------------------------------------------------------------------------------------




--------------------------------------- Iteration      1(  14)  ---------------------------------------


    POTLOK:  cpu time    1.3198: real time    1.3200
    SETDIJ:  cpu time    2.0818: real time    2.0820
    TRIAL :  cpu time  520.7989: real time  520.9735
    CORREC:  cpu time    0.0020: real time    0.0023
    CHARGE:  cpu time    1.6376: real time    1.6378
    --------------------------------------------
      LOOP:  cpu time  525.8425: real time  526.0181

 eigenvalue-minimisations  :     0
 total energy-change (2. order) :-0.7045543E-02  (-0.6231419E-02)
 number of electron     244.0000002 magnetization       3.9707689
 augmentation part       16.2785405 magnetization       2.4242184

 DIPCOR: dipole corrections for dipol
 direction  3 min pos     1,
 dipolmoment           0.000008     -0.000002      0.008977 electrons x Angstroem
 Tr[quadrupol]     -6493.264951

 energy correction for charged system         0.000000 eV
 dipol+quadrupol energy correction            0.000002 eV
 added-field ion interaction          0.000000 eV  (added to PSCEN)


 Free energy of the ion-electron system (eV)
  ---------------------------------------------------
  alpha Z        PSCENC =        97.77143610
  Ewald energy   TEWEN  =     39732.27067804
  -Hartree energ DENC   =    -48674.88790921
  -exchange      EXHF   =       560.67898061
  -V(xc)+E(xc)   XCENC  =       636.58651486
  PAW double counting   =     27271.66102976   -27373.20913761
  entropy T*S    EENTRO =        -0.00496574
  eigenvalues    EBANDS =     -3204.22911017
  atomic energy  EATOM  =     10357.77412991
  ---------------------------------------------------
  free energy    TOTEN  =      -595.58874289 eV

  energy without entropy =     -595.58377715  energy(sigma->0) =     -595.58626002
  exchange ACFDT corr.  =        -0.00304456  see jH, gK, PRB 81, 115126


--------------------------------------------------------------------------------------------------------




--------------------------------------- Iteration      1(  15)  ---------------------------------------


    POTLOK:  cpu time    1.3195: real time    1.3196
    SETDIJ:  cpu time    2.1144: real time    2.1145
    TRIAL :  cpu time  520.5825: real time  520.7377
    CORREC:  cpu time    0.0020: real time    0.0023
    CHARGE:  cpu time    1.6374: real time    1.6375
    --------------------------------------------
      LOOP:  cpu time  525.6580: real time  525.8137

 eigenvalue-minimisations  :     0
 total energy-change (2. order) :-0.5937475E-02  (-0.5353724E-02)
 number of electron     244.0000002 magnetization       3.9728559
 augmentation part       16.2792943 magnetization       2.4236876

 DIPCOR: dipole corrections for dipol
 direction  3 min pos     1,
 dipolmoment           0.000008     -0.000002      0.009003 electrons x Angstroem
 Tr[quadrupol]     -6493.265843

 energy correction for charged system         0.000000 eV
 dipol+quadrupol energy correction            0.000002 eV
 added-field ion interaction          0.000000 eV  (added to PSCEN)


 Free energy of the ion-electron system (eV)
  ---------------------------------------------------
  alpha Z        PSCENC =        97.77143611
  Ewald energy   TEWEN  =     39732.27067804
  -Hartree energ DENC   =    -48674.99497034
  -exchange      EXHF   =       560.70678863
  -V(xc)+E(xc)   XCENC  =       636.59988443
  PAW double counting   =     27273.74078223   -27375.30936471
  entropy T*S    EENTRO =        -0.00466001
  eigenvalues    EBANDS =     -3204.14907892
  atomic energy  EATOM  =     10357.77412991
  ---------------------------------------------------
  free energy    TOTEN  =      -595.59468036 eV

  energy without entropy =     -595.59002035  energy(sigma->0) =     -595.59235036
  exchange ACFDT corr.  =        -0.00277134  see jH, gK, PRB 81, 115126


--------------------------------------------------------------------------------------------------------




--------------------------------------- Iteration      1(  16)  ---------------------------------------


    POTLOK:  cpu time    1.3168: real time    1.3168
    SETDIJ:  cpu time    2.0705: real time    2.0754
    TRIAL :  cpu time  522.2610: real time  522.4310
    CORREC:  cpu time    0.0021: real time    0.0023
    CHARGE:  cpu time    1.6376: real time    1.6377
    --------------------------------------------
      LOOP:  cpu time  527.2904: real time  527.4657

 eigenvalue-minimisations  :     0
 total energy-change (2. order) :-0.5138268E-02  (-0.4699619E-02)
 number of electron     244.0000002 magnetization       3.9744806
 augmentation part       16.2799644 magnetization       2.4227933

 DIPCOR: dipole corrections for dipol
 direction  3 min pos     1,
 dipolmoment           0.000008     -0.000002      0.009012 electrons x Angstroem
 Tr[quadrupol]     -6493.266241

 energy correction for charged system         0.000000 eV
 dipol+quadrupol energy correction            0.000002 eV
 added-field ion interaction          0.000000 eV  (added to PSCEN)


 Free energy of the ion-electron system (eV)
  ---------------------------------------------------
  alpha Z        PSCENC =        97.77143612
  Ewald energy   TEWEN  =     39732.27067804
  -Hartree energ DENC   =    -48675.05431470
  -exchange      EXHF   =       560.73063086
  -V(xc)+E(xc)   XCENC  =       636.61069221
  PAW double counting   =     27275.95372208   -27377.53449826
  entropy T*S    EENTRO =        -0.00441801
  eigenvalues    EBANDS =     -3204.11763487
  atomic energy  EATOM  =     10357.77412991
  ---------------------------------------------------
  free energy    TOTEN  =      -595.59981863 eV

  energy without entropy =     -595.59540062  energy(sigma->0) =     -595.59760963
  exchange ACFDT corr.  =        -0.00255963  see jH, gK, PRB 81, 115126


--------------------------------------------------------------------------------------------------------




--------------------------------------- Iteration      1(  17)  ---------------------------------------


    POTLOK:  cpu time    1.3156: real time    1.3158
    SETDIJ:  cpu time    2.0818: real time    2.0819
    TRIAL :  cpu time  521.3793: real time  521.5327
    CORREC:  cpu time    0.0022: real time    0.0024
    CHARGE:  cpu time    1.6444: real time    1.6490
    --------------------------------------------
      LOOP:  cpu time  526.4255: real time  526.5843

 eigenvalue-minimisations  :     0
 total energy-change (2. order) :-0.4539515E-02  (-0.4209638E-02)
 number of electron     244.0000002 magnetization       3.9757583
 augmentation part       16.2805441 magnetization       2.4216574

 DIPCOR: dipole corrections for dipol
 direction  3 min pos     1,
 dipolmoment           0.000008     -0.000002      0.009018 electrons x Angstroem
 Tr[quadrupol]     -6493.266451

 energy correction for charged system         0.000000 eV
 dipol+quadrupol energy correction            0.000002 eV
 added-field ion interaction          0.000000 eV  (added to PSCEN)


 Free energy of the ion-electron system (eV)
  ---------------------------------------------------
  alpha Z        PSCENC =        97.77143612
  Ewald energy   TEWEN  =     39732.27067804
  -Hartree energ DENC   =    -48675.11213790
  -exchange      EXHF   =       560.75209253
  -V(xc)+E(xc)   XCENC  =       636.62061492
  PAW double counting   =     27278.12803283   -27379.72094268
  entropy T*S    EENTRO =        -0.00422495
  eigenvalues    EBANDS =     -3204.08384392
  atomic energy  EATOM  =     10357.77412991
  ---------------------------------------------------
  free energy    TOTEN  =      -595.60435815 eV

  energy without entropy =     -595.60013320  energy(sigma->0) =     -595.60224567
  exchange ACFDT corr.  =        -0.00239373  see jH, gK, PRB 81, 115126


--------------------------------------------------------------------------------------------------------




--------------------------------------- Iteration      1(  18)  ---------------------------------------


    POTLOK:  cpu time    1.3144: real time    1.3146
    SETDIJ:  cpu time    2.0752: real time    2.0752
    TRIAL :  cpu time  521.0390: real time  521.2059
    CORREC:  cpu time    0.0019: real time    0.0021
    CHARGE:  cpu time    1.6418: real time    1.6420
    --------------------------------------------
      LOOP:  cpu time  526.0744: real time  526.2419

 eigenvalue-minimisations  :     0
 total energy-change (2. order) :-0.4088121E-02  (-0.3833802E-02)
 number of electron     244.0000002 magnetization       3.9767608
 augmentation part       16.2809833 magnetization       2.4202866

 DIPCOR: dipole corrections for dipol
 direction  3 min pos     1,
 dipolmoment           0.000008     -0.000002      0.009032 electrons x Angstroem
 Tr[quadrupol]     -6493.266574

 energy correction for charged system         0.000000 eV
 dipol+quadrupol energy correction            0.000002 eV
 added-field ion interaction          0.000000 eV  (added to PSCEN)


 Free energy of the ion-electron system (eV)
  ---------------------------------------------------
  alpha Z        PSCENC =        97.77143613
  Ewald energy   TEWEN  =     39732.27067804
  -Hartree energ DENC   =    -48675.17965820
  -exchange      EXHF   =       560.77186409
  -V(xc)+E(xc)   XCENC  =       636.63027947
  PAW double counting   =     27280.11925390   -27381.72603619
  entropy T*S    EENTRO =        -0.00407148
  eigenvalues    EBANDS =     -3204.03616846
  atomic energy  EATOM  =     10357.77412991
  ---------------------------------------------------
[...]
  E(xc)    -722.71363  -721.91992  -736.51159    -0.28971     0.00088     0.01555
  Local  -99085.21557-99057.53610101034.48012   -97.21350    41.72532  -173.51241
  n-local  -128.34485  -130.86245  -116.77854    -0.25277    -0.04876    -0.08651
  augment   186.27928   181.71452   201.64570    -0.21615    -0.11544    -0.24476
  Kinetic  3623.03686  3613.11618  4122.09441    11.53166     0.27635    -0.32908
  Fock     -357.02582  -355.14731  -336.84210    -0.56260     0.05658     0.10384
  -------------------------------------------------------------------------------------
  Total     -41.52071   -42.14397    -0.36493     0.84242     0.02560    -0.00114
  in kB     -20.93990   -21.25422    -0.18404     0.42485     0.01291    -0.00058
  external pressure =      -14.13 kB  Pullay stress =        0.00 kB


 VOLUME and BASIS-vectors are now :
 -----------------------------------------------------------------------------
  energy-cutoff  :      500.00
  volume of cell :     3176.88
      direct lattice vectors                 reciprocal lattice vectors
    12.892570922  0.094601447  0.010846916     0.077568411 -0.000586758 -0.000067216
     0.092763096 12.263376100 -0.002235772    -0.000598387  0.081548143  0.000016445
     0.017382866 -0.003924801 20.094429104    -0.000041938  0.000009390  0.049765075

  length of vectors
    12.892922557 12.263727139 20.094437006     0.077570659  0.081550340  0.049765093


 FORCES acting on ions:
    Electron-Ion                     Ewald-Force                    Non-Local-Force
 -----------------------------------------------------------------------------------------------
   0.185E+01 0.672E+01 -.113E+01   -.212E+01 -.664E+01 0.113E+01   0.237E+00 -.334E-01 -.929E-02
   0.484E+01 0.541E+01 -.879E+00   -.494E+01 -.547E+01 0.881E+00   0.111E+00 0.944E-01 -.513E-02
   -.268E+01 0.817E+00 -.810E+00   0.266E+01 -.816E+00 0.807E+00   0.413E-01 -.167E-01 -.181E-03
   0.536E+00 0.120E+02 -.569E+00   -.554E+00 -.123E+02 0.563E+00   0.218E-01 0.270E+00 0.381E-02
   0.124E+02 0.133E+02 -.470E+00   -.128E+02 -.134E+02 0.473E+00   0.322E+00 0.134E+00 -.728E-02
   0.545E+01 0.336E+01 -.627E+00   -.573E+01 -.373E+01 0.624E+00   0.238E+00 0.358E+00 -.431E-04
   0.220E+01 0.747E+01 -.992E+00   -.248E+01 -.755E+01 0.993E+00   0.279E+00 0.413E-01 -.646E-02
   0.347E+02 0.115E+02 0.127E+01   -.373E+02 -.120E+02 -.125E+01   0.292E+01 0.290E+00 -.141E-01
   0.234E+02 0.164E+02 0.131E+01   -.251E+02 -.193E+02 -.129E+01   0.174E+01 0.304E+01 -.197E-01
   0.122E+01 -.722E+01 0.199E+00   -.131E+01 0.731E+01 -.206E+00   0.146E+00 -.116E+00 0.858E-02
   0.915E+01 0.708E+01 0.923E-01   -.963E+01 -.749E+01 -.847E-01   0.435E+00 0.401E+00 -.734E-02
   -.204E+01 -.411E+02 0.743E+00   0.684E+00 0.444E+02 -.726E+00   0.123E+01 -.338E+01 -.184E-01
   -.391E+01 -.298E+01 0.330E+00   0.385E+01 0.336E+01 -.329E+00   0.179E-01 -.260E+00 0.129E-02
   -.139E+01 -.997E+01 0.433E+00   0.134E+01 0.103E+02 -.431E+00   0.142E+00 -.350E+00 0.613E-03
   0.202E+02 0.106E+02 0.122E+00   -.224E+02 -.101E+02 -.126E+00   0.227E+01 -.340E+00 0.227E-02
   0.489E+01 0.107E+01 -.562E+00   -.506E+01 -.135E+01 0.564E+00   0.224E+00 0.278E+00 -.504E-02
   0.101E+01 0.456E+00 -.636E-01   -.105E+01 -.386E+00 0.660E-01   0.313E-01 -.417E-01 -.683E-03
   -.670E+01 -.512E+01 -.685E-01   0.645E+01 0.520E+01 0.662E-01   0.161E+00 -.129E+00 0.101E-02
   -.396E+00 -.332E+01 -.855E+00   0.419E+00 0.345E+01 0.850E+00   -.321E-02 -.162E+00 0.185E-02
   -.357E+01 -.619E-01 0.199E-01   0.355E+01 0.372E+00 -.251E-01   0.416E-03 -.275E+00 0.339E-02
   -.539E+01 0.137E+02 -.201E-02   0.571E+01 -.139E+02 0.292E-02   -.293E+00 0.101E+00 -.116E-02
   0.121E+01 0.693E+01 -.364E+00   -.802E+00 -.680E+01 0.368E+00   -.362E+00 -.789E-01 -.429E-02
   -.746E+00 0.829E+01 0.188E+00   0.558E+00 -.801E+01 -.182E+00   0.462E-01 -.182E+00 -.452E-02
   -.701E+01 0.166E+02 0.811E+00   0.725E+01 -.163E+02 -.819E+00   -.238E+00 -.475E+00 0.926E-02
   -.212E+02 0.372E+02 0.116E+01   0.233E+02 -.396E+02 -.113E+01   -.221E+01 0.254E+01 -.267E-01
   -.241E+02 0.670E+02 -.530E+00   0.252E+02 -.687E+02 0.528E+00   -.149E+01 0.250E+01 -.739E-02
   0.392E+02 -.318E+02 -.527E+00   -.410E+02 0.342E+02 0.519E+00   0.210E+01 -.257E+01 0.610E-02
   -.694E+01 -.292E+01 -.658E+00   0.737E+01 0.298E+01 0.658E+00   -.444E+00 -.123E+00 -.223E-02
   -.214E+02 -.166E+02 -.515E+00   0.222E+02 0.186E+02 0.517E+00   -.105E+01 -.215E+01 -.543E-02
   0.107E+02 -.787E+01 -.162E+00   -.109E+02 0.829E+01 0.167E+00   0.292E+00 -.394E+00 -.589E-02
   0.304E+01 -.562E+00 0.462E+00   -.312E+01 0.619E+00 -.457E+00   0.581E-01 -.318E-01 -.478E-03
   0.917E+00 0.190E+01 0.566E-01   -.900E+00 -.187E+01 -.559E-01   0.656E-01 -.147E+00 -.409E-03
   -.238E+00 -.239E+01 0.643E+00   0.340E+00 0.299E+01 -.644E+00   -.726E-01 -.413E+00 0.521E-02
   -.137E+01 0.188E+01 -.197E+00   0.120E+01 -.194E+01 0.195E+00   0.144E+00 0.270E-01 0.337E-02
   0.285E+01 0.725E+01 -.600E+00   -.307E+01 -.740E+01 0.604E+00   0.228E+00 0.120E+00 0.234E-03
   -.944E+01 0.228E+02 -.223E+01   0.884E+01 -.229E+02 0.224E+01   0.748E+00 -.739E-01 -.151E-01
   -.225E+01 0.113E+02 -.808E+00   0.192E+01 -.110E+02 0.809E+00   0.300E+00 -.205E+00 -.105E-04
   -.289E+01 0.935E+01 -.873E+00   0.286E+01 -.968E+01 0.873E+00   0.713E-01 0.311E+00 0.622E-03
   -.111E+02 0.124E+02 -.145E+01   0.111E+02 -.127E+02 0.144E+01   0.257E-01 0.326E+00 0.550E-02
   -.263E+02 0.524E+02 -.273E+01   0.273E+02 -.559E+02 0.270E+01   -.111E+01 0.357E+01 0.256E-01
   -.139E+02 0.415E+01 -.833E+00   0.139E+02 -.435E+01 0.844E+00   -.211E-01 0.128E+00 -.105E-01
   -.217E+02 -.103E+02 -.530E+00   0.220E+02 0.106E+02 0.524E+00   -.389E+00 -.279E+00 0.901E-02
   -.334E+02 -.324E+02 -.136E+01   0.361E+02 0.327E+02 0.137E+01   -.302E+01 -.223E+00 -.133E-01
   -.429E+02 -.401E+02 -.227E+01   0.447E+02 0.425E+02 0.225E+01   -.169E+01 -.292E+01 0.128E-01
   -.121E+02 -.780E+01 0.369E+00   0.123E+02 0.817E+01 -.371E+00   -.153E+00 -.342E+00 0.545E-02
   -.193E+01 -.896E+01 0.409E+00   0.232E+01 0.910E+01 -.405E+00   -.308E+00 -.112E+00 -.250E-02
   0.206E+01 -.162E+02 0.479E+00   -.208E+01 0.166E+02 -.482E+00   -.191E-01 -.486E+00 0.684E-02
   -.131E+02 -.175E+02 0.624E-01   0.135E+02 0.178E+02 -.629E-01   -.423E+00 -.270E+00 0.244E-02
   -.533E+01 -.628E+01 0.560E+00   0.527E+01 0.640E+01 -.562E+00   0.496E-01 -.170E+00 0.576E-02
   -.399E+02 -.357E+02 0.285E+01   0.598E+02 0.352E+02 -.292E+01   -.192E+02 0.540E+00 0.789E-01
   -.244E+02 -.105E+02 0.408E+01   0.359E+02 0.303E+02 -.426E+01   -.112E+02 -.192E+02 0.179E+00
   0.192E+02 0.752E+02 0.145E+01   -.264E+02 -.644E+02 -.151E+01   0.753E+01 -.111E+02 0.528E-01
   -.490E+02 0.859E+02 -.410E-01   0.644E+02 -.113E+03 0.199E-01   -.145E+02 0.252E+02 0.170E-01
   0.603E+02 -.206E+02 -.158E+01   -.711E+02 0.344E+00 0.161E+01   0.104E+02 0.194E+02 -.281E-01
   -.313E+02 0.268E+02 -.724E+01   0.107E+02 -.266E+02 0.751E+01   0.196E+02 -.739E-01 -.268E+00
   0.786E+02 -.101E+03 0.185E+02   -.772E+02 0.975E+02 -.182E+02   -.208E+01 0.408E+01 -.300E+00
   0.120E+03 -.136E+03 -.371E+01   -.118E+03 0.136E+03 0.373E+01   -.235E+01 0.216E+01 -.213E-02
 -----------------------------------------------------------------------------------------------
   0.108E+02 -.189E+02 0.362E+00   0.441E-12 0.398E-12 -.355E-14   -.104E+02 0.188E+02 -.343E+00
 
 
 POSITION                                       TOTAL-FORCE (eV/Angst)
 -----------------------------------------------------------------------------------
      2.94727     12.27525     10.04988        -0.014834      0.048687     -0.005573
      0.69103      1.24195     10.05034         0.022745      0.042322     -0.003389
      1.41984      0.01752     10.05081         0.019554     -0.019570     -0.003489
      3.56237      1.24219     10.04954         0.002255     -0.004916     -0.002925
      2.83674      2.46643     10.04713        -0.056080      0.045737     -0.004377
      0.70530      3.69519     10.04862        -0.025195      0.001958     -0.002777
      1.40783      2.46710     10.04975         0.012596     -0.031234     -0.006011
      3.55922      3.68070     10.03950         0.435997     -0.208578      0.000407
      2.85988      4.92609     10.03884         0.140965      0.324380      0.000769
      0.76570      6.15428     10.04534         0.067150     -0.048682      0.001864
      1.44424      4.91537     10.04461        -0.027561      0.021126     -0.000209
      2.95980      7.32350     10.04101        -0.064590     -0.340739     -0.002933
      0.81373      8.60563     10.04470        -0.036905      0.118904      0.002560
      1.52671      7.36992     10.04351         0.105057     -0.045674      0.003140
      3.72449      8.58394     10.04557         0.205493      0.146088     -0.001574
      2.96665      9.80776     10.04809         0.075952      0.008799     -0.003774
      0.80123     11.05402     10.04613        -0.000374      0.030656      0.001793
      1.53070      9.82674     10.04623        -0.087427     -0.063258     -0.001207
      3.67691     11.04266     10.05009         0.019702     -0.046161     -0.002365
      7.14092      0.06192     10.05247        -0.028484      0.017480     -0.001583
      4.99140      1.27153     10.04822         0.009258     -0.080320     -0.000337
      5.80936     12.30052     10.04947         0.037752      0.052233     -0.000980
      7.83413      1.33183     10.05176        -0.136156      0.083487      0.000570
      7.10931      2.57477     10.04764        -0.010996     -0.224948      0.002011
      5.66759      2.54832     10.04275        -0.214885      0.219042     -0.000146
      7.83783      3.84243     10.05194        -0.463909      0.951749     -0.010717
      7.27374      9.78317     10.05409         0.448948     -0.303860     -0.001400
      5.10873     11.04014     10.05068        -0.037834     -0.071928     -0.001944
      5.78700      9.75820     10.05094        -0.404960     -0.231571     -0.003376
      7.94593     11.07764     10.05259         0.066913      0.012685     -0.001224
     11.43197      0.11868     10.05619        -0.018972      0.025640      0.004131
      9.27373      1.35757     10.05488         0.088062     -0.126929      0.000245
      9.99458      0.12305     10.05440         0.023660      0.167469      0.005245
     12.14784      1.34775     10.05889        -0.028221     -0.030230      0.001634
     11.43204      2.58096     10.05997         0.028839     -0.022812      0.004526
      9.29243      3.85451     10.06164         0.190375     -0.125192     -0.004531
      9.99298      2.60464     10.05905        -0.018123      0.140862      0.001378
     12.16803      3.80201     10.06126         0.044890     -0.001333      0.000786
     11.48306      5.04405     10.06331         0.082350      0.034055     -0.002588
     10.04693      5.09175     10.06638        -0.131129      0.273929     -0.005587
     12.23816      6.25565     10.06058        -0.071894     -0.064215      0.000165
     11.55265      7.49511     10.06007        -0.087237      0.028622      0.003560
      9.39178      8.70634     10.05993        -0.500160      0.134869     -0.003435
     10.14523      7.48450     10.06470        -0.033490     -0.669395     -0.000329
     12.27821      8.71420     10.05610         0.034359      0.012556      0.003625
     11.54978      9.93054     10.05492         0.070759      0.019834      0.001636
      9.38003     11.13990     10.05260        -0.042795     -0.153747      0.004346
     10.11385      9.92574     10.05543        -0.044936      0.047967      0.002078
     12.25768     11.15892     10.05444        -0.013351     -0.054914      0.004606
      3.59737      6.10350     10.03500        -1.018908      0.075044      0.008275
      4.93712      3.71990     10.03442        -0.594777     -1.093979      0.019096
      7.17470      5.00281     10.04528         0.975994     -1.277889      0.002839
      5.09175      8.58095     10.04757        -0.312718      0.746511     -0.002581
      8.00911      8.61758     10.05774         0.450265      0.801444     -0.000903
      9.43622      6.31768     10.07097         0.681731      0.104060     -0.019460
      5.49083      5.65091     10.01897        -0.209598      0.293480      0.017927
      7.61853      6.68516     10.05586         0.394878      0.310399      0.002513
 -----------------------------------------------------------------------------------
    total drift:                               -0.016631      0.006173     -0.000009


--------------------------------------------------------------------------------------------------------



  FREE ENERGIE OF THE ION-ELECTRON SYSTEM (eV)
  ---------------------------------------------------
  free  energy   TOTEN  =      -595.68952014 eV

  energy  without entropy=     -595.68431516  energy(sigma->0) =     -595.68691765
 


--------------------------------------------------------------------------------------------------------


    POTLOK:  cpu time    3.3997: real time    3.4001


--------------------------------------------------------------------------------------------------------


 stress matrix after NEB project (eV)
    -41.52071      0.84275     -0.00114
      0.84242    -42.14397      0.02459
      0.00029      0.02560     -0.36493
  FORCES: max atom, RMS     1.607972    0.438985
  FORCE total and by dimension    3.314267    1.277889
  Stress total and by dimension   59.174637   42.143967
 writing wavefunctions
     LOOP+:  cpu time53315.8083: real time53327.8299
    4ORBIT:  cpu time    0.0000: real time    0.0000
 


 total charge     
 
# of ion       s       p       d       tot
------------------------------------------
    1        0.864   1.775   0.000   2.639
    2        0.867   1.772   0.000   2.639
    3        0.867   1.775   0.000   2.642
    4        0.870   1.772   0.000   2.642
    5        0.869   1.788   0.000   2.658
    6        0.866   1.784   0.000   2.650
    7        0.869   1.783   0.000   2.653
    8        0.865   1.762   0.000   2.627
    9        0.862   1.752   0.000   2.614
   10        0.870   1.780   0.000   2.650
   11        0.872   1.790   0.000   2.662
   12        0.854   1.712   0.000   2.565
   13        0.867   1.779   0.000   2.647
   14        0.864   1.768   0.000   2.632
   15        0.852   1.717   0.000   2.569
   16        0.865   1.762   0.000   2.628
   17        0.866   1.771   0.000   2.637
   18        0.866   1.775   0.000   2.641
   19        0.868   1.757   0.000   2.626
   20        0.860   1.759   0.000   2.619
   21        0.863   1.760   0.000   2.623
   22        0.863   1.759   0.000   2.622
   23        0.860   1.733   0.000   2.593
   24        0.855   1.750   0.000   2.605
   25        0.855   1.712   0.000   2.567
   26        0.858   1.717   0.000   2.575
   27        0.849   1.687   0.000   2.535
   28        0.861   1.749   0.000   2.610
   29        0.850   1.696   0.000   2.546
   30        0.859   1.744   0.000   2.602
   31        0.865   1.773   0.000   2.637
   32        0.861   1.757   0.000   2.617
   33        0.863   1.759   0.000   2.622
   34        0.867   1.768   0.000   2.634
   35        0.865   1.766   0.000   2.631
   36        0.856   1.755   0.000   2.611
   37        0.862   1.744   0.000   2.606
   38        0.868   1.775   0.000   2.643
   39        0.868   1.774   0.000   2.642
   40        0.856   1.723   0.000   2.579
   41        0.870   1.783   0.000   2.652
   42        0.874   1.803   0.000   2.677
   43        0.863   1.750   0.000   2.613
   44        0.869   1.767   0.000   2.636
   45        0.869   1.783   0.000   2.652
   46        0.867   1.783   0.000   2.649
   47        0.868   1.761   0.000   2.629
   48        0.869   1.780   0.000   2.650
   49        0.867   1.771   0.000   2.638
   50        1.230   2.674   0.000   3.904
   51        1.239   2.660   0.000   3.898
   52        1.251   2.620   0.000   3.871
   53        1.249   2.605   0.000   3.853
   54        1.234   2.624   0.000   3.858
   55        1.236   2.680   0.000   3.916
   56        0.445   0.544   6.145   7.134
   57        0.490   0.612   8.513   9.615
--------------------------------------------------
tot         50.692 103.234  14.658 168.584
 


 magnetization (x)
 
# of ion       s       p       d       tot
------------------------------------------
    1        0.000   0.008   0.000   0.008
    2       -0.000   0.000   0.000  -0.000
    3        0.001   0.014   0.000   0.015
    4       -0.000  -0.004   0.000  -0.004
    5       -0.000  -0.001   0.000  -0.001
    6       -0.000   0.003   0.000   0.003
    7        0.001   0.009   0.000   0.010
    8        0.000   0.015   0.000   0.015
    9        0.001   0.009   0.000   0.010
   10        0.000   0.008   0.000   0.009
   11       -0.000   0.001   0.000   0.001
   12        0.000   0.009   0.000   0.009
   13        0.000   0.004   0.000   0.004
   14        0.001   0.011   0.000   0.011
   15        0.000   0.017   0.000   0.017
   16       -0.000  -0.002   0.000  -0.003
   17       -0.000  -0.001   0.000  -0.001
   18        0.001   0.013   0.000   0.013
   19       -0.000  -0.003   0.000  -0.003
   20        0.001   0.022   0.000   0.024
   21        0.001   0.010   0.000   0.011
   22        0.000   0.003   0.000   0.003
   23       -0.000  -0.003   0.000  -0.004
   24        0.002   0.017   0.000   0.019
   25       -0.001  -0.018   0.000  -0.019
   26        0.000   0.002   0.000   0.002
   27        0.001   0.013   0.000   0.013
   28        0.000   0.003   0.000   0.004
   29       -0.000   0.000   0.000   0.000
   30       -0.001  -0.003   0.000  -0.004
   31        0.000   0.008   0.000   0.009
   32        0.000   0.001   0.000   0.001
   33        0.000   0.003   0.000   0.003
   34        0.000   0.003   0.000   0.003
   35        0.000   0.006   0.000   0.007
   36        0.002   0.017   0.000   0.019
   37       -0.000  -0.003   0.000  -0.003
   38        0.000   0.005   0.000   0.005
   39       -0.000   0.002   0.000   0.002
   40       -0.000   0.002   0.000   0.002
   41        0.000   0.009   0.000   0.010
   42       -0.000   0.006   0.000   0.006
   43        0.000   0.018   0.000   0.018
   44        0.000   0.011   0.000   0.011
   45        0.000   0.008   0.000   0.008
   46        0.000   0.005   0.000   0.005
   47        0.000   0.006   0.000   0.007
   48       -0.000  -0.002   0.000  -0.002
   49        0.000   0.004   0.000   0.004
   50       -0.000   0.061   0.000   0.061
   51        0.016   0.085   0.000   0.102
   52        0.001   0.050   0.000   0.051
   53        0.004   0.043   0.000   0.047
   54        0.001   0.024   0.000   0.025
   55       -0.006   0.020   0.000   0.014
   56        0.064   0.030   3.208   3.303
   57       -0.020  -0.030  -0.377  -0.427
--------------------------------------------------
tot          0.071   0.551   2.831   3.453
 

 total amount of memory used by VASP MPI-rank0   175397. kBytes
=======================================================================

   base      :      30000. kBytes
   nonl-proj :       5273. kBytes
   fftplans  :      13453. kBytes
   grid      :      34560. kBytes
   one-center:         62. kBytes
   HF        :         23. kBytes
   nonlr-proj:      15217. kBytes
   wavefun   :      76809. kBytes
 
  
  
 General timing and accounting informations for this job:
 ========================================================
  
                  Total CPU time used (sec):    53404.754
                            User time (sec):    53338.681
                          System time (sec):       66.074
                         Elapsed time (sec):    53418.473
  
                   Maximum memory used (kb):      420768.
                   Average memory used (kb):           0.
  
                          Minor page faults:       553742
                          Major page faults:            2
                 Voluntary context switches:         1360
