 vasp.5.4.4.18Apr17-6-g9f103f2a35 (build Feb 25 2019 10:51:38) complex          
  
 executed on             LinuxIFC date 2021.06.16  04:24:31
 running on   48 total cores
 distrk:  each k-point on   16 cores,    3 groups
 distr:  one band on NCORES_PER_BAND=  16 cores,    1 groups


--------------------------------------------------------------------------------------------------------


 INCAR:
 POTCAR:    PAW_PBE C 08Apr2002                   
 POTCAR:    PAW_PBE N 08Apr2002                   
 POTCAR:    PAW_PBE Fe 06Sep2000                  
 POTCAR:    PAW_PBE V 08Apr2002                   

 ----------------------------------------------------------------------------- 
|                                                                             |
|           W    W    AA    RRRRR   N    N  II  N    N   GGGG   !!!           |
|           W    W   A  A   R    R  NN   N  II  NN   N  G    G  !!!           |
|           W    W  A    A  R    R  N N  N  II  N N  N  G       !!!           |
|           W WW W  AAAAAA  RRRRR   N  N N  II  N  N N  G  GGG   !            |
|           WW  WW  A    A  R   R   N   NN  II  N   NN  G    G                |
|           W    W  A    A  R    R  N    N  II  N    N   GGGG   !!!           |
|                                                                             |
|      For optimal performance we recommend to set                            |
|        NCORE= 4 - approx SQRT( number of cores)                             |
|      NCORE specifies how many cores store one orbital (NPAR=cpu/NCORE).     |
|      This setting can  greatly improve the performance of VASP for DFT.     |
|      The default,   NCORE=1            might be grossly inefficient         |
|      on modern multi-core architectures or massively parallel machines.     |
|      Do your own testing !!!!                                               |
|      Unfortunately you need to use the default for GW and RPA calculations. |
|      (for HF NCORE is supported but not extensively tested yet)             |
|                                                                             |
 ----------------------------------------------------------------------------- 


 ----------------------------------------------------------------------------- 
|                                                                             |
|           W    W    AA    RRRRR   N    N  II  N    N   GGGG   !!!           |
|           W    W   A  A   R    R  NN   N  II  NN   N  G    G  !!!           |
|           W    W  A    A  R    R  N N  N  II  N N  N  G       !!!           |
|           W WW W  AAAAAA  RRRRR   N  N N  II  N  N N  G  GGG   !            |
|           WW  WW  A    A  R   R   N   NN  II  N   NN  G    G                |
|           W    W  A    A  R    R  N    N  II  N    N   GGGG   !!!           |
|                                                                             |
|      You have enabled k-point parallelism (KPAR>1).                         |
|      This developmental code was originally  written by Paul Kent at ORNL,  |
|      and carefully double checked in Vienna.                                |
|      GW as well as linear response parallelism added by Martijn Marsman     |
|      and Georg Kresse.                                                      |
|      Carefully verify results versus KPAR=1.                                |
|      Report problems to Paul Kent and Vienna.                               |
|                                                                             |
 ----------------------------------------------------------------------------- 

 POTCAR:    PAW_PBE C 08Apr2002                   
   VRHFIN =C: s2p2                                                              
   LEXCH  = PE                                                                  
   EATOM  =   147.1560 eV,   10.8157 Ry                                         
                                                                                
   TITEL  = PAW_PBE C 08Apr2002                                                 
   LULTRA =        F    use ultrasoft PP ?                                      
   IUNSCR =        1    unscreen: 0-lin 1-nonlin 2-no                           
   RPACOR =    1.200    partial core radius                                     
   POMASS =   12.011; ZVAL   =    4.000    mass and valenz                      
   RCORE  =    1.500    outmost cutoff radius                                   
   RWIGS  =    1.630; RWIGS  =    0.863    wigner-seitz radius (au A)           
   ENMAX  =  400.000; ENMIN  =  300.000 eV                                      
   ICORE  =        2    local potential                                         
   LCOR   =        T    correct aug charges                                     
   LPAW   =        T    paw PP                                                  
   EAUG   =  644.873                                                            
   DEXC   =    0.000                                                            
   RMAX   =    1.529    core radius for proj-oper                               
   RAUG   =    1.300    factor for augmentation sphere                          
   RDEP   =    1.501    radius for radial grids                                 
   RDEPT  =    1.300    core radius for aug-charge                              
                                                                                
   Atomic configuration                                                         
    4 entries                                                                   
     n  l   j            E        occ.                                          
     1  0  0.50      -273.3789   2.0000                                         
     2  0  0.50       -13.7508   2.0000                                         
     2  1  0.50        -5.2854   2.0000                                         
     3  2  1.50        -5.4423   0.0000                                         
   Description                                                                  
     l       E           TYP  RCUT    TYP  RCUT                                 
     0    -13.7508458     23  1.200                                             
     0     -8.2022199     23  1.200                                             
     1     -5.2854383     23  1.500                                             
     1     34.0145650     23  1.500                                             
     2     -5.4423304      7  1.500                                             
  local pseudopotential read in
  partial core-charges read in
  partial kinetic energy density read in
  atomic valenz-charges read in
  non local Contribution for L=           0  read in
    real space projection operators read in
  non local Contribution for L=           0  read in
    real space projection operators read in
  non local Contribution for L=           1  read in
    real space projection operators read in
  non local Contribution for L=           1  read in
    real space projection operators read in
    PAW grid and wavefunctions read in
 
   number of l-projection  operators is LMAX  =           4
   number of lm-projection operators is LMMAX =           8
 
 POTCAR:    PAW_PBE N 08Apr2002                   
   VRHFIN =N: s2p3                                                              
   LEXCH  = PE                                                                  
   EATOM  =   264.5486 eV,   19.4438 Ry                                         
                                                                                
   TITEL  = PAW_PBE N 08Apr2002                                                 
   LULTRA =        F    use ultrasoft PP ?                                      
   IUNSCR =        1    unscreen: 0-lin 1-nonlin 2-no                           
   RPACOR =    1.200    partial core radius                                     
   POMASS =   14.001; ZVAL   =    5.000    mass and valenz                      
   RCORE  =    1.500    outmost cutoff radius                                   
   RWIGS  =    1.400; RWIGS  =    0.741    wigner-seitz radius (au A)           
   ENMAX  =  400.000; ENMIN  =  300.000 eV                                      
   ICORE  =        2    local potential                                         
   LCOR   =        T    correct aug charges                                     
   LPAW   =        T    paw PP                                                  
   EAUG   =  627.112                                                            
   DEXC   =    0.000                                                            
   RMAX   =    1.529    core radius for proj-oper                               
   RAUG   =    1.300    factor for augmentation sphere                          
   RDEP   =    1.514    radius for radial grids                                 
   RDEPT  =    1.338    core radius for aug-charge                              
                                                                                
   Atomic configuration                                                         
    4 entries                                                                   
     n  l   j            E        occ.                                          
     1  0  0.50      -384.7179   2.0000                                         
     2  0  0.50       -18.5828   2.0000                                         
     2  1  0.50        -7.0898   3.0000                                         
     3  2  1.50        -6.8029   0.0000                                         
   Description                                                                  
     l       E           TYP  RCUT    TYP  RCUT                                 
     0    -18.5828119     23  1.200                                             
     0    -13.5018863     23  1.200                                             
     1     -7.0897853     23  1.500                                             
     1      9.5240782     23  1.500                                             
     2     -6.8029130      7  1.500                                             
  local pseudopotential read in
  partial core-charges read in
  partial kinetic energy density read in
  atomic valenz-charges read in
  non local Contribution for L=           0  read in
    real space projection operators read in
  non local Contribution for L=           0  read in
    real space projection operators read in
  non local Contribution for L=           1  read in
    real space projection operators read in
  non local Contribution for L=           1  read in
    real space projection operators read in
    PAW grid and wavefunctions read in
 
   number of l-projection  operators is LMAX  =           4
   number of lm-projection operators is LMMAX =           8
 
 POTCAR:    PAW_PBE Fe 06Sep2000                  
   VRHFIN =Fe:  d7 s1                                                           
   LEXCH  = PE                                                                  
   EATOM  =   594.3153 eV,   43.6809 Ry                                         
                                                                                
   TITEL  = PAW_PBE Fe 06Sep2000                                                
   LULTRA =        F    use ultrasoft PP ?                                      
   IUNSCR =        1    unscreen: 0-lin 1-nonlin 2-no                           
   RPACOR =    2.000    partial core radius                                     
   POMASS =   55.847; ZVAL   =    8.000    mass and valenz                      
   RCORE  =    2.300    outmost cutoff radius                                   
   RWIGS  =    2.460; RWIGS  =    1.302    wigner-seitz radius (au A)           
   ENMAX  =  267.882; ENMIN  =  200.911 eV                                      
   RCLOC  =    1.701    cutoff for local pot                                    
   LCOR   =        T    correct aug charges                                     
   LPAW   =        T    paw PP                                                  
   EAUG   =  511.368                                                            
   DEXC   =    0.000                                                            
   RMAX   =    2.356    core radius for proj-oper                               
   RAUG   =    1.300    factor for augmentation sphere                          
   RDEP   =    2.442    radius for radial grids                                 
   RDEPT  =    1.890    core radius for aug-charge                              
                                                                                
   Atomic configuration                                                         
    9 entries                                                                   
     n  l   j            E        occ.                                          
     1  0  0.50     -6993.8440   2.0000                                         
     2  0  0.50      -814.6047   2.0000                                         
     2  1  1.50      -693.3689   6.0000                                         
     3  0  0.50       -89.4732   2.0000                                         
     3  1  1.50       -55.6373   6.0000                                         
     3  2  2.50        -3.8151   7.0000                                         
     4  0  0.50        -4.2551   1.0000                                         
     4  1  1.50        -3.4015   0.0000                                         
     4  3  2.50        -1.3606   0.0000                                         
   Description                                                                  
     l       E           TYP  RCUT    TYP  RCUT                                 
     2     -3.8151135     23  2.300                                             
     2     -5.1756961     23  2.300                                             
     0     -4.2550963     23  2.300                                             
     0      7.2035603     23  2.300                                             
     1     -2.7211652     23  2.300                                             
     1     18.4316424     23  2.300                                             
  local pseudopotential read in
  partial core-charges read in
  partial kinetic energy density read in
  atomic valenz-charges read in
  non local Contribution for L=           2  read in
    real space projection operators read in
  non local Contribution for L=           2  read in
    real space projection operators read in
  non local Contribution for L=           0  read in
    real space projection operators read in
  non local Contribution for L=           0  read in
    real space projection operators read in
  non local Contribution for L=           1  read in
    real space projection operators read in
  non local Contribution for L=           1  read in
    real space projection operators read in
    PAW grid and wavefunctions read in
 
   number of l-projection  operators is LMAX  =           6
   number of lm-projection operators is LMMAX =          18
 
 POTCAR:    PAW_PBE V 08Apr2002                   
   VRHFIN =V: p6 d4 s1                                                          
   LEXCH  = PE                                                                  
   EATOM  =   170.8679 eV,   12.5584 Ry                                         
                                                                                
   TITEL  = PAW_PBE V 08Apr2002                                                 
   LULTRA =        F    use ultrasoft PP ?                                      
   IUNSCR =        1    unscreen: 0-lin 1-nonlin 2-no                           
   RPACOR =    2.000    partial core radius                                     
   POMASS =   50.941; ZVAL   =    5.000    mass and valenz                      
   RCORE  =    2.700    outmost cutoff radius                                   
   RWIGS  =    2.500; RWIGS  =    1.323    wigner-seitz radius (au A)           
   ENMAX  =  192.543; ENMIN  =  144.408 eV                                      
   RCLOC  =    1.779    cutoff for local pot                                    
   LCOR   =        T    correct aug charges                                     
   LPAW   =        T    paw PP                                                  
   EAUG   =  358.662                                                            
   DEXC   =    0.000                                                            
   RMAX   =    2.768    core radius for proj-oper                               
   RAUG   =    1.300    factor for augmentation sphere                          
   RDEP   =    2.762    radius for radial grids                                 
   RDEPT  =    2.240    core radius for aug-charge                              
                                                                                
   Atomic configuration                                                         
    9 entries                                                                   
     n  l   j            E        occ.                                          
     1  0  0.50     -5360.7193   2.0000                                         
     2  0  0.50      -598.4546   2.0000                                         
     2  1  1.50      -499.0155   6.0000                                         
     3  0  0.50       -66.5711   2.0000                                         
     3  1  1.50       -40.5282   6.0000                                         
     3  2  2.50        -2.4291   4.0000                                         
     4  0  0.50        -3.8743   1.0000                                         
     4  1  0.50        -2.7212   0.0000                                         
     4  3  2.50        -1.3606   0.0000                                         
   Description                                                                  
     l       E           TYP  RCUT    TYP  RCUT                                 
     2     -2.4290901     23  2.700                                             
     2     -3.7896727     23  2.700                                             
     0     -3.8742752     23  2.700                                             
     0     27.2116520     23  2.700                                             
     1     -2.7211652     23  2.700                                             
     1     27.2116520     23  2.700                                             
  local pseudopotential read in
  partial core-charges read in
  partial kinetic energy density read in
  atomic valenz-charges read in
  non local Contribution for L=           2  read in
    real space projection operators read in
  non local Contribution for L=           2  read in
    real space projection operators read in
  non local Contribution for L=           0  read in
    real space projection operators read in
  non local Contribution for L=           0  read in
    real space projection operators read in
  non local Contribution for L=           1  read in
    real space projection operators read in
  non local Contribution for L=           1  read in
    real space projection operators read in
    PAW grid and wavefunctions read in
 
   number of l-projection  operators is LMAX  =           6
   number of lm-projection operators is LMMAX =          18
 

 ----------------------------------------------------------------------------- 
|                                                                             |
|  ADVICE TO THIS USER RUNNING 'VASP/VAMP'   (HEAR YOUR MASTER'S VOICE ...):  |
|                                                                             |
|      You have a (more or less) 'large supercell' and for larger cells       |
|      it might be more efficient to use real space projection opertators     |
|      So try LREAL= Auto  in the INCAR   file.                               |
|      Mind:          For very  accurate calculation you might also keep the  |
|      reciprocal projection scheme          (i.e. LREAL=.FALSE.)             |
|                                                                             |
 ----------------------------------------------------------------------------- 

  PAW_PBE C 08Apr2002                   :
 energy of atom  1       EATOM= -147.1560
 kinetic energy error for atom=    0.0076 (will be added to EATOM!!)
  PAW_PBE N 08Apr2002                   :
 energy of atom  2       EATOM= -264.5486
 kinetic energy error for atom=    0.0138 (will be added to EATOM!!)
  PAW_PBE Fe 06Sep2000                  :
 energy of atom  3       EATOM= -594.3153
 kinetic energy error for atom=    0.0026 (will be added to EATOM!!)
  PAW_PBE V 08Apr2002                   :
 energy of atom  4       EATOM= -170.8679
 kinetic energy error for atom=    0.0003 (will be added to EATOM!!)
 
 
 POSCAR:  C  N Fe  V                             
  positions in cartesian coordinates
  No initial velocities read in
 exchange correlation table for  LEXCH =        8
   RHO(1)=    0.500       N(1)  =     2000
   RHO(2)=  100.500       N(2)  =     4000

 VTST: version 3.2, (02/03/18)

 CHAIN: initializing optimizer
 
 OPT: Using VASP Conjugate-Gradient optimizer
 CHAIN: Read ICHAIN            0
 
 POSCAR:  C  N Fe  V                             
  positions in cartesian coordinates
  No initial velocities read in
 


--------------------------------------------------------------------------------------------------------


 ion  position               nearest neighbor table
   1  0.221  0.003  0.497-  19 1.43   3 1.43   4 1.44
   2  0.056  0.102  0.493-   3 1.42   7 1.44  38 1.44
   3  0.110  0.002  0.494-   2 1.42  17 1.43   1 1.43
   4  0.277  0.103  0.499-  21 1.43   1 1.44   5 1.44
   5  0.224  0.205  0.500-   4 1.44   7 1.44   8 1.45
   6  0.056  0.301  0.494-   7 1.43  11 1.43  42 1.43
   7  0.112  0.203  0.496-   6 1.43   2 1.44   5 1.44
   8  0.280  0.307  0.507-   5 1.45  25 1.46   9 1.47
   9  0.221  0.407  0.507-  55 1.38  11 1.44   8 1.47
  10  0.054  0.501  0.495-  46 1.42  14 1.43  11 1.43
  11  0.111  0.403  0.497-   6 1.43  10 1.43   9 1.44
  12  0.217  0.602  0.507-  55 1.38  14 1.42  15 1.44
  13  0.053  0.702  0.493-  18 1.42  50 1.43  14 1.43
  14  0.108  0.603  0.497-  12 1.42  10 1.43  13 1.43
  15  0.272  0.704  0.509-  58 1.39  16 1.42  12 1.44
  16  0.218  0.803  0.499-  15 1.42  18 1.43  19 1.43
  17  0.053  0.902  0.492-  18 1.43   3 1.43  54 1.43
  18  0.108  0.802  0.493-  13 1.42  17 1.43  16 1.43
  19  0.275  0.903  0.499-   1 1.43  16 1.43  32 1.43
  20  0.554  0.998  0.499-  22 1.43  23 1.43  34 1.44
  21  0.388  0.101  0.499-  26 1.43   4 1.43  22 1.44
  22  0.443  0.000  0.499-  32 1.43  20 1.43  21 1.44
  23  0.611  0.098  0.496-  24 1.43  36 1.43  20 1.43
  24  0.556  0.198  0.499-  23 1.43  27 1.43  26 1.43
  25  0.393  0.302  0.509-  56 1.38  26 1.44   8 1.46
  26  0.445  0.200  0.501-  21 1.43  24 1.43  25 1.44
  27  0.613  0.298  0.499-  28 1.42  40 1.43  24 1.43
  28  0.558  0.396  0.508-  56 1.38  27 1.42  29 1.44
  29  0.615  0.497  0.508-  57 1.39  44 1.42  28 1.44
  30  0.611  0.695  0.507-  57 1.40  48 1.43  31 1.46
  31  0.551  0.795  0.507-  34 1.46  33 1.46  30 1.46
  32  0.386  0.901  0.502-  22 1.43  33 1.43  19 1.43
  33  0.438  0.801  0.509-  58 1.40  32 1.43  31 1.46
  34  0.608  0.896  0.500-  20 1.44  52 1.44  31 1.46
  35  0.887  0.000  0.491-  54 1.43  38 1.43  37 1.44
  36  0.722  0.099  0.494-  37 1.42  41 1.43  23 1.43
  37  0.776  0.999  0.493-  36 1.42  52 1.44  35 1.44
  38  0.944  0.100  0.491-  39 1.42  35 1.43   2 1.44
  39  0.889  0.200  0.491-  38 1.42  42 1.43  41 1.43
  40  0.723  0.298  0.494-  45 1.42  41 1.43  27 1.43
  41  0.778  0.199  0.492-  40 1.43  36 1.43  39 1.43
  42  0.945  0.300  0.491-  43 1.43  39 1.43   6 1.43
  43  0.889  0.399  0.491-  46 1.42  45 1.43  42 1.43
  44  0.723  0.497  0.498-  29 1.42  45 1.43  49 1.43
  45  0.779  0.398  0.493-  40 1.42  44 1.43  43 1.43
  46  0.944  0.500  0.492-  10 1.42  43 1.42  47 1.43
  47  0.888  0.600  0.492-  49 1.42  50 1.43  46 1.43
  48  0.721  0.698  0.498-  30 1.43  53 1.43  49 1.44
  49  0.778  0.599  0.496-  47 1.42  44 1.43  48 1.44
  50  0.942  0.701  0.491-  13 1.43  47 1.43  51 1.43
  51  0.887  0.800  0.491-  50 1.43  54 1.43  53 1.43
  52  0.719  0.898  0.496-  53 1.43  37 1.44  34 1.44
  53  0.776  0.799  0.494-  52 1.43  48 1.43  51 1.43
  54  0.942  0.901  0.491-  35 1.43  51 1.43  17 1.43
  55  0.268  0.506  0.518-   9 1.38  12 1.38  59 1.95
  56  0.452  0.394  0.520-  28 1.38  25 1.38  59 1.95
  57  0.565  0.595  0.519-  29 1.39  30 1.40  60 1.92
  58  0.378  0.708  0.522-  15 1.39  33 1.40  60 1.92
  59  0.383  0.496  0.580-  60 1.78  55 1.95  56 1.95
  60  0.454  0.620  0.582-  59 1.78  58 1.92  57 1.92
 
  LATTYP: Found a triclinic cell.
 ALAT       =    12.3607000000
 B/A-ratio  =     1.6116482076
 C/A-ratio  =     1.0438971903
 COS(alpha) =     0.0018395760
 COS(beta)  =     0.0100773605
 COS(gamma) =     0.0126550446
  
  Lattice vectors:
  
 A1 = (  -0.1245632303,  12.3600723498,   0.0000000000)
 A2 = (  -0.0366463773,   0.2517458933, -19.9194755518)
 A3 = ( -12.9033000000,   0.0000000000,   0.0000000000)


Analysis of symmetry for initial positions (statically):
=====================================================================
 Subroutine PRICEL returns:
 Original cell was already a primitive cell.
 

 Routine SETGRP: Setting up the symmetry group for a 
 triclinic supercell.


 Subroutine GETGRP returns: Found  1 space group operations
 (whereof  1 operations were pure point group operations)
 out of a pool of  2 trial point group operations.


The static configuration has the point symmetry C_1 .


Analysis of symmetry for dynamics (positions and initial velocities):
=====================================================================
 Subroutine PRICEL returns:
 Original cell was already a primitive cell.
 

 Routine SETGRP: Setting up the symmetry group for a 
 triclinic supercell.


 Subroutine GETGRP returns: Found  1 space group operations
 (whereof  1 operations were pure point group operations)
 out of a pool of  2 trial point group operations.


The dynamic configuration has the point symmetry C_1 .


Analysis of structural, dynamic, and magnetic symmetry:
=====================================================================
 Subroutine PRICEL returns:
 Original cell was already a primitive cell.
 

 Routine SETGRP: Setting up the symmetry group for a 
 triclinic supercell.


 Subroutine GETGRP returns: Found  1 space group operations
 (whereof  1 operations were pure point group operations)
 out of a pool of  2 trial point group operations.


The magnetic configuration has the point symmetry C_1 .


 Subroutine INISYM returns: Found  1 space group operations
 (whereof  1 operations are pure point group operations),
 and found     1 'primitive' translations

 
 
 KPOINTS: KPOINTS created by Atomic Simulation Env

Automatic generation of k-mesh.
Space group operators:
 irot       det(A)        alpha          n_x          n_y          n_z        tau_x        tau_y        tau_z
    1     1.000000     0.000001     1.000000     0.000000     0.000000     0.000000     0.000000     0.000000
 
 Subroutine IBZKPT returns following result:
 ===========================================
 
 Found      2 irreducible k-points:
 
 Following reciprocal coordinates:
            Coordinates               Weight
  0.250000  0.250000 -0.000000      2.000000
 -0.250000  0.250000 -0.000000      2.000000
 
 Following cartesian coordinates:
            Coordinates               Weight
  0.019375  0.020422  0.000222      2.000000
 -0.019375  0.020031  0.000289      2.000000
 
 
 Subroutine IBZKPT_HF returns following result:
 ==============================================
 
 Found      4 k-points in 1st BZ
 the following      4 k-points will be used (e.g. in the exchange kernel)
 Following reciprocal coordinates:   # in IRBZ
  0.250000  0.250000 -0.000000    0.25000000   1 t-inv F
 -0.250000  0.250000 -0.000000    0.25000000   2 t-inv F
 -0.250000 -0.250000  0.000000    0.25000000   1 t-inv T
  0.250000 -0.250000  0.000000    0.25000000   2 t-inv T


--------------------------------------------------------------------------------------------------------




 Dimension of arrays:
   k-points           NKPTS =      2   k-points in BZ     NKDIM =      4   number of bands    NBANDS=    159
   number of dos      NEDOS =    301   number of ions     NIONS =     60
   non local maximal  LDIM  =      6   non local SUM 2l+1 LMDIM =     18
   total plane-waves  NPLWV = ******
   max r-space proj   IRMAX =      1   max aug-charges    IRDMAX=  24936
   dimension x,y,z NGX =    96 NGY =   90 NGZ =  150
   dimension x,y,z NGXF=   192 NGYF=  180 NGZF=  300
   support grid    NGXF=   192 NGYF=  180 NGZF=  300
   ions per type =              54   4   1   1
   NGX,Y,Z   is equivalent  to a cutoff of  12.37, 12.10, 12.52 a.u.
   NGXF,Y,Z  is equivalent  to a cutoff of  24.74, 24.21, 25.04 a.u.

 SYSTEM =  unknown system                          
 POSCAR =   C  N Fe  V                             

 Startparameter for this run:
   NWRITE =      2    write-flag & timer
   PREC   = accura    normal or accurate (medium, high low for compatibility)
   ISTART =      1    job   : 0-new  1-cont  2-samecut
   ICHARG =      0    charge: 1-file 2-atom 10-const
   ISPIN  =      2    spin polarized calculation?
   LNONCOLLINEAR =      F non collinear calculations
   LSORBIT =      F    spin-orbit coupling
   INIWAV =      1    electr: 0-lowe 1-rand  2-diag
   LASPH  =      T    aspherical Exc in radial PAW
   METAGGA=      F    non-selfconsistent MetaGGA calc.

 Electronic Relaxation 1
   ENCUT  =  500.0 eV  36.75 Ry    6.06 a.u.  23.53 22.54 36.32*2*pi/ulx,y,z
   ENINI  =  500.0     initial cutoff
   ENAUG  =  644.9 eV  augmentation charge cutoff
   NELM   =    250;   NELMIN=  2; NELMDL=  0     # of ELM steps 
   EDIFF  = 0.1E-03   stopping-criterion for ELM
   LREAL  =      F    real-space projection
   NLSPLINE    = F    spline interpolate recip. space projectors
   LCOMPAT=      F    compatible to vasp.4.4
   GGA_COMPAT  = T    GGA compatible to vasp.4.4-vasp.4.6
   LMAXPAW     = -100 max onsite density
   LMAXMIX     =    2 max onsite mixed and CHGCAR
   VOSKOWN=      0    Vosko Wilk Nusair interpolation
   ROPT   =    0.00000   0.00000   0.00000   0.00000
 Ionic relaxation
   EDIFFG = -.3E-01   stopping-criterion for IOM
   NSW    =      0    number of steps for IOM
   NBLOCK =      1;   KBLOCK =      1    inner block; outer block 
   IBRION =     -1    ionic relax: 0-MD 1-quasi-New 2-CG
   NFREE  =      1    steps in history (QN), initial steepest desc. (CG)
   ISIF   =      2    stress and relaxation
   IWAVPR =     10    prediction:  0-non 1-charg 2-wave 3-comb
   ISYM   =      3    0-nonsym 1-usesym 2-fastsym
   LCORR  =      T    Harris-Foulkes like correction to forces

   POTIM  = 0.5000    time-step for ionic-motion
   TEIN   =    0.0    initial temperature
   TEBEG  =    0.0;   TEEND  =   0.0 temperature during run
   SMASS  =  -3.00    Nose mass-parameter (am)
   estimated Nose-frequenzy (Omega)   =  0.10E-29 period in steps =****** mass=  -0.380E-26a.u.
   SCALEE = 1.0000    scale energy and forces
   NPACO  =    256;   APACO  = 16.0  distance and # of slots for P.C.
   PSTRESS=    0.0 pullay stress

  Mass of Ions in am
   POMASS =  12.01 14.00 55.85 50.94
  Ionic Valenz
   ZVAL   =   4.00  5.00  8.00  5.00
  Atomic Wigner-Seitz radii
   RWIGS  =  -1.00 -1.00 -1.00 -1.00
  virtual crystal weights 
   VCA    =   1.00  1.00  1.00  1.00
   NELECT =     249.0000    total number of electrons
   NUPDOWN=      -1.0000    fix difference up-down

 DOS related values:
   EMIN   =  10.00;   EMAX   =-10.00  energy-range for DOS
   EFERMI =   0.00
   ISMEAR =     0;   SIGMA  =   0.10  broadening in eV -4-tet -1-fermi 0-gaus

 Electronic relaxation 2 (details)
   IALGO  =     53    algorithm
   LDIAG  =      T    sub-space diagonalisation (order eigenvalues)
   LSUBROT=      F    optimize rotation matrix (better conditioning)
   TURBO    =      0    0=normal 1=particle mesh
   IRESTART =      0    0=no restart 2=restart with 2 vectors
   NREBOOT  =      0    no. of reboots
   NMIN     =      0    reboot dimension
   EREF     =   0.00    reference energy to select bands
   IMIX   =      4    mixing-type and parameters
     AMIX     =   0.40;   BMIX     =  1.00
     AMIX_MAG =   1.60;   BMIX_MAG =  1.00
     AMIN     =   0.10
     WC   =   100.;   INIMIX=   1;  MIXPRE=   1;  MAXMIX= -45

 Intra band minimization:
   WEIMIN = 0.0000     energy-eigenvalue tresh-hold
   EBREAK =  0.16E-06  absolut break condition
   DEPER  =   0.30     relativ break condition  

   TIME   =   0.20     timestep for ELM

  volume/ion in A,a.u.               =      52.95       357.31
  Fermi-wavevector in a.u.,A,eV,Ry     =   0.700607  1.323956  6.678429  0.490851
  Thomas-Fermi vector in A             =   1.784807
 
 Write flags
   LWAVE        =      T    write WAVECAR
   LDOWNSAMPLE  =      F    k-point downsampling of WAVECAR
   LCHARG       =      T    write CHGCAR
   LVTOT        =      F    write LOCPOT, total local potential
   LVHAR        =      F    write LOCPOT, Hartree potential only
   LELF         =      F    write electronic localiz. function (ELF)
   LORBIT       =     11    0 simple, 1 ext, 2 COOP (PROOUT), +10 PAW based schemes


 Dipole corrections
   LMONO  =      F    monopole corrections only (constant potential shift)
   LDIPOL =      T    correct potential (dipole corrections)
   IDIPOL =      3    1-x, 2-y, 3-z, 4-all directions 
   EPSILON=  1.0000000 bulk dielectric constant

 Exchange correlation treatment:
   GGA     =    PE    GGA type
   LEXCH   =     8    internal setting for exchange type
   VOSKOWN=      0    Vosko Wilk Nusair interpolation
   EXXOEP  =     0    0=HF, 1=EXX-LHF (local Hartree Fock) 2=EXX OEP
   LHFCALC =     T    Hartree Fock is set to
   LSYMGRAD=     F    symmetrize gradient (conserves proper symmetry)
   PRECFOCK=normal    Normal, Fast or Accurate (Low or Medium for compatibility)
   LRHFCALC=     F    long range Hartree Fock
   LRSCOR  =     F    long range correlation only (use DFT for short range part)
   LTHOMAS =     F    Thomas Fermi screening in HF
   LMODELHF=     F    short range full HF, long range fraction AEXX
   ENCUT4O =  -1.0   cutoff for four orbital integrals eV
   LMAXFOCK=     4    L truncation for augmentation on plane wave grid
   LMAXFOCKAE=  -1    L truncation for all-electron charge restoration on plane wave grid
   NMAXFOCKAE=   1    number of basis functions for all-electron charge restoration
   LFOCKAEDFT=     F  apply the AE augmentation even for DFT
   NKREDX  =     1    reduce k-point grid by
   NKREDY  =     1    reduce k-point grid by
   NKREDZ  =     1    reduce k-point grid by
   SHIFTRED=     F    shift reduced grid of Gamma
   HFKIDENT=     F    idential grid for each k-point
   ODDONLY =     F    use only odd q-grid points
   EVENONLY=     F    use only even q-grid points
   HFALPHA =   -1.0000 decay constant for conv. correction
   MCALPHA =    0.0000 extent of test-charge in conv. correction in multipole expansion
   AEXX    =    0.2500 exact exchange contribution
   HFSCREEN=    0.2000 screening length (either q_TF or 0.3 A-1)
   HFSCREENC=   0.2000 screening length for correlation (either q_TF or 0.3 A-1)
   HFRCUT  =    0.0000 spherical cutoff for potential kernel
   ALDAX   =    0.7500 LDA exchange part
   AGGAX   =    0.7500 GGA exchange part
   ALDAC   =    1.0000 LDA correlation
   AGGAC   =    1.0000 GGA correlation
   ENCUTFOCK=  -1.0 apply spherical cutoff to Coloumb kernel
   NBANDSGWLOW=     1    first orbital included in HF term
   NBLOCK_FOCK=    64    blocking factor in FOCK_ACC
 Linear response parameters
   LEPSILON=     F    determine dielectric tensor
   LRPA    =     F    only Hartree local field effects (RPA)
   LNABLA  =     F    use nabla operator in PAW spheres
   LVEL    =     F    velocity operator in full k-point grid
   LINTERFAST=   F  fast interpolation
   KINTER  =     0    interpolate to denser k-point grid
   CSHIFT  =0.1000    complex shift for real part using Kramers Kronig
   OMEGAMAX=  -1.0    maximum frequency
   DEG_THRESHOLD= 0.2000000E-02 threshold for treating states as degnerate
   RTIME   =   -0.100 relaxation time in fs
  (WPLASMAI=    0.000 imaginary part of plasma frequency in eV, 0.658/RTIME)
   DFIELD  = 0.0000000 0.0000000 0.0000000 field for delta impulse in time
 
 Orbital magnetization related:
   ORBITALMAG=     F  switch on orbital magnetization
   LCHIMAG   =     F  perturbation theory with respect to B field
   DQ        =  0.001000  dq finite difference perturbation B field
   LLRAUG    =     F  two centre corrections for induced B field



--------------------------------------------------------------------------------------------------------


 Static calculation
 charge density and potential will be updated during run
 spin polarized calculation
 Conjugate gradient for all bands (Freysoldt, et al. PRB 79, 241103 (2009))
 perform sub-space diagonalisation
    before iterative eigenvector-optimisation
 modified Broyden-mixing scheme, WC =      100.0
 initial mixing is a Kerker type mixing with AMIX =  0.4000 and BMIX =      1.0000
 Hartree-type preconditioning will be used
 using additional bands           34
 reciprocal scheme for non local part
 use partial core corrections
 no Harris-corrections to forces 
 use gradient corrections 
 use of overlap-Matrix (Vanderbilt PP)
 Gauss-broadening in eV      SIGMA  =   0.10


--------------------------------------------------------------------------------------------------------


  energy-cutoff  :      500.00
  volume of cell :     3176.87
      direct lattice vectors                 reciprocal lattice vectors
    12.903300000  0.000000000  0.000000000     0.077499554  0.000781031 -0.000132707
    -0.124563230 12.360072350  0.000000000     0.000000000  0.080905675  0.001022500
     0.036646377 -0.251745893 19.919475552     0.000000000  0.000000000  0.050202125

  length of vectors
    12.903300000 12.360700000 19.921100000     0.077503603  0.080912136  0.050202125


 
 old parameters found on file WAVECAR:
  energy-cutoff  :      500.00
  volume of cell :     3176.87
      direct lattice vectors                 reciprocal lattice vectors
    12.903300000  0.000000000  0.000000000     0.077499554  0.000781031 -0.000132707
    -0.124563230 12.360072350  0.000000000     0.000000000  0.080905675  0.001022500
     0.036646377 -0.251745893 19.919475552     0.000000000  0.000000000  0.050202125

  length of vectors

 
 k-points in units of 2pi/SCALE and weight: KPOINTS created by Atomic Simulation Env
   0.01937489  0.02042168  0.00022245       0.500
  -0.01937489  0.02003116  0.00028880       0.500
 
 k-points in reciprocal lattice and weights: KPOINTS created by Atomic Simulation Env
   0.25000000  0.25000000 -0.00000000       0.500
  -0.25000000  0.25000000 -0.00000000       0.500
 
 position of ions in fractional coordinates (direct lattice) 
   0.22079519  0.00280725  0.49678206
   0.05555717  0.10193375  0.49315461
   0.10976618  0.00210050  0.49376931
   0.27734342  0.10342509  0.49886443
   0.22379199  0.20494416  0.50048124
   0.05607167  0.30143726  0.49415910
   0.11213531  0.20256790  0.49593938
   0.28025999  0.30650464  0.50704400
   0.22074942  0.40686341  0.50718664
   0.05384901  0.50148593  0.49505393
   0.11051958  0.40258518  0.49746493
   0.21685337  0.60247674  0.50741003
   0.05271310  0.70200885  0.49252642
   0.10794140  0.60281247  0.49671287
   0.27186220  0.70436907  0.50850046
   0.21809477  0.80266777  0.49893306
   0.05343215  0.90192738  0.49176853
   0.10789716  0.80226011  0.49333493
   0.27485397  0.90288502  0.49939882
   0.55396960  0.99765067  0.49869454
   0.38823668  0.10099587  0.49900224
   0.44309183  0.00047227  0.49907527
   0.61056518  0.09798887  0.49645483
   0.55618949  0.19802549  0.49881823
   0.39341270  0.30201330  0.50917899
   0.44530858  0.20034014  0.50126276
   0.61286201  0.29790766  0.49867529
   0.55785422  0.39619856  0.50844525
   0.61451693  0.49700627  0.50767731
   0.61143589  0.69511861  0.50744336
   0.55099281  0.79471828  0.50681054
   0.38596437  0.90120803  0.50186683
   0.43796546  0.80066900  0.50949502
   0.60781366  0.89641148  0.50029618
   0.88735442  0.00010390  0.49117599
   0.72155117  0.09851604  0.49364923
   0.77595552  0.99883961  0.49306071
   0.94408978  0.10047546  0.49121614
   0.88895856  0.19973556  0.49093522
   0.72320412  0.29824240  0.49359798
   0.77793794  0.19860189  0.49187074
   0.94496089  0.30028805  0.49137338
   0.88924219  0.39945655  0.49140461
   0.72330857  0.49742666  0.49754602
   0.77866562  0.39825221  0.49301966
   0.94366965  0.50032147  0.49213020
   0.88752252  0.59992422  0.49231249
   0.72120714  0.69838904  0.49815983
   0.77753615  0.59885977  0.49584956
   0.94214079  0.70089534  0.49120614
   0.88659576  0.80025337  0.49131253
   0.71931662  0.89823261  0.49589210
   0.77557122  0.79936913  0.49432923
   0.94248439  0.90078249  0.49079662
   0.26761480  0.50635719  0.51806272
   0.45247988  0.39421279  0.51987187
   0.56461192  0.59476943  0.51925289
   0.37754473  0.70842900  0.52158427
   0.38332504  0.49582528  0.58045744
   0.45400420  0.62034355  0.58215107
 
 position of ions in cartesian coordinates  (Angst):
   2.86684220 -0.09036503  9.89563807
   0.72224595  1.13575884  9.82338117
   1.43417910 -0.09834201  9.83562577
   3.58404401  1.15275457  9.93711785
   2.88046754  2.40713050  9.96932380
   0.70407068  3.60138379  9.84339003
   1.43985748  2.37890319  9.87885240
   3.59668080  3.66077332 10.10005061
   2.81630226  4.90117897 10.10289187
   0.65050515  6.07377458  9.86121464
   1.39415032  4.85074721  9.90924058
   2.74167244  7.31891766 10.10734164
   0.61077770  8.55288870  9.81086805
   1.33591467  7.32576034  9.89425985
   3.43881572  8.57803982 10.12906255
   2.73244341  9.79542737  9.93848486
   0.59512561 11.02408692  9.79577120
   1.31037620  9.79179791  9.82697310
   3.45235817 11.03400253  9.94776262
   7.04204072 12.20549015  9.93373374
   5.01524066  1.12269455  9.93986289
   5.73557724 -0.11980287  9.94131757
   7.88429313  1.08616900  9.88911980
   7.17029306  2.32203389  9.93619746
   5.05736187  3.60472249 10.14257840
   5.73936459  2.35002783  9.98489127
   7.88910868  3.55662078  9.93335024
   7.16744124  4.76904382 10.12796280
   7.88599215  6.01522783 10.11266583
   7.82155040  8.46396949 10.10800558
   7.02920559  9.69518792 10.09540007
   4.88634825 11.01265354  9.99692415
   5.57013689  9.76806352 10.14887358
   7.74947612 10.95376330  9.96563755
  11.46778711 -0.12236727  9.78396803
   9.31621017  1.09339119  9.83323372
   9.90603711 12.22160383  9.82151071
  12.18735938  1.11822225  9.78476780
  11.46361023  2.34515509  9.77917210
   9.31265821  3.56203644  9.83221281
  10.03125341  2.33090726  9.79780718
  12.17371600  3.58788080  9.78789998
  11.44240933  4.81360276  9.78852207
   9.28933970  6.02297434  9.91085573
  10.01581584  4.79831048  9.82069308
  12.13216575  6.06011787  9.80297542
  11.39528226  7.29116915  9.80660663
   9.23721427  8.50672941  9.92308253
   9.97635734  7.27712203  9.87706310
  12.08742045  8.53945801  9.78456864
  11.35833375  9.76750368  9.78668785
   9.18784405 10.97738128  9.87791048
   9.92597146  9.75581496  9.84677902
  12.06694033 11.01018071  9.77641125
   3.40902566  6.12819131 10.31953775
   5.80843063  4.74162299 10.35557510
   7.23029934  7.22067342 10.34324527
   4.80244287  8.62492699 10.38968503
   4.90566806  5.98230852 11.56240785
   5.80221409  7.52093701 11.59614407
 


--------------------------------------------------------------------------------------------------------


 k-point  1 :   0.2500 0.2500-0.0000  plane waves:   80650
 k-point  2 :  -0.2500 0.2500-0.0000  plane waves:   80665

 maximum and minimum number of plane-waves per node :      5081     4996

 maximum number of plane-waves:     80665
 maximum index in each direction: 
   IXMAX=   23   IYMAX=   22   IZMAX=   36
   IXMIN=  -23   IYMIN=  -22   IZMIN=  -36


 parallel 3D FFT for wavefunctions:
    minimum data exchange during FFTs selected (reduces bandwidth)
 parallel 3D FFT for charge:
    minimum data exchange during FFTs selected (reduces bandwidth)


 FFT grid for exact exchange (Hartree Fock) 
  NGX = 72; NGY = 70; NGZ =112

 
 Radii for the augmentation spheres in the non-local exchange
 for species   1 augmentation radius   0.874 (default was   0.699)
       energy cutoff for augmentation   2000.0
 for species   2 augmentation radius   0.886 (default was   0.709)
       energy cutoff for augmentation   2000.0
 for species   3 augmentation radius   1.263 (default was   1.010)
       energy cutoff for augmentation   2000.0
 for species   4 augmentation radius   1.508 (default was   1.206)
       energy cutoff for augmentation   2000.0

 real space projection operators:
  total allocation   :       2800.60 KBytes
  max/ min on nodes  :        203.90        142.72

 Maximum index for augmentation-charges in exchange          227
  SETUP_FOCK is finished

 total amount of memory used by VASP MPI-rank0   296073. kBytes
=======================================================================

   base      :      30000. kBytes
   nonl-proj :      10747. kBytes
   fftplans  :      26523. kBytes
   grid      :      69087. kBytes
   one-center:        124. kBytes
   HF        :         23. kBytes
   nonlr-proj:       2930. kBytes
   wavefun   :     156639. kBytes
 
     INWAV:  cpu time    7.9043: real time   10.5577
 Broyden mixing: mesh for mixing (old mesh)
   NGX = 47   NGY = 45   NGZ = 73
  (NGX  =192   NGY  =180   NGZ  =300)
  gives a total of 154395 points

 charge density for first step will be calculated from the start-wavefunctions


--------------------------------------------------------------------------------------------------------


 Maximum index for augmentation-charges         1602 (set IRDMAX)


--------------------------------------------------------------------------------------------------------


 initial charge from wavefunction
 First call to EWALD:  gamma=   0.121
 Maximum number of real-space cells 3x 3x 2
 Maximum number of reciprocal cells 2x 2x 4

    FEWALD:  cpu time    0.0073: real time    0.0073


--------------------------------------- Iteration      1(   1)  ---------------------------------------


    POTLOK:  cpu time    4.6590: real time    4.6616
    SETDIJ:  cpu time    2.5885: real time    2.5890
    TRIAL :  cpu time  530.1931: real time  530.5068
    CORREC:  cpu time    0.0046: real time    0.0046
    CHARGE:  cpu time    1.4906: real time    1.4917
    --------------------------------------------
      LOOP:  cpu time  538.9779: real time  539.2976

 eigenvalue-minimisations  :     0
 total energy-change (2. order) :-0.6283859E+03  (-0.4339106E+00)
 number of electron     249.0000005 magnetization       2.1600830
 augmentation part       12.1139610 magnetization       0.9247412

 DIPCOR: dipole corrections for dipol
 direction  3 min pos     1,
 dipolmoment          -0.000321      0.002207     -0.174664 electrons x Angstroem
 Tr[quadrupol]     -6830.843970

 energy correction for charged system         0.000000 eV
 dipol+quadrupol energy correction            0.000872 eV
 added-field ion interaction          0.000000 eV  (added to PSCEN)


 Free energy of the ion-electron system (eV)
  ---------------------------------------------------
  alpha Z        PSCENC =       105.30802591
  Ewald energy   TEWEN  =     39878.29140648
  -Hartree energ DENC   =    -48190.12663394
  -exchange      EXHF   =       558.71500956
  -V(xc)+E(xc)   XCENC  =       597.69178807
  PAW double counting   =     26760.81880173   -26759.53317213
  entropy T*S    EENTRO =        -0.03745628
  eigenvalues    EBANDS =     -3233.34386096
  atomic energy  EATOM  =      9653.83120740
  ---------------------------------------------------
  free energy    TOTEN  =      -628.38591520 eV

  energy without entropy =     -628.34845892  energy(sigma->0) =     -628.36718706
  exchange ACFDT corr.  =        -0.04028253  see jH, gK, PRB 81, 115126


--------------------------------------------------------------------------------------------------------




--------------------------------------- Iteration      1(   2)  ---------------------------------------


    POTLOK:  cpu time    4.6924: real time    4.6939
    SETDIJ:  cpu time    2.5925: real time    2.5935
    TRIAL :  cpu time  531.9045: real time  532.1167
    CORREC:  cpu time    0.0012: real time    0.0012
    CHARGE:  cpu time    1.4692: real time    1.4703
    --------------------------------------------
      LOOP:  cpu time  540.6679: real time  540.8856

 eigenvalue-minimisations  :     0
 total energy-change (2. order) :-0.3078079E+00  (-0.3492004E+00)
 number of electron     249.0000005 magnetization       2.1793515
 augmentation part       12.0745256 magnetization       0.9600870

 DIPCOR: dipole corrections for dipol
 direction  3 min pos     1,
 dipolmoment          -0.000392      0.002691     -0.212908 electrons x Angstroem
 Tr[quadrupol]     -6830.735586

 energy correction for charged system         0.000000 eV
 dipol+quadrupol energy correction            0.001296 eV
 added-field ion interaction          0.000000 eV  (added to PSCEN)


 Free energy of the ion-electron system (eV)
  ---------------------------------------------------
  alpha Z        PSCENC =       105.30844974
  Ewald energy   TEWEN  =     39878.29140648
  -Hartree energ DENC   =    -48177.14443411
  -exchange      EXHF   =       558.55527927
  -V(xc)+E(xc)   XCENC  =       597.37807302
  PAW double counting   =     26897.06745751   -26895.35022841
  entropy T*S    EENTRO =        -0.03764934
  eigenvalues    EBANDS =     -3246.59347776
  atomic energy  EATOM  =      9653.83120740
  ---------------------------------------------------
  free energy    TOTEN  =      -628.69372314 eV

  energy without entropy =     -628.65607379  energy(sigma->0) =     -628.67489847
  exchange ACFDT corr.  =        -0.03556023  see jH, gK, PRB 81, 115126


--------------------------------------------------------------------------------------------------------




--------------------------------------- Iteration      1(   3)  ---------------------------------------


    POTLOK:  cpu time    4.7126: real time    4.7135
    SETDIJ:  cpu time    2.6047: real time    2.6051
    TRIAL :  cpu time  529.1155: real time  529.2928
    CORREC:  cpu time    0.0033: real time    0.0033
    CHARGE:  cpu time    1.5357: real time    1.5362
    --------------------------------------------
      LOOP:  cpu time  537.9763: real time  538.1573

 eigenvalue-minimisations  :     0
 total energy-change (2. order) :-0.2539002E+00  (-0.1782226E+00)
 number of electron     249.0000005 magnetization       2.1953706
 augmentation part       12.0818524 magnetization       0.9907011

 DIPCOR: dipole corrections for dipol
 direction  3 min pos     1,
 dipolmoment          -0.000348      0.002391     -0.189169 electrons x Angstroem
 Tr[quadrupol]     -6830.540898

 energy correction for charged system         0.000000 eV
 dipol+quadrupol energy correction            0.001023 eV
 added-field ion interaction          0.000000 eV  (added to PSCEN)


 Free energy of the ion-electron system (eV)
  ---------------------------------------------------
  alpha Z        PSCENC =       105.30817681
  Ewald energy   TEWEN  =     39878.29140648
  -Hartree energ DENC   =    -48158.28115913
  -exchange      EXHF   =       558.28443006
  -V(xc)+E(xc)   XCENC  =       596.83998457
  PAW double counting   =     27055.35587788   -27053.01635782
  entropy T*S    EENTRO =        -0.03770995
  eigenvalues    EBANDS =     -3265.52354026
  atomic energy  EATOM  =      9653.83120740
  ---------------------------------------------------
  free energy    TOTEN  =      -628.94762336 eV

  energy without entropy =     -628.90991341  energy(sigma->0) =     -628.92876838
  exchange ACFDT corr.  =        -0.08923171  see jH, gK, PRB 81, 115126


--------------------------------------------------------------------------------------------------------




--------------------------------------- Iteration      1(   4)  ---------------------------------------


    POTLOK:  cpu time    4.7447: real time    4.7461
    SETDIJ:  cpu time    2.5687: real time    2.5698
    TRIAL :  cpu time  528.2758: real time  528.4631
    CORREC:  cpu time    0.0036: real time    0.0036
    CHARGE:  cpu time    1.4852: real time    1.4996
    --------------------------------------------
      LOOP:  cpu time  537.0861: real time  537.2918

 eigenvalue-minimisations  :     0
 total energy-change (2. order) :-0.1325385E+00  (-0.1061469E+00)
 number of electron     249.0000005 magnetization       2.1988925
 augmentation part       12.0908968 magnetization       1.0071290

 DIPCOR: dipole corrections for dipol
 direction  3 min pos     1,
 dipolmoment          -0.000351      0.002408     -0.190540 electrons x Angstroem
 Tr[quadrupol]     -6830.520306

 energy correction for charged system         0.000000 eV
 dipol+quadrupol energy correction            0.001038 eV
 added-field ion interaction          0.000000 eV  (added to PSCEN)


 Free energy of the ion-electron system (eV)
  ---------------------------------------------------
  alpha Z        PSCENC =       105.30819169
  Ewald energy   TEWEN  =     39878.29140648
  -Hartree energ DENC   =    -48152.30822713
  -exchange      EXHF   =       558.31210728
  -V(xc)+E(xc)   XCENC  =       596.63008559
  PAW double counting   =     27189.37977144   -27187.09065387
  entropy T*S    EENTRO =        -0.03750014
  eigenvalues    EBANDS =     -3271.39634078
  atomic energy  EATOM  =      9653.83120740
  ---------------------------------------------------
  free energy    TOTEN  =      -629.08016182 eV

  energy without entropy =     -629.04266169  energy(sigma->0) =     -629.06141176
  exchange ACFDT corr.  =        -0.03247441  see jH, gK, PRB 81, 115126


--------------------------------------------------------------------------------------------------------




--------------------------------------- Iteration      1(   5)  ---------------------------------------


    POTLOK:  cpu time    4.7483: real time    4.7505
    SETDIJ:  cpu time    2.5884: real time    2.5894
    TRIAL :  cpu time  528.5586: real time  529.2068
    CORREC:  cpu time    0.0050: real time    0.0050
    CHARGE:  cpu time    1.4595: real time    1.4597
    --------------------------------------------
      LOOP:  cpu time  537.3705: real time  538.0237

 eigenvalue-minimisations  :     0
 total energy-change (2. order) :-0.8002598E-01  (-0.6527410E-01)
 number of electron     249.0000005 magnetization       2.2015428
 augmentation part       12.0926060 magnetization       1.0186554

 DIPCOR: dipole corrections for dipol
 direction  3 min pos     1,
 dipolmoment          -0.000432      0.002968     -0.234836 electrons x Angstroem
 Tr[quadrupol]     -6830.651637

 energy correction for charged system         0.000000 eV
 dipol+quadrupol energy correction            0.001577 eV
 added-field ion interaction          0.000000 eV  (added to PSCEN)


 Free energy of the ion-electron system (eV)
  ---------------------------------------------------
  alpha Z        PSCENC =       105.30873047
  Ewald energy   TEWEN  =     39878.29140648
  -Hartree energ DENC   =    -48156.30368769
  -exchange      EXHF   =       558.56635293
  -V(xc)+E(xc)   XCENC  =       596.70942542
  PAW double counting   =     27287.82096782   -27285.72314946
  entropy T*S    EENTRO =        -0.03740787
  eigenvalues    EBANDS =     -3267.62394105
  atomic energy  EATOM  =      9653.83120740
  ---------------------------------------------------
  free energy    TOTEN  =      -629.16018780 eV

  energy without entropy =     -629.12277993  energy(sigma->0) =     -629.14148386
  exchange ACFDT corr.  =        -0.03059749  see jH, gK, PRB 81, 115126


--------------------------------------------------------------------------------------------------------




--------------------------------------- Iteration      1(   6)  ---------------------------------------


    POTLOK:  cpu time    4.7273: real time    4.7339
    SETDIJ:  cpu time    2.5988: real time    2.6005
    TRIAL :  cpu time  528.0093: real time  528.2718
    CORREC:  cpu time    0.0027: real time    0.0027
    CHARGE:  cpu time    1.4720: real time    1.4725
    --------------------------------------------
      LOOP:  cpu time  536.8228: real time  537.0959

 eigenvalue-minimisations  :     0
 total energy-change (2. order) :-0.5352359E-01  (-0.4512418E-01)
 number of electron     249.0000005 magnetization       2.2087632
 augmentation part       12.0967816 magnetization       1.0301526

 DIPCOR: dipole corrections for dipol
 direction  3 min pos     1,
 dipolmoment          -0.000497      0.003413     -0.270068 electrons x Angstroem
 Tr[quadrupol]     -6830.784420

 energy correction for charged system         0.000000 eV
 dipol+quadrupol energy correction            0.002086 eV
 added-field ion interaction          0.000000 eV  (added to PSCEN)


 Free energy of the ion-electron system (eV)
  ---------------------------------------------------
  alpha Z        PSCENC =       105.30923911
  Ewald energy   TEWEN  =     39878.29140648
  -Hartree energ DENC   =    -48161.20549214
  -exchange      EXHF   =       558.82228736
  -V(xc)+E(xc)   XCENC  =       596.82833956
  PAW double counting   =     27350.15577695   -27348.00063648
  entropy T*S    EENTRO =        -0.03749646
  eigenvalues    EBANDS =     -3263.20843177
  atomic energy  EATOM  =      9653.83120740
  ---------------------------------------------------
  free energy    TOTEN  =      -629.21371139 eV

  energy without entropy =     -629.17621493  energy(sigma->0) =     -629.19496316
  exchange ACFDT corr.  =        -0.02929926  see jH, gK, PRB 81, 115126


--------------------------------------------------------------------------------------------------------




--------------------------------------- Iteration      1(   7)  ---------------------------------------


    POTLOK:  cpu time    4.6974: real time    4.6990
    SETDIJ:  cpu time    2.6009: real time    2.6022
    TRIAL :  cpu time  528.0477: real time  528.2389
    CORREC:  cpu time    0.0053: real time    0.0053
    CHARGE:  cpu time    1.4833: real time    1.4843
    --------------------------------------------
      LOOP:  cpu time  536.8374: real time  537.0348

 eigenvalue-minimisations  :     0
 total energy-change (2. order) :-0.3804749E-01  (-0.3364860E-01)
 number of electron     249.0000005 magnetization       2.2192796
 augmentation part       12.1054535 magnetization       1.0423397

 DIPCOR: dipole corrections for dipol
 direction  3 min pos     1,
 dipolmoment          -0.000514      0.003534     -0.279652 electrons x Angstroem
 Tr[quadrupol]     -6830.867186

 energy correction for charged system         0.000000 eV
 dipol+quadrupol energy correction            0.002236 eV
 added-field ion interaction          0.000000 eV  (added to PSCEN)


 Free energy of the ion-electron system (eV)
  ---------------------------------------------------
  alpha Z        PSCENC =       105.30938977
  Ewald energy   TEWEN  =     39878.29140648
  -Hartree energ DENC   =    -48164.92150719
  -exchange      EXHF   =       559.02069664
  -V(xc)+E(xc)   XCENC  =       596.92653478
  PAW double counting   =     27386.35001257   -27384.12736983
  entropy T*S    EENTRO =        -0.03765906
  eigenvalues    EBANDS =     -3259.89463304
  atomic energy  EATOM  =      9653.83120740
  ---------------------------------------------------
  free energy    TOTEN  =      -629.25175888 eV

  energy without entropy =     -629.21409982  energy(sigma->0) =     -629.23292935
  exchange ACFDT corr.  =        -0.02860640  see jH, gK, PRB 81, 115126


--------------------------------------------------------------------------------------------------------




--------------------------------------- Iteration      1(   8)  ---------------------------------------


    POTLOK:  cpu time    4.6966: real time    4.6979
    SETDIJ:  cpu time    2.5768: real time    2.5773
    TRIAL :  cpu time  527.5666: real time  527.9795
    CORREC:  cpu time    0.0014: real time    0.0013
    CHARGE:  cpu time    1.4577: real time    1.4587
    --------------------------------------------
      LOOP:  cpu time  536.3000: real time  536.7182

 eigenvalue-minimisations  :     0
 total energy-change (2. order) :-0.3009631E-01  (-0.2658687E-01)
 number of electron     249.0000005 magnetization       2.2311138
 augmentation part       12.1133921 magnetization       1.0548155

 DIPCOR: dipole corrections for dipol
 direction  3 min pos     1,
 dipolmoment          -0.000507      0.003480     -0.275354 electrons x Angstroem
 Tr[quadrupol]     -6830.908640

 energy correction for charged system         0.000000 eV
 dipol+quadrupol energy correction            0.002168 eV
 added-field ion interaction          0.000000 eV  (added to PSCEN)


 Free energy of the ion-electron system (eV)
  ---------------------------------------------------
  alpha Z        PSCENC =       105.30932155
  Ewald energy   TEWEN  =     39878.29140648
  -Hartree energ DENC   =    -48167.68370476
  -exchange      EXHF   =       559.16834449
  -V(xc)+E(xc)   XCENC  =       597.00875571
  PAW double counting   =     27406.62683245   -27404.46712221
  entropy T*S    EENTRO =        -0.03780605
  eigenvalues    EBANDS =     -3257.32923726
  atomic energy  EATOM  =      9653.83120740
  ---------------------------------------------------
  free energy    TOTEN  =      -629.28185519 eV

  energy without entropy =     -629.24404914  energy(sigma->0) =     -629.26295217
  exchange ACFDT corr.  =        -0.02821689  see jH, gK, PRB 81, 115126


--------------------------------------------------------------------------------------------------------




--------------------------------------- Iteration      1(   9)  ---------------------------------------


    POTLOK:  cpu time    4.6910: real time    4.6919
    SETDIJ:  cpu time    2.6063: real time    2.6073
    TRIAL :  cpu time  526.8933: real time  527.0700
    CORREC:  cpu time    0.0035: real time    0.0035
    CHARGE:  cpu time    1.4511: real time    1.4515
    --------------------------------------------
      LOOP:  cpu time  535.6529: real time  535.8337

 eigenvalue-minimisations  :     0
 total energy-change (2. order) :-0.2412768E-01  (-0.2158270E-01)
 number of electron     249.0000005 magnetization       2.2426367
 augmentation part       12.1176266 magnetization       1.0669097

 DIPCOR: dipole corrections for dipol
 direction  3 min pos     1,
 dipolmoment          -0.000495      0.003400     -0.269058 electrons x Angstroem
 Tr[quadrupol]     -6830.924114

 energy correction for charged system         0.000000 eV
 dipol+quadrupol energy correction            0.002070 eV
 added-field ion interaction          0.000000 eV  (added to PSCEN)


 Free energy of the ion-electron system (eV)
  ---------------------------------------------------
  alpha Z        PSCENC =       105.30922355
  Ewald energy   TEWEN  =     39878.29140648
  -Hartree energ DENC   =    -48169.14836993
  -exchange      EXHF   =       559.26533994
  -V(xc)+E(xc)   XCENC  =       597.05954366
  PAW double counting   =     27416.67907241   -27414.59539960
  entropy T*S    EENTRO =        -0.03789471
  eigenvalues    EBANDS =     -3255.96020074
  atomic energy  EATOM  =      9653.83120740
  ---------------------------------------------------
  free energy    TOTEN  =      -629.30598287 eV

  energy without entropy =     -629.26808816  energy(sigma->0) =     -629.28703552
  exchange ACFDT corr.  =        -0.02791745  see jH, gK, PRB 81, 115126


--------------------------------------------------------------------------------------------------------




--------------------------------------- Iteration      1(  10)  ---------------------------------------


    POTLOK:  cpu time    4.6731: real time    4.6749
    SETDIJ:  cpu time    2.5940: real time    2.5948
    TRIAL :  cpu time  526.3672: real time  526.5423
    CORREC:  cpu time    0.0014: real time    0.0014
    CHARGE:  cpu time    1.4563: real time    1.4565
    --------------------------------------------
      LOOP:  cpu time  535.1052: real time  535.2845

 eigenvalue-minimisations  :     0
 total energy-change (2. order) :-0.2005940E-01  (-0.1828334E-01)
 number of electron     249.0000005 magnetization       2.2529756
 augmentation part       12.1199297 magnetization       1.0782193

 DIPCOR: dipole corrections for dipol
 direction  3 min pos     1,
 dipolmoment          -0.000491      0.003374     -0.266979 electrons x Angstroem
 Tr[quadrupol]     -6830.928523

 energy correction for charged system         0.000000 eV
 dipol+quadrupol energy correction            0.002038 eV
 added-field ion interaction          0.000000 eV  (added to PSCEN)


 Free energy of the ion-electron system (eV)
  ---------------------------------------------------
  alpha Z        PSCENC =       105.30919169
  Ewald energy   TEWEN  =     39878.29140648
  -Hartree energ DENC   =    -48169.50507062
  -exchange      EXHF   =       559.32428389
  -V(xc)+E(xc)   XCENC  =       597.08000895
  PAW double counting   =     27420.41000218   -27418.33639072
  entropy T*S    EENTRO =        -0.03792413
  eigenvalues    EBANDS =     -3255.69278682
  atomic energy  EATOM  =      9653.83120740
  ---------------------------------------------------
  free energy    TOTEN  =      -629.32604228 eV

  energy without entropy =     -629.28811815  energy(sigma->0) =     -629.30708022
  exchange ACFDT corr.  =        -0.02760496  see jH, gK, PRB 81, 115126


--------------------------------------------------------------------------------------------------------




--------------------------------------- Iteration      1(  11)  ---------------------------------------


    POTLOK:  cpu time    4.6699: real time    4.6710
    SETDIJ:  cpu time    2.5880: real time    2.5888
    TRIAL :  cpu time  526.7749: real time  527.6410
    CORREC:  cpu time    0.0012: real time    0.0012
    CHARGE:  cpu time    1.4552: real time    1.4554
    --------------------------------------------
      LOOP:  cpu time  535.4975: real time  536.3673

 eigenvalue-minimisations  :     0
 total energy-change (2. order) :-0.1707154E-01  (-0.1574213E-01)
 number of electron     249.0000005 magnetization       2.2624898
 augmentation part       12.1231741 magnetization       1.0889326

 DIPCOR: dipole corrections for dipol
 direction  3 min pos     1,
 dipolmoment          -0.000497      0.003411     -0.269898 electrons x Angstroem
 Tr[quadrupol]     -6830.933461

 energy correction for charged system         0.000000 eV
 dipol+quadrupol energy correction            0.002083 eV
 added-field ion interaction          0.000000 eV  (added to PSCEN)


 Free energy of the ion-electron system (eV)
  ---------------------------------------------------
  alpha Z        PSCENC =       105.30923650
  Ewald energy   TEWEN  =     39878.29140648
  -Hartree energ DENC   =    -48169.55813103
  -exchange      EXHF   =       559.36809629
  -V(xc)+E(xc)   XCENC  =       597.09104994
  PAW double counting   =     27421.11013681   -27419.02195341
  entropy T*S    EENTRO =        -0.03790693
  eigenvalues    EBANDS =     -3255.72623867
  atomic energy  EATOM  =      9653.83120740
  ---------------------------------------------------
  free energy    TOTEN  =      -629.34311382 eV

  energy without entropy =     -629.30520689  energy(sigma->0) =     -629.32416036
  exchange ACFDT corr.  =        -0.02726224  see jH, gK, PRB 81, 115126


--------------------------------------------------------------------------------------------------------




--------------------------------------- Iteration      1(  12)  ---------------------------------------


    POTLOK:  cpu time    4.6725: real time    4.6738
    SETDIJ:  cpu time    2.5785: real time    2.5789
    TRIAL :  cpu time  526.5187: real time  526.6921
    CORREC:  cpu time    0.0012: real time    0.0012
    CHARGE:  cpu time    1.4549: real time    1.4560
    --------------------------------------------
      LOOP:  cpu time  535.2335: real time  535.4112

 eigenvalue-minimisations  :     0
 total energy-change (2. order) :-0.1484745E-01  (-0.1381760E-01)
 number of electron     249.0000005 magnetization       2.2718870
 augmentation part       12.1273651 magnetization       1.0992318

 DIPCOR: dipole corrections for dipol
 direction  3 min pos     1,
 dipolmoment          -0.000504      0.003464     -0.274114 electrons x Angstroem
 Tr[quadrupol]     -6830.941689

 energy correction for charged system         0.000000 eV
 dipol+quadrupol energy correction            0.002148 eV
 added-field ion interaction          0.000000 eV  (added to PSCEN)


 Free energy of the ion-electron system (eV)
  ---------------------------------------------------
  alpha Z        PSCENC =       105.30930207
  Ewald energy   TEWEN  =     39878.29140648
  -Hartree energ DENC   =    -48169.80882361
  -exchange      EXHF   =       559.41014433
  -V(xc)+E(xc)   XCENC  =       597.10573645
  PAW double counting   =     27421.01068325   -27418.93654675
  entropy T*S    EENTRO =        -0.03784359
  eigenvalues    EBANDS =     -3255.53316396
  atomic energy  EATOM  =      9653.83120740
  ---------------------------------------------------
  free energy    TOTEN  =      -629.35796127 eV

  energy without entropy =     -629.32011768  energy(sigma->0) =     -629.33903948
  exchange ACFDT corr.  =        -0.02691083  see jH, gK, PRB 81, 115126


--------------------------------------------------------------------------------------------------------




--------------------------------------- Iteration      1(  13)  ---------------------------------------


    POTLOK:  cpu time    4.6658: real time    4.6672
    SETDIJ:  cpu time    2.6026: real time    2.6037
    TRIAL :  cpu time  526.5981: real time  526.7740
    CORREC:  cpu time    0.0015: real time    0.0015
    CHARGE:  cpu time    1.4574: real time    1.4579
    --------------------------------------------
      LOOP:  cpu time  535.3260: real time  535.5067

 eigenvalue-minimisations  :     0
 total energy-change (2. order) :-0.1314050E-01  (-0.1225743E-01)
 number of electron     249.0000005 magnetization       2.2812488
 augmentation part       12.1310411 magnetization       1.1092132

 DIPCOR: dipole corrections for dipol
 direction  3 min pos     1,
 dipolmoment          -0.000508      0.003489     -0.276078 electrons x Angstroem
 Tr[quadrupol]     -6830.949481

 energy correction for charged system         0.000000 eV
 dipol+quadrupol energy correction            0.002179 eV
 added-field ion interaction          0.000000 eV  (added to PSCEN)


 Free energy of the ion-electron system (eV)
  ---------------------------------------------------
  alpha Z        PSCENC =       105.30933297
  Ewald energy   TEWEN  =     39878.29140648
  -Hartree energ DENC   =    -48170.12952133
  -exchange      EXHF   =       559.44969662
  -V(xc)+E(xc)   XCENC  =       597.12051873
  PAW double counting   =     27421.11558634   -27419.07107950
  entropy T*S    EENTRO =        -0.03773104
  eigenvalues    EBANDS =     -3255.25040590
  atomic energy  EATOM  =      9653.83120740
  ---------------------------------------------------
  free energy    TOTEN  =      -629.37110177 eV

  energy without entropy =     -629.33337073  energy(sigma->0) =     -629.35223625
  exchange ACFDT corr.  =        -0.02656000  see jH, gK, PRB 81, 115126


--------------------------------------------------------------------------------------------------------




--------------------------------------- Iteration      1(  14)  ---------------------------------------


    POTLOK:  cpu time    4.6370: real time    4.6416
    SETDIJ:  cpu time    2.6146: real time    2.6158
    TRIAL :  cpu time  526.5701: real time  526.7661
    CORREC:  cpu time    0.0015: real time    0.0015
    CHARGE:  cpu time    1.4508: real time    1.4513
    --------------------------------------------
      LOOP:  cpu time  535.2809: real time  535.4850

 eigenvalue-minimisations  :     0
 total energy-change (2. order) :-0.1176049E-01  (-0.1096995E-01)
 number of electron     249.0000005 magnetization       2.2902586
 augmentation part       12.1335593 magnetization       1.1188012

 DIPCOR: dipole corrections for dipol
 direction  3 min pos     1,
 dipolmoment          -0.000507      0.003484     -0.275636 electrons x Angstroem
 Tr[quadrupol]     -6830.954737

 energy correction for charged system         0.000000 eV
 dipol+quadrupol energy correction            0.002172 eV
 added-field ion interaction          0.000000 eV  (added to PSCEN)


 Free energy of the ion-electron system (eV)
  ---------------------------------------------------
  alpha Z        PSCENC =       105.30932600
  Ewald energy   TEWEN  =     39878.29140648
  -Hartree energ DENC   =    -48170.34649005
  -exchange      EXHF   =       559.48497189
  -V(xc)+E(xc)   XCENC  =       597.13163843
  PAW double counting   =     27421.87183692   -27419.84585679
  entropy T*S    EENTRO =        -0.03757441
  eigenvalues    EBANDS =     -3255.07317152
  atomic energy  EATOM  =      9653.83120740
  ---------------------------------------------------
  free energy    TOTEN  =      -629.38286226 eV

  energy without entropy =     -629.34528785  energy(sigma->0) =     -629.36407506
  exchange ACFDT corr.  =        -0.02620502  see jH, gK, PRB 81, 115126


--------------------------------------------------------------------------------------------------------




--------------------------------------- Iteration      1(  15)  ---------------------------------------


    POTLOK:  cpu time    4.6565: real time    4.6574
    SETDIJ:  cpu time    2.5880: real time    2.5884
    TRIAL :  cpu time  526.5690: real time  526.8875
    CORREC:  cpu time    0.0012: real time    0.0012
    CHARGE:  cpu time    1.4543: real time    1.4545
    --------------------------------------------
      LOOP:  cpu time  535.2783: real time  535.5999

 eigenvalue-minimisations  :     0
 total energy-change (2. order) :-0.1057321E-01  (-0.9863314E-02)
 number of electron     249.0000005 magnetization       2.2988087
 augmentation part       12.1356256 magnetization       1.1278569

 DIPCOR: dipole corrections for dipol
 direction  3 min pos     1,
 dipolmoment          -0.000505      0.003470     -0.274588 electrons x Angstroem
 Tr[quadrupol]     -6830.958224

 energy correction for charged system         0.000000 eV
 dipol+quadrupol energy correction            0.002156 eV
 added-field ion interaction          0.000000 eV  (added to PSCEN)


 Free energy of the ion-electron system (eV)
  ---------------------------------------------------
  alpha Z        PSCENC =       105.30930952
  Ewald energy   TEWEN  =     39878.29140648
  -Hartree energ DENC   =    -48170.49649166
  -exchange      EXHF   =       559.51786516
  -V(xc)+E(xc)   XCENC  =       597.14131106
  PAW double counting   =     27423.37984242   -27421.36085278
  entropy T*S    EENTRO =        -0.03737990
  eigenvalues    EBANDS =     -3254.96945868
  atomic energy  EATOM  =      9653.83120740
  ---------------------------------------------------
  free energy    TOTEN  =      -629.39343547 eV

  energy without entropy =     -629.35605557  energy(sigma->0) =     -629.37474552
  exchange ACFDT corr.  =        -0.02584503  see jH, gK, PRB 81, 115126


--------------------------------------------------------------------------------------------------------




--------------------------------------- Iteration      1(  16)  ---------------------------------------


    POTLOK:  cpu time    4.6448: real time    4.6460
    SETDIJ:  cpu time    2.6212: real time    2.6216
    TRIAL :  cpu time  526.2916: real time  526.5219
    CORREC:  cpu time    0.0011: real time    0.0011
    CHARGE:  cpu time    1.4557: real time    1.4561
    --------------------------------------------
      LOOP:  cpu time  535.0165: real time  535.2511

 eigenvalue-minimisations  :     0
 total energy-change (2. order) :-0.9529953E-02  (-0.8896613E-02)
 number of electron     249.0000005 magnetization       2.3069382
 augmentation part       12.1378299 magnetization       1.1362984

 DIPCOR: dipole corrections for dipol
 direction  3 min pos     1,
 dipolmoment          -0.000504      0.003461     -0.273842 electrons x Angstroem
 Tr[quadrupol]     -6830.960649

 energy correction for charged system         0.000000 eV
 dipol+quadrupol energy correction            0.002144 eV
 added-field ion interaction          0.000000 eV  (added to PSCEN)


 Free energy of the ion-electron system (eV)
  ---------------------------------------------------
  alpha Z        PSCENC =       105.30929782
  Ewald energy   TEWEN  =     39878.29140648
  -Hartree energ DENC   =    -48170.64884506
  -exchange      EXHF   =       559.54996875
  -V(xc)+E(xc)   XCENC  =       597.15157384
  PAW double counting   =     27425.31524449   -27423.30456926
  entropy T*S    EENTRO =        -0.03715087
  eigenvalues    EBANDS =     -3254.86086998
  atomic energy  EATOM  =      9653.83120740
  ---------------------------------------------------
  free energy    TOTEN  =      -629.40296542 eV

  energy without entropy =     -629.36581456  energy(sigma->0) =     -629.38438999
  exchange ACFDT corr.  =        -0.02548326  see jH, gK, PRB 81, 115126


--------------------------------------------------------------------------------------------------------




--------------------------------------- Iteration      1(  17)  ---------------------------------------


    POTLOK:  cpu time    4.6529: real time    4.6542
    SETDIJ:  cpu time    2.6033: real time    2.6043
    TRIAL :  cpu time  525.3910: real time  525.5678
    CORREC:  cpu time    0.0017: real time    0.0017
    CHARGE:  cpu time    1.4549: real time    1.4554
    --------------------------------------------
      LOOP:  cpu time  534.1076: real time  534.2887

 eigenvalue-minimisations  :     0
 total energy-change (2. order) :-0.8613766E-02  (-0.8047218E-02)
 number of electron     249.0000005 magnetization       2.3145638
 augmentation part       12.1399479 magnetization       1.1442207

 DIPCOR: dipole corrections for dipol
 direction  3 min pos     1,
 dipolmoment          -0.000503      0.003453     -0.273187 electrons x Angstroem
 Tr[quadrupol]     -6830.961845

 energy correction for charged system         0.000000 eV
 dipol+quadrupol energy correction            0.002134 eV
 added-field ion interaction          0.000000 eV  (added to PSCEN)


 Free energy of the ion-electron system (eV)
  ---------------------------------------------------
  alpha Z        PSCENC =       105.30928757
  Ewald energy   TEWEN  =     39878.29140648
  -Hartree energ DENC   =    -48170.78252576
  -exchange      EXHF   =       559.58072362
  -V(xc)+E(xc)   XCENC  =       597.16144469
  PAW double counting   =     27427.24962247   -27425.25055205
  entropy T*S    EENTRO =        -0.03689444
  eigenvalues    EBANDS =     -3254.76504274
  atomic energy  EATOM  =      9653.83120740
  ---------------------------------------------------
  free energy    TOTEN  =      -629.41157919 eV

  energy without entropy =     -629.37468475  energy(sigma->0) =     -629.39313197
[...]


 VOLUME and BASIS-vectors are now :
 -----------------------------------------------------------------------------
  energy-cutoff  :      500.00
  volume of cell :     3176.87
      direct lattice vectors                 reciprocal lattice vectors
    12.903300000  0.000000000  0.000000000     0.077499554  0.000781031 -0.000132707
    -0.124563230 12.360072350  0.000000000     0.000000000  0.080905675  0.001022500
     0.036646377 -0.251745893 19.919475552     0.000000000  0.000000000  0.050202125

  length of vectors
    12.903300000 12.360700000 19.921100000     0.077503603  0.080912136  0.050202125


 FORCES acting on ions:
    Electron-Ion                     Ewald-Force                    Non-Local-Force
 -----------------------------------------------------------------------------------------------
   0.409E+01 -.565E+01 0.194E+02   -.442E+01 0.602E+01 -.195E+02   0.264E+00 -.280E+00 0.109E+00
   0.335E+01 -.143E+01 0.234E+02   -.332E+01 0.144E+01 -.235E+02   -.285E-01 -.118E-02 0.507E-01
   0.208E+01 -.218E+01 0.227E+02   -.219E+01 0.221E+01 -.226E+02   0.125E+00 -.650E-01 -.735E-01
   0.599E+01 0.134E+01 0.136E+02   -.622E+01 -.133E+01 -.135E+02   0.220E+00 -.808E-01 -.113E+00
   0.601E+01 0.641E+01 0.920E+01   -.607E+01 -.629E+01 -.924E+01   0.429E-01 -.760E-01 0.500E-01
   0.554E+01 0.781E+01 0.298E+02   -.560E+01 -.817E+01 -.298E+02   0.271E-01 0.380E+00 0.105E+00
   0.828E+00 0.753E+01 0.177E+02   -.827E+00 -.769E+01 -.176E+02   0.112E-01 0.115E+00 -.981E-01
   0.120E+02 0.182E+02 0.574E+00   -.121E+02 -.184E+02 -.898E+00   0.110E+00 0.136E+00 0.296E+00
   0.216E+02 0.481E+02 0.182E+02   -.232E+02 -.511E+02 -.191E+02   0.156E+01 0.322E+01 0.968E+00
   0.123E+02 0.381E+01 0.327E+02   -.126E+02 -.391E+01 -.325E+02   0.294E+00 0.130E+00 -.130E+00
   0.131E+02 0.131E+02 0.330E+02   -.134E+02 -.135E+02 -.331E+02   0.332E+00 0.327E+00 0.105E+00
   0.203E+02 -.321E+02 0.187E+02   -.223E+02 0.345E+02 -.193E+02   0.176E+01 -.257E+01 0.643E+00
   0.805E+01 -.434E+01 0.419E+02   -.825E+01 0.470E+01 -.419E+02   0.135E+00 -.272E+00 0.607E-01
   0.175E+02 -.779E+01 0.395E+02   -.178E+02 0.813E+01 -.396E+02   0.433E+00 -.316E+00 0.180E+00
   0.292E+02 -.536E+01 0.144E+02   -.330E+02 0.526E+01 -.155E+02   0.397E+01 0.262E+00 0.114E+01
   0.118E+02 -.144E+02 0.315E+02   -.124E+02 0.147E+02 -.317E+02   0.578E+00 -.301E+00 0.202E+00
   0.468E+01 -.602E+01 0.331E+02   -.474E+01 0.620E+01 -.332E+02   0.206E-01 -.132E+00 0.739E-01
   0.650E+01 -.818E+01 0.385E+02   -.698E+01 0.823E+01 -.385E+02   0.442E+00 -.854E-01 0.501E-01
   0.452E+01 -.125E+02 0.170E+02   -.485E+01 0.129E+02 -.168E+02   0.336E+00 -.450E+00 -.163E+00
   -.551E+01 0.211E+01 0.141E+02   0.568E+01 -.196E+01 -.140E+02   -.161E+00 -.717E-01 -.105E+00
   0.243E+01 0.755E+01 0.219E+02   -.278E+01 -.764E+01 -.220E+02   0.364E+00 0.108E+00 0.119E+00
   -.274E+01 -.421E+01 0.214E+02   0.298E+01 0.453E+01 -.215E+02   -.253E+00 -.328E+00 0.148E+00
   -.458E+01 0.693E+01 0.210E+02   0.488E+01 -.716E+01 -.211E+02   -.260E+00 0.151E+00 0.101E+00
   -.647E+01 0.158E+02 0.210E+02   0.663E+01 -.161E+02 -.208E+02   -.184E+00 0.351E+00 -.170E+00
   0.295E+02 0.441E+02 0.118E+02   -.314E+02 -.469E+02 -.128E+02   0.204E+01 0.291E+01 0.969E+00
   0.220E+01 0.175E+02 0.231E+02   -.228E+01 -.179E+02 -.232E+02   0.776E-01 0.342E+00 0.873E-01
   -.154E+02 0.133E+02 0.335E+02   0.160E+02 -.134E+02 -.337E+02   -.488E+00 0.193E+00 0.217E+00
   -.396E+02 0.289E+01 0.156E+02   0.426E+02 -.328E+01 -.162E+02   -.315E+01 0.181E+00 0.694E+00
   -.176E+02 0.217E+02 0.159E+02   0.195E+02 -.250E+02 -.169E+02   -.177E+01 0.352E+01 0.104E+01
   -.981E+01 -.417E+02 0.126E+02   0.119E+02 0.447E+02 -.141E+02   -.207E+01 -.331E+01 0.147E+01
   -.766E+01 -.106E+02 0.753E+00   0.798E+01 0.111E+02 -.161E+01   -.238E+00 -.405E+00 0.852E+00
   -.229E+01 -.145E+02 0.185E+02   0.213E+01 0.153E+02 -.186E+02   0.159E+00 -.680E+00 0.681E-01
   -.302E+02 -.299E+02 0.651E+01   0.318E+02 0.332E+02 -.803E+01   -.185E+01 -.344E+01 0.150E+01
   -.364E+01 -.214E+01 0.951E+01   0.389E+01 0.235E+01 -.959E+01   -.225E+00 -.253E+00 0.936E-01
   0.215E+01 -.243E+01 0.281E+02   -.210E+01 0.252E+01 -.281E+02   -.451E-01 -.496E-01 0.223E-01
   -.216E+01 0.312E+01 0.232E+02   0.227E+01 -.309E+01 -.231E+02   -.112E+00 0.238E-01 -.791E-01
   -.272E+01 0.270E+01 0.238E+02   0.279E+01 -.263E+01 -.238E+02   -.713E-01 -.916E-01 0.627E-01
   -.192E+01 0.320E+01 0.280E+02   0.195E+01 -.325E+01 -.280E+02   -.168E-01 0.269E-01 0.301E-01
   -.526E+00 0.284E+01 0.312E+02   0.555E+00 -.290E+01 -.312E+02   -.644E-01 0.100E+00 -.777E-03
   -.698E+01 0.793E+01 0.367E+02   0.740E+01 -.798E+01 -.367E+02   -.363E+00 0.712E-01 0.216E-01
   -.505E+01 0.621E+01 0.325E+02   0.515E+01 -.631E+01 -.326E+02   -.652E-01 0.795E-01 0.800E-01
   -.997E+00 0.568E+01 0.338E+02   0.103E+01 -.583E+01 -.339E+02   -.432E-02 0.899E-01 0.539E-01
   -.150E+01 0.448E+01 0.366E+02   0.156E+01 -.451E+01 -.366E+02   -.792E-01 0.766E-01 -.189E-02
   -.166E+02 0.388E+01 0.340E+02   0.172E+02 -.428E+01 -.341E+02   -.549E+00 0.363E+00 0.137E+00
   -.803E+01 0.342E+01 0.393E+02   0.826E+01 -.386E+01 -.393E+02   -.207E+00 0.346E+00 0.708E-01
   0.371E+01 -.609E+00 0.354E+02   -.387E+01 0.552E+00 -.354E+02   0.166E+00 0.766E-02 0.362E-01
   -.256E+01 -.807E+00 0.343E+02   0.279E+01 0.822E+00 -.343E+02   -.230E+00 0.427E-01 0.424E-01
   -.109E+02 -.117E+02 0.277E+02   0.117E+02 0.121E+02 -.278E+02   -.713E+00 -.286E+00 0.104E+00
   -.870E+01 -.489E+01 0.274E+02   0.916E+01 0.488E+01 -.273E+02   -.415E+00 -.236E-01 -.125E+00
   0.309E+01 -.455E+01 0.377E+02   -.309E+01 0.457E+01 -.377E+02   0.134E-01 -.674E-01 0.153E-01
   0.185E+01 -.503E+01 0.341E+02   -.175E+01 0.517E+01 -.341E+02   -.115E+00 -.986E-01 0.461E-01
   0.186E+00 -.572E+01 0.177E+02   -.801E-01 0.595E+01 -.176E+02   -.126E+00 -.162E+00 -.775E-01
   -.353E+01 -.704E+01 0.287E+02   0.373E+01 0.741E+01 -.288E+02   -.170E+00 -.424E+00 0.139E+00
   0.120E+01 -.265E+01 0.320E+02   -.119E+01 0.275E+01 -.320E+02   0.164E-01 -.126E+00 0.180E-01
   -.162E+02 -.588E+01 -.130E+02   0.370E+02 0.697E+01 0.158E+02   -.197E+02 -.996E+00 -.283E+01
   0.245E+01 -.157E+02 -.254E+02   -.121E+02 0.342E+02 0.284E+02   0.923E+01 -.176E+02 -.302E+01
   0.340E+02 -.629E+01 -.421E+02   -.527E+02 0.464E+01 0.447E+02   0.179E+02 0.160E+01 -.279E+01
   -.215E+02 0.238E+02 -.588E+02   0.294E+02 -.405E+02 0.620E+02   -.765E+01 0.160E+02 -.340E+01
   0.406E+02 0.641E+02 -.722E+03   -.492E+02 -.790E+02 0.718E+03   0.623E+01 0.108E+02 0.427E+01
   -.617E+02 -.998E+02 -.470E+03   0.651E+02 0.106E+03 0.466E+03   -.103E+01 -.212E+01 0.551E+01
 -----------------------------------------------------------------------------------------------
   -.452E+01 -.699E+01 -.885E+01   -.711E-13 0.227E-12 0.284E-12   0.438E+01 0.679E+01 0.887E+01
 
 
 POSITION                                       TOTAL-FORCE (eV/Angst)
 -----------------------------------------------------------------------------------
      2.86684     -0.09037      9.89564        -0.046129      0.069862      0.007860
      0.72225      1.13576      9.82338        -0.002525      0.003371      0.007800
      1.43418     -0.09834      9.83563         0.019404     -0.033465      0.007579
      3.58404      1.15275      9.93712         0.001156     -0.072548     -0.001071
      2.88047      2.40713      9.96932        -0.021571      0.034538      0.006522
      0.70407      3.60138      9.84339        -0.027484      0.045379      0.019097
      1.43986      2.37890      9.87885         0.008498     -0.043805     -0.002676
      3.59668      3.66077     10.10005        -0.033739     -0.096929     -0.017072
      2.81630      4.90118     10.10289         0.031794      0.415179      0.069053
      0.65051      6.07377      9.86121        -0.026684      0.037885      0.017711
      1.39415      4.85075      9.90924        -0.014887     -0.066825      0.025224
      2.74167      7.31892     10.10734        -0.096903     -0.343541      0.056130
      0.61078      8.55289      9.81087        -0.050580      0.074704      0.033481
      1.33591      7.32576      9.89426         0.083564     -0.000758      0.066541
      3.43882      8.57804     10.12906         0.418979      0.183085      0.117569
      2.73244      9.79543      9.93848        -0.054182      0.002598      0.034522
      0.59513     11.02409      9.79577        -0.031568      0.036020      0.023775
      1.31038      9.79180      9.82697        -0.018552     -0.043184      0.034075
      3.45236     11.03400      9.94776         0.025726     -0.076835      0.008228
      7.04204     12.20549      9.93373        -0.000215      0.075597     -0.003780
      5.01524      1.12269      9.93986         0.027711      0.020783      0.027000
      5.73558     -0.11980      9.94132        -0.021336     -0.030080      0.027296
      7.88429      1.08617      9.88912         0.023629     -0.070426      0.008210
      7.17029      2.32203      9.93620        -0.026426      0.061683      0.011995
      5.05736      3.60472     10.14258         0.310433      0.276036      0.063076
      5.73936      2.35003      9.98489         0.001450     -0.061386      0.011521
      7.88911      3.55662      9.93335         0.056483      0.025640      0.045439
      7.16744      4.76904     10.12796        -0.291514     -0.206437      0.085747
      7.88599      6.01523     10.11267         0.019046      0.428155      0.086364
      7.82155      8.46397     10.10801        -0.061059     -0.514498      0.059022
      7.02921      9.69519     10.09540         0.071519      0.137059      0.032626
      4.88635     11.01265      9.99692         0.011149      0.067032     -0.014407
      5.57014      9.76806     10.14887        -0.396583     -0.339923      0.063088
      7.74948     10.95376      9.96564         0.018486     -0.045891      0.024329
     11.46779     -0.12237      9.78397         0.002422      0.030981      0.018066
      9.31621      1.09339      9.83323         0.001158      0.054709      0.005406
      9.90604     12.22160      9.82151        -0.001146     -0.026009      0.007149
     12.18736      1.11822      9.78477         0.005039     -0.021191      0.017351
     11.46361      2.34516      9.77917        -0.036638      0.036953      0.016877
      9.31266      3.56204      9.83221         0.031173      0.025321      0.025495
     10.03125      2.33091      9.79781         0.023620     -0.010840      0.024508
     12.17372      3.58788      9.78790         0.025650     -0.058863      0.017938
     11.44241      4.81360      9.78852        -0.015490      0.047002      0.017676
      9.28934      6.02297      9.91086        -0.062253     -0.018200      0.034228
     10.01582      4.79831      9.82069         0.015523     -0.083038      0.022002
     12.13217      6.06012      9.80298         0.022681     -0.053106      0.016469
     11.39528      7.29117      9.80661        -0.012351      0.063121      0.015904
      9.23721      8.50673      9.92308         0.016408      0.092511     -0.002977
      9.97636      7.27712      9.87706         0.028321     -0.033201      0.007204
     12.08742      8.53946      9.78457         0.013218     -0.045852      0.028269
     11.35833      9.76750      9.78669        -0.013999      0.034087      0.018116
      9.18784     10.97738      9.87791        -0.021669      0.059013     -0.006721
      9.92597      9.75581      9.84678         0.021317     -0.067254      0.018651
     12.06694     11.01018      9.77641         0.025240     -0.029795      0.018769
      3.40903      6.12819     10.31954        -0.676136      0.005673     -0.227117
      5.80843      4.74162     10.35558         0.367084     -0.613267     -0.291811
      7.23030      7.22067     10.34325         0.765313      0.097475     -0.450015
      4.80244      8.62493     10.38969        -0.371719      0.748502     -0.566170
      4.90567      5.98231     11.56241        -0.162414     -0.284555     -0.163756
      5.80221      7.52094     11.59614         0.102558      0.101749      0.336614
 -----------------------------------------------------------------------------------
    total drift:                                0.004650      0.007353     -0.018436


--------------------------------------------------------------------------------------------------------



  FREE ENERGIE OF THE ION-ELECTRON SYSTEM (eV)
  ---------------------------------------------------
  free  energy   TOTEN  =      -629.50760822 eV

  energy  without entropy=     -629.47643695  energy(sigma->0) =     -629.49202258
 


--------------------------------------------------------------------------------------------------------


    POTLOK:  cpu time    7.2337: real time    7.2367


--------------------------------------------------------------------------------------------------------


 stress matrix after NEB project (eV)
    -44.27637     -1.92198     -0.07323
     -1.92198    -44.68566     -0.20372
     -0.07502     -0.20375     -0.68130
  FORCES: max atom, RMS     1.009445    0.288093
  FORCE total and by dimension    2.231557    0.765313
  Stress total and by dimension   62.969446   44.685663
 writing wavefunctions
     LOOP+:  cpu time47671.1446: real time47701.7761
    4ORBIT:  cpu time    0.0000: real time    0.0000
 


 total charge     
 
# of ion       s       p       d       tot
------------------------------------------
    1        0.863   1.763   0.000   2.626
    2        0.863   1.757   0.000   2.620
    3        0.864   1.771   0.000   2.635
    4        0.861   1.758   0.000   2.619
    5        0.858   1.732   0.000   2.590
    6        0.865   1.764   0.000   2.628
    7        0.861   1.758   0.000   2.619
    8        0.845   1.736   0.000   2.581
    9        0.854   1.701   0.000   2.554
   10        0.867   1.765   0.000   2.633
   11        0.864   1.770   0.000   2.633
   12        0.857   1.740   0.000   2.598
   13        0.865   1.778   0.000   2.643
   14        0.868   1.778   0.000   2.646
   15        0.857   1.739   0.000   2.597
   16        0.867   1.776   0.000   2.643
   17        0.865   1.766   0.000   2.632
   18        0.866   1.780   0.000   2.646
   19        0.865   1.760   0.000   2.625
   20        0.862   1.757   0.000   2.619
   21        0.864   1.762   0.000   2.626
   22        0.864   1.763   0.000   2.627
   23        0.863   1.766   0.000   2.629
   24        0.867   1.761   0.000   2.628
   25        0.855   1.704   0.000   2.558
   26        0.865   1.769   0.000   2.634
   27        0.867   1.777   0.000   2.644
   28        0.858   1.740   0.000   2.599
   29        0.857   1.741   0.000   2.598
   30        0.852   1.701   0.000   2.553
   31        0.845   1.728   0.000   2.573
   32        0.865   1.772   0.000   2.637
   33        0.853   1.704   0.000   2.556
   34        0.857   1.734   0.000   2.591
   35        0.863   1.762   0.000   2.626
   36        0.865   1.769   0.000   2.634
   37        0.863   1.759   0.000   2.622
   38        0.863   1.763   0.000   2.626
   39        0.866   1.766   0.000   2.632
   40        0.866   1.778   0.000   2.644
   41        0.865   1.767   0.000   2.632
   42        0.864   1.765   0.000   2.629
   43        0.868   1.769   0.000   2.637
   44        0.868   1.777   0.000   2.646
   45        0.865   1.781   0.000   2.646
   46        0.865   1.776   0.000   2.641
   47        0.865   1.773   0.000   2.639
   48        0.864   1.772   0.000   2.636
   49        0.866   1.766   0.000   2.632
   50        0.867   1.769   0.000   2.636
   51        0.864   1.765   0.000   2.629
   52        0.861   1.757   0.000   2.618
   53        0.864   1.766   0.000   2.630
   54        0.865   1.768   0.000   2.634
   55        1.228   2.672   0.000   3.901
   56        1.230   2.674   0.000   3.904
   57        1.231   2.677   0.000   3.908
   58        1.232   2.677   0.000   3.909
   59        0.428   0.417   6.690   7.535
   60        0.517   0.567   4.106   5.189
--------------------------------------------------
tot         52.432 106.624  10.796 169.851
 


 magnetization (x)
 
# of ion       s       p       d       tot
------------------------------------------
    1       -0.000  -0.000   0.000  -0.000
    2        0.000   0.001   0.000   0.001
    3       -0.000  -0.000   0.000  -0.000
    4       -0.000  -0.003   0.000  -0.004
    5        0.000   0.002   0.000   0.002
    6        0.000   0.000   0.000   0.000
    7       -0.000  -0.002   0.000  -0.002
    8       -0.000  -0.007   0.000  -0.007
    9        0.001   0.004   0.000   0.005
   10        0.000   0.003   0.000   0.003
   11        0.000  -0.003   0.000  -0.003
   12        0.001   0.001   0.000   0.002
   13        0.000  -0.000   0.000  -0.000
   14        0.000   0.001   0.000   0.002
   15        0.001   0.007   0.000   0.008
   16       -0.000  -0.002   0.000  -0.002
   17        0.000   0.002   0.000   0.002
   18       -0.000  -0.002   0.000  -0.002
   19        0.000   0.002   0.000   0.002
   20       -0.000  -0.001   0.000  -0.001
   21        0.000   0.002   0.000   0.002
   22       -0.000  -0.002   0.000  -0.002
   23       -0.000  -0.004   0.000  -0.004
   24        0.000   0.001   0.000   0.002
   25        0.001   0.003   0.000   0.004
   26        0.000  -0.001   0.000  -0.001
   27        0.000  -0.000   0.000  -0.000
   28        0.001   0.005   0.000   0.006
   29        0.001   0.002   0.000   0.002
   30       -0.001   0.000   0.000  -0.000
   31       -0.001  -0.006   0.000  -0.008
   32       -0.000   0.000   0.000   0.000
   33       -0.001  -0.000   0.000  -0.001
   34       -0.000  -0.003   0.000  -0.003
   35        0.000   0.002   0.000   0.002
   36        0.000   0.003   0.000   0.003
   37       -0.000  -0.001   0.000  -0.002
   38       -0.000  -0.003   0.000  -0.004
   39        0.000   0.002   0.000   0.002
   40        0.000   0.002   0.000   0.002
   41       -0.000  -0.001   0.000  -0.001
   42        0.000   0.000   0.000   0.000
   43        0.000   0.002   0.000   0.002
   44        0.000   0.000   0.000   0.000
   45       -0.000  -0.004   0.000  -0.004
   46       -0.000  -0.002   0.000  -0.002
   47        0.000   0.002   0.000   0.002
   48       -0.000  -0.000   0.000  -0.000
   49        0.000   0.003   0.000   0.003
   50       -0.000  -0.000   0.000  -0.001
   51        0.000   0.003   0.000   0.003
   52        0.000   0.003   0.000   0.003
   53       -0.000  -0.006   0.000  -0.007
   54       -0.000  -0.002   0.000  -0.003
   55        0.003  -0.006   0.000  -0.003
   56        0.003  -0.008   0.000  -0.005
   57        0.002  -0.010   0.000  -0.007
   58        0.002  -0.028   0.000  -0.026
   59        0.078   0.058   1.834   1.970
   60        0.054   0.074  -0.286  -0.157
--------------------------------------------------
tot          0.145   0.080   1.548   1.774
 

 total amount of memory used by VASP MPI-rank0   320283. kBytes
=======================================================================

   base      :      30000. kBytes
   nonl-proj :      10747. kBytes
   fftplans  :      26523. kBytes
   grid      :      69087. kBytes
   one-center:        124. kBytes
   HF        :         23. kBytes
   nonlr-proj:      27140. kBytes
   wavefun   :     156639. kBytes
 
  
  
 General timing and accounting informations for this job:
 ========================================================
  
                  Total CPU time used (sec):    47736.734
                            User time (sec):    47706.893
                          System time (sec):       29.843
                         Elapsed time (sec):    47774.272
  
                   Maximum memory used (kb):      549840.
                   Average memory used (kb):           0.
  
                          Minor page faults:      1903424
                          Major page faults:          228
                 Voluntary context switches:        54009
