 vasp.5.4.4.18Apr17-6-g9f103f2a35 (build Feb 25 2019 10:51:38) complex          
  
 executed on             LinuxIFC date 2021.03.06  04:11:00
 running on   80 total cores
 distrk:  each k-point on   40 cores,    2 groups
 distr:  one band on NCORES_PER_BAND=  40 cores,    1 groups


--------------------------------------------------------------------------------------------------------


 INCAR:
 POTCAR:    PAW_PBE C 08Apr2002                   
 POTCAR:    PAW_PBE N 08Apr2002                   
 POTCAR:    PAW_PBE Cu 22Jun2005                  
 POTCAR:    PAW_PBE Fe 06Sep2000                  

 ----------------------------------------------------------------------------- 
|                                                                             |
|           W    W    AA    RRRRR   N    N  II  N    N   GGGG   !!!           |
|           W    W   A  A   R    R  NN   N  II  NN   N  G    G  !!!           |
|           W    W  A    A  R    R  N N  N  II  N N  N  G       !!!           |
|           W WW W  AAAAAA  RRRRR   N  N N  II  N  N N  G  GGG   !            |
|           WW  WW  A    A  R   R   N   NN  II  N   NN  G    G                |
|           W    W  A    A  R    R  N    N  II  N    N   GGGG   !!!           |
|                                                                             |
|      For optimal performance we recommend to set                            |
|        NCORE= 4 - approx SQRT( number of cores)                             |
|      NCORE specifies how many cores store one orbital (NPAR=cpu/NCORE).     |
|      This setting can  greatly improve the performance of VASP for DFT.     |
|      The default,   NCORE=1            might be grossly inefficient         |
|      on modern multi-core architectures or massively parallel machines.     |
|      Do your own testing !!!!                                               |
|      Unfortunately you need to use the default for GW and RPA calculations. |
|      (for HF NCORE is supported but not extensively tested yet)             |
|                                                                             |
 ----------------------------------------------------------------------------- 


 ----------------------------------------------------------------------------- 
|                                                                             |
|           W    W    AA    RRRRR   N    N  II  N    N   GGGG   !!!           |
|           W    W   A  A   R    R  NN   N  II  NN   N  G    G  !!!           |
|           W    W  A    A  R    R  N N  N  II  N N  N  G       !!!           |
|           W WW W  AAAAAA  RRRRR   N  N N  II  N  N N  G  GGG   !            |
|           WW  WW  A    A  R   R   N   NN  II  N   NN  G    G                |
|           W    W  A    A  R    R  N    N  II  N    N   GGGG   !!!           |
|                                                                             |
|      You have enabled k-point parallelism (KPAR>1).                         |
|      This developmental code was originally  written by Paul Kent at ORNL,  |
|      and carefully double checked in Vienna.                                |
|      GW as well as linear response parallelism added by Martijn Marsman     |
|      and Georg Kresse.                                                      |
|      Carefully verify results versus KPAR=1.                                |
|      Report problems to Paul Kent and Vienna.                               |
|                                                                             |
 ----------------------------------------------------------------------------- 

 POTCAR:    PAW_PBE C 08Apr2002                   
   VRHFIN =C: s2p2                                                              
   LEXCH  = PE                                                                  
   EATOM  =   147.1560 eV,   10.8157 Ry                                         
                                                                                
   TITEL  = PAW_PBE C 08Apr2002                                                 
   LULTRA =        F    use ultrasoft PP ?                                      
   IUNSCR =        1    unscreen: 0-lin 1-nonlin 2-no                           
   RPACOR =    1.200    partial core radius                                     
   POMASS =   12.011; ZVAL   =    4.000    mass and valenz                      
   RCORE  =    1.500    outmost cutoff radius                                   
   RWIGS  =    1.630; RWIGS  =    0.863    wigner-seitz radius (au A)           
   ENMAX  =  400.000; ENMIN  =  300.000 eV                                      
   ICORE  =        2    local potential                                         
   LCOR   =        T    correct aug charges                                     
   LPAW   =        T    paw PP                                                  
   EAUG   =  644.873                                                            
   DEXC   =    0.000                                                            
   RMAX   =    1.529    core radius for proj-oper                               
   RAUG   =    1.300    factor for augmentation sphere                          
   RDEP   =    1.501    radius for radial grids                                 
   RDEPT  =    1.300    core radius for aug-charge                              
                                                                                
   Atomic configuration                                                         
    4 entries                                                                   
     n  l   j            E        occ.                                          
     1  0  0.50      -273.3789   2.0000                                         
     2  0  0.50       -13.7508   2.0000                                         
     2  1  0.50        -5.2854   2.0000                                         
     3  2  1.50        -5.4423   0.0000                                         
   Description                                                                  
     l       E           TYP  RCUT    TYP  RCUT                                 
     0    -13.7508458     23  1.200                                             
     0     -8.2022199     23  1.200                                             
     1     -5.2854383     23  1.500                                             
     1     34.0145650     23  1.500                                             
     2     -5.4423304      7  1.500                                             
  local pseudopotential read in
  partial core-charges read in
  partial kinetic energy density read in
  atomic valenz-charges read in
  non local Contribution for L=           0  read in
    real space projection operators read in
  non local Contribution for L=           0  read in
    real space projection operators read in
  non local Contribution for L=           1  read in
    real space projection operators read in
  non local Contribution for L=           1  read in
    real space projection operators read in
    PAW grid and wavefunctions read in
 
   number of l-projection  operators is LMAX  =           4
   number of lm-projection operators is LMMAX =           8
 
 POTCAR:    PAW_PBE N 08Apr2002                   
   VRHFIN =N: s2p3                                                              
   LEXCH  = PE                                                                  
   EATOM  =   264.5486 eV,   19.4438 Ry                                         
                                                                                
   TITEL  = PAW_PBE N 08Apr2002                                                 
   LULTRA =        F    use ultrasoft PP ?                                      
   IUNSCR =        1    unscreen: 0-lin 1-nonlin 2-no                           
   RPACOR =    1.200    partial core radius                                     
   POMASS =   14.001; ZVAL   =    5.000    mass and valenz                      
   RCORE  =    1.500    outmost cutoff radius                                   
   RWIGS  =    1.400; RWIGS  =    0.741    wigner-seitz radius (au A)           
   ENMAX  =  400.000; ENMIN  =  300.000 eV                                      
   ICORE  =        2    local potential                                         
   LCOR   =        T    correct aug charges                                     
   LPAW   =        T    paw PP                                                  
   EAUG   =  627.112                                                            
   DEXC   =    0.000                                                            
   RMAX   =    1.529    core radius for proj-oper                               
   RAUG   =    1.300    factor for augmentation sphere                          
   RDEP   =    1.514    radius for radial grids                                 
   RDEPT  =    1.338    core radius for aug-charge                              
                                                                                
   Atomic configuration                                                         
    4 entries                                                                   
     n  l   j            E        occ.                                          
     1  0  0.50      -384.7179   2.0000                                         
     2  0  0.50       -18.5828   2.0000                                         
     2  1  0.50        -7.0898   3.0000                                         
     3  2  1.50        -6.8029   0.0000                                         
   Description                                                                  
     l       E           TYP  RCUT    TYP  RCUT                                 
     0    -18.5828119     23  1.200                                             
     0    -13.5018863     23  1.200                                             
     1     -7.0897853     23  1.500                                             
     1      9.5240782     23  1.500                                             
     2     -6.8029130      7  1.500                                             
  local pseudopotential read in
  partial core-charges read in
  partial kinetic energy density read in
  atomic valenz-charges read in
  non local Contribution for L=           0  read in
    real space projection operators read in
  non local Contribution for L=           0  read in
    real space projection operators read in
  non local Contribution for L=           1  read in
    real space projection operators read in
  non local Contribution for L=           1  read in
    real space projection operators read in
    PAW grid and wavefunctions read in
 
   number of l-projection  operators is LMAX  =           4
   number of lm-projection operators is LMMAX =           8
 
 POTCAR:    PAW_PBE Cu 22Jun2005                  
   VRHFIN =Cu: d10 p1                                                           
   LEXCH  = PE                                                                  
   EATOM  =  1390.9808 eV,  102.2342 Ry                                         
                                                                                
   TITEL  = PAW_PBE Cu 22Jun2005                                                
   LULTRA =        F    use ultrasoft PP ?                                      
   IUNSCR =        1    unscreen: 0-lin 1-nonlin 2-no                           
   RPACOR =    2.000    partial core radius                                     
   POMASS =   63.546; ZVAL   =   11.000    mass and valenz                      
   RCORE  =    2.300    outmost cutoff radius                                   
   RWIGS  =    2.200; RWIGS  =    1.164    wigner-seitz radius (au A)           
   ENMAX  =  295.446; ENMIN  =  221.585 eV                                      
   ICORE  =        3    local potential                                         
   LCOR   =        T    correct aug charges                                     
   LPAW   =        T    paw PP                                                  
   EAUG   =  586.980                                                            
   DEXC   =    0.000                                                            
   RMAX   =    2.344    core radius for proj-oper                               
   RAUG   =    1.300    factor for augmentation sphere                          
   RDEP   =    2.302    radius for radial grids                                 
   RDEPT  =    1.771    core radius for aug-charge                              
                                                                                
   Atomic configuration                                                         
    9 entries                                                                   
     n  l   j            E        occ.                                          
     1  0  0.50     -8850.2468   2.0000                                         
     2  0  0.50     -1062.3498   2.0000                                         
     2  1  1.50      -916.8226   6.0000                                         
     3  0  0.50      -114.6929   2.0000                                         
     3  1  1.50       -72.1325   6.0000                                         
     3  2  2.50        -5.0394  10.0000                                         
     4  0  0.50        -4.6097   1.0000                                         
     4  1  0.50        -4.0817   0.0000                                         
     4  3  2.50        -1.3606   0.0000                                         
   Description                                                                  
     l       E           TYP  RCUT    TYP  RCUT                                 
     2     -5.0393973     23  2.200                                             
     2     10.8846608     23  2.200                                             
     0     -4.6097109     23  2.200                                             
     0      8.2520465     23  2.200                                             
     1     -2.7211652     23  2.200                                             
     1     21.7055443     23  2.200                                             
     3      2.7211652     23  2.300                                             
  local pseudopotential read in
  partial core-charges read in
  partial kinetic energy density read in
  atomic valenz-charges read in
  non local Contribution for L=           2  read in
    real space projection operators read in
  non local Contribution for L=           2  read in
    real space projection operators read in
  non local Contribution for L=           0  read in
    real space projection operators read in
  non local Contribution for L=           0  read in
    real space projection operators read in
  non local Contribution for L=           1  read in
    real space projection operators read in
  non local Contribution for L=           1  read in
    real space projection operators read in
    PAW grid and wavefunctions read in
 
   number of l-projection  operators is LMAX  =           6
   number of lm-projection operators is LMMAX =          18
 
 POTCAR:    PAW_PBE Fe 06Sep2000                  
   VRHFIN =Fe:  d7 s1                                                           
   LEXCH  = PE                                                                  
   EATOM  =   594.3153 eV,   43.6809 Ry                                         
                                                                                
   TITEL  = PAW_PBE Fe 06Sep2000                                                
   LULTRA =        F    use ultrasoft PP ?                                      
   IUNSCR =        1    unscreen: 0-lin 1-nonlin 2-no                           
   RPACOR =    2.000    partial core radius                                     
   POMASS =   55.847; ZVAL   =    8.000    mass and valenz                      
   RCORE  =    2.300    outmost cutoff radius                                   
   RWIGS  =    2.460; RWIGS  =    1.302    wigner-seitz radius (au A)           
   ENMAX  =  267.882; ENMIN  =  200.911 eV                                      
   RCLOC  =    1.701    cutoff for local pot                                    
   LCOR   =        T    correct aug charges                                     
   LPAW   =        T    paw PP                                                  
   EAUG   =  511.368                                                            
   DEXC   =    0.000                                                            
   RMAX   =    2.356    core radius for proj-oper                               
   RAUG   =    1.300    factor for augmentation sphere                          
   RDEP   =    2.442    radius for radial grids                                 
   RDEPT  =    1.890    core radius for aug-charge                              
                                                                                
   Atomic configuration                                                         
    9 entries                                                                   
     n  l   j            E        occ.                                          
     1  0  0.50     -6993.8440   2.0000                                         
     2  0  0.50      -814.6047   2.0000                                         
     2  1  1.50      -693.3689   6.0000                                         
     3  0  0.50       -89.4732   2.0000                                         
     3  1  1.50       -55.6373   6.0000                                         
     3  2  2.50        -3.8151   7.0000                                         
     4  0  0.50        -4.2551   1.0000                                         
     4  1  1.50        -3.4015   0.0000                                         
     4  3  2.50        -1.3606   0.0000                                         
   Description                                                                  
     l       E           TYP  RCUT    TYP  RCUT                                 
     2     -3.8151135     23  2.300                                             
     2     -5.1756961     23  2.300                                             
     0     -4.2550963     23  2.300                                             
     0      7.2035603     23  2.300                                             
     1     -2.7211652     23  2.300                                             
     1     18.4316424     23  2.300                                             
  local pseudopotential read in
  partial core-charges read in
  partial kinetic energy density read in
  atomic valenz-charges read in
  non local Contribution for L=           2  read in
    real space projection operators read in
  non local Contribution for L=           2  read in
    real space projection operators read in
  non local Contribution for L=           0  read in
    real space projection operators read in
  non local Contribution for L=           0  read in
    real space projection operators read in
  non local Contribution for L=           1  read in
    real space projection operators read in
  non local Contribution for L=           1  read in
    real space projection operators read in
    PAW grid and wavefunctions read in
 
   number of l-projection  operators is LMAX  =           6
   number of lm-projection operators is LMMAX =          18
 

 ----------------------------------------------------------------------------- 
|                                                                             |
|  ADVICE TO THIS USER RUNNING 'VASP/VAMP'   (HEAR YOUR MASTER'S VOICE ...):  |
|                                                                             |
|      You have a (more or less) 'large supercell' and for larger cells       |
|      it might be more efficient to use real space projection opertators     |
|      So try LREAL= Auto  in the INCAR   file.                               |
|      Mind:          For very  accurate calculation you might also keep the  |
|      reciprocal projection scheme          (i.e. LREAL=.FALSE.)             |
|                                                                             |
 ----------------------------------------------------------------------------- 

  PAW_PBE C 08Apr2002                   :
 energy of atom  1       EATOM= -147.1560
 kinetic energy error for atom=    0.0076 (will be added to EATOM!!)
  PAW_PBE N 08Apr2002                   :
 energy of atom  2       EATOM= -264.5486
 kinetic energy error for atom=    0.0138 (will be added to EATOM!!)
  PAW_PBE Cu 22Jun2005                  :
 energy of atom  3       EATOM=-1390.9808
 kinetic energy error for atom=    0.0043 (will be added to EATOM!!)
  PAW_PBE Fe 06Sep2000                  :
 energy of atom  4       EATOM= -594.3153
 kinetic energy error for atom=    0.0026 (will be added to EATOM!!)
 
 
 POSCAR:  C  N Cu Fe                             
  positions in cartesian coordinates
  No initial velocities read in
 exchange correlation table for  LEXCH =        8
   RHO(1)=    0.500       N(1)  =     2000
   RHO(2)=  100.500       N(2)  =     4000

 VTST: version 3.2, (02/03/18)

 CHAIN: initializing optimizer
 
 OPT: Using VASP Conjugate-Gradient optimizer
 CHAIN: Read ICHAIN            0
 
 POSCAR:  C  N Cu Fe                             
  positions in cartesian coordinates
  No initial velocities read in
 


--------------------------------------------------------------------------------------------------------


 ion  position               nearest neighbor table
   1  0.222  0.999  0.500-   4 1.41   3 1.41  17 1.42
   2  0.055  0.100  0.500-  34 1.42   7 1.43   3 1.43
   3  0.110  0.000  0.500-   1 1.41  15 1.43   2 1.43
   4  0.277  0.096  0.500-   1 1.41  19 1.42   5 1.42
   5  0.223  0.196  0.500-   4 1.42   7 1.42   8 1.42
   6  0.058  0.300  0.500-   7 1.44  38 1.45  10 1.45
   7  0.111  0.199  0.500-   5 1.42   2 1.43   6 1.44
   8  0.282  0.292  0.500-  51 1.37  53 1.39   5 1.42
   9  0.064  0.498  0.500-  10 1.46  12 1.47  42 1.47
  10  0.121  0.397  0.500-  51 1.41   6 1.45   9 1.46
  11  0.057  0.700  0.500-  46 1.42  16 1.43  12 1.44
  12  0.117  0.602  0.500-  52 1.36  11 1.44   9 1.47
  13  0.277  0.704  0.500-  52 1.37  14 1.41  25 1.43
  14  0.222  0.802  0.500-  13 1.41  17 1.42  16 1.42
  15  0.055  0.900  0.500-  50 1.41  16 1.43   3 1.43
  16  0.111  0.801  0.500-  14 1.42  15 1.43  11 1.43
  17  0.277  0.901  0.500-  28 1.41  14 1.42   1 1.42
  18  0.556  0.998  0.500-  20 1.41  30 1.42  21 1.42
  19  0.389  0.096  0.500-  23 1.41   4 1.42  20 1.42
  20  0.445  0.998  0.500-  18 1.41  19 1.42  28 1.42
  21  0.611  0.097  0.500-  22 1.41  32 1.42  18 1.42
  22  0.555  0.194  0.500-  54 1.39  21 1.41  23 1.42
  23  0.443  0.194  0.500-  53 1.38  19 1.41  22 1.42
  24  0.553  0.606  0.500-  55 1.37  56 1.38  26 1.42
  25  0.390  0.703  0.500-  56 1.40  29 1.41  13 1.43
  26  0.611  0.703  0.500-  27 1.42  24 1.42  44 1.42
  27  0.556  0.802  0.500-  30 1.42  29 1.42  26 1.42
  28  0.389  0.900  0.500-  17 1.41  20 1.42  29 1.42
  29  0.444  0.801  0.500-  25 1.41  27 1.42  28 1.42
  30  0.612  0.900  0.500-  48 1.41  27 1.42  18 1.42
  31  0.889  0.000  0.500-  33 1.41  34 1.44  50 1.44
  32  0.723  0.099  0.500-  21 1.42  33 1.43  37 1.44
  33  0.778  1.000  0.500-  31 1.41  32 1.43  48 1.44
  34  0.943  0.101  0.500-   2 1.42  31 1.44  35 1.44
  35  0.888  0.201  0.500-  37 1.43  34 1.44  38 1.44
  36  0.715  0.299  0.500-  54 1.39  37 1.45  41 1.46
  37  0.775  0.200  0.500-  35 1.43  32 1.44  36 1.45
  38  0.944  0.302  0.500-  39 1.44  35 1.44   6 1.45
  39  0.886  0.401  0.500-  38 1.44  42 1.45  41 1.47
  40  0.715  0.503  0.500-  55 1.41  45 1.44  41 1.45
  41  0.770  0.401  0.500-  40 1.45  36 1.46  39 1.47
  42  0.948  0.499  0.500-  43 1.45  39 1.45   9 1.47
  43  0.890  0.598  0.500-  45 1.44  46 1.44  42 1.45
  44  0.723  0.700  0.500-  26 1.42  49 1.43  45 1.44
  45  0.777  0.599  0.500-  44 1.44  43 1.44  40 1.44
  46  0.945  0.699  0.500-  11 1.42  47 1.44  43 1.44
  47  0.890  0.799  0.500-  49 1.42  50 1.44  46 1.44
  48  0.723  0.899  0.500-  30 1.41  49 1.43  33 1.44
  49  0.778  0.800  0.500-  47 1.42  44 1.43  48 1.43
  50  0.944  0.900  0.500-  15 1.41  47 1.44  31 1.44
  51  0.232  0.388  0.500-   8 1.37  10 1.41  57 1.93
  52  0.224  0.609  0.500-  12 1.36  13 1.37  57 1.96
  53  0.391  0.291  0.500-  23 1.38   8 1.39  58 1.96
  54  0.606  0.292  0.501-  36 1.39  22 1.39  58 1.91
  55  0.604  0.510  0.500-  24 1.37  40 1.41  58 1.89
  56  0.444  0.606  0.500-  24 1.38  25 1.40  57 1.90
  57  0.336  0.501  0.500-  56 1.90  51 1.93  52 1.96  58 2.43
  58  0.500  0.401  0.501-  55 1.89  54 1.91  53 1.96  57 2.43
 
  LATTYP: Found a triclinic cell.
 ALAT       =    17.8236992414
 B/A-ratio  =     0.7034723796
 C/A-ratio  =     1.1209993736
 COS(alpha) =     0.0000517743
 COS(beta)  =     0.0004512583
 COS(gamma) =     0.7027192301
  
  Lattice vectors:
  
 A1 = (  12.6748398931, -12.5312677285,  -0.0041771908)
 A2 = (  -0.0061433688, -12.5384786021,  -0.0005251799)
 A3 = (   0.0058959275,  -0.0002004713, -19.9803548142)


Analysis of symmetry for initial positions (statically):
=====================================================================
 Subroutine PRICEL returns:
 Original cell was already a primitive cell.
 

 Routine SETGRP: Setting up the symmetry group for a 
 triclinic supercell.


 Subroutine GETGRP returns: Found  1 space group operations
 (whereof  1 operations were pure point group operations)
 out of a pool of  2 trial point group operations.


The static configuration has the point symmetry C_1 .


Analysis of symmetry for dynamics (positions and initial velocities):
=====================================================================
 Subroutine PRICEL returns:
 Original cell was already a primitive cell.
 

 Routine SETGRP: Setting up the symmetry group for a 
 triclinic supercell.


 Subroutine GETGRP returns: Found  1 space group operations
 (whereof  1 operations were pure point group operations)
 out of a pool of  2 trial point group operations.


The dynamic configuration has the point symmetry C_1 .


Analysis of structural, dynamic, and magnetic symmetry:
=====================================================================
 Subroutine PRICEL returns:
 Original cell was already a primitive cell.
 

 Routine SETGRP: Setting up the symmetry group for a 
 triclinic supercell.


 Subroutine GETGRP returns: Found  1 space group operations
 (whereof  1 operations were pure point group operations)
 out of a pool of  2 trial point group operations.


The magnetic configuration has the point symmetry C_1 .


 Subroutine INISYM returns: Found  1 space group operations
 (whereof  1 operations are pure point group operations),
 and found     1 'primitive' translations

 
 
 KPOINTS: KPOINTS created by Atomic Simulation Env

Automatic generation of k-mesh.
Space group operators:
 irot       det(A)        alpha          n_x          n_y          n_z        tau_x        tau_y        tau_z
    1     1.000000     0.000000     1.000000     0.000000     0.000000     0.000000     0.000000     0.000000
 
 Subroutine IBZKPT returns following result:
 ===========================================
 
 Found      2 irreducible k-points:
 
 Following reciprocal coordinates:
            Coordinates               Weight
  0.250000  0.250000  0.000000      2.000000
 -0.250000  0.250000  0.000000      2.000000
 
 Following cartesian coordinates:
            Coordinates               Weight
  0.019703  0.019929  0.000006      2.000000
 -0.019726  0.019948 -0.000006      2.000000
 
 
 Subroutine IBZKPT_HF returns following result:
 ==============================================
 
 Found      4 k-points in 1st BZ
 the following      4 k-points will be used (e.g. in the exchange kernel)
 Following reciprocal coordinates:   # in IRBZ
  0.250000  0.250000  0.000000    0.25000000   1 t-inv F
 -0.250000  0.250000  0.000000    0.25000000   2 t-inv F
 -0.250000 -0.250000 -0.000000    0.25000000   1 t-inv T
  0.250000 -0.250000  0.000000    0.25000000   2 t-inv T


--------------------------------------------------------------------------------------------------------




 Dimension of arrays:
   k-points           NKPTS =      2   k-points in BZ     NKDIM =      4   number of bands    NBANDS=    156
   number of dos      NEDOS =    301   number of ions     NIONS =     58
   non local maximal  LDIM  =      6   non local SUM 2l+1 LMDIM =     18
   total plane-waves  NPLWV = ******
   max r-space proj   IRMAX =      1   max aug-charges    IRDMAX=  15698
   dimension x,y,z NGX =    96 NGY =   96 NGZ =  150
   dimension x,y,z NGXF=   192 NGYF=  192 NGZF=  300
   support grid    NGXF=   192 NGYF=  192 NGZF=  300
   ions per type =              50   6   1   1
   NGX,Y,Z   is equivalent  to a cutoff of  12.59, 12.73, 12.48 a.u.
   NGXF,Y,Z  is equivalent  to a cutoff of  25.17, 25.46, 24.96 a.u.

 SYSTEM =  unknown system                          
 POSCAR =   C  N Cu Fe                             

 Startparameter for this run:
   NWRITE =      2    write-flag & timer
   PREC   = accura    normal or accurate (medium, high low for compatibility)
   ISTART =      1    job   : 0-new  1-cont  2-samecut
   ICHARG =      0    charge: 1-file 2-atom 10-const
   ISPIN  =      2    spin polarized calculation?
   LNONCOLLINEAR =      F non collinear calculations
   LSORBIT =      F    spin-orbit coupling
   INIWAV =      1    electr: 0-lowe 1-rand  2-diag
   LASPH  =      T    aspherical Exc in radial PAW
   METAGGA=      F    non-selfconsistent MetaGGA calc.

 Electronic Relaxation 1
   ENCUT  =  500.0 eV  36.75 Ry    6.06 a.u.  23.12 22.86 36.43*2*pi/ulx,y,z
   ENINI  =  500.0     initial cutoff
   ENAUG  =  644.9 eV  augmentation charge cutoff
   NELM   =    250;   NELMIN=  2; NELMDL=  0     # of ELM steps 
   EDIFF  = 0.1E-03   stopping-criterion for ELM
   LREAL  =      F    real-space projection
   NLSPLINE    = F    spline interpolate recip. space projectors
   LCOMPAT=      F    compatible to vasp.4.4
   GGA_COMPAT  = T    GGA compatible to vasp.4.4-vasp.4.6
   LMAXPAW     = -100 max onsite density
   LMAXMIX     =    2 max onsite mixed and CHGCAR
   VOSKOWN=      0    Vosko Wilk Nusair interpolation
   ROPT   =    0.00000   0.00000   0.00000   0.00000
 Ionic relaxation
   EDIFFG = -.3E-01   stopping-criterion for IOM
   NSW    =      0    number of steps for IOM
   NBLOCK =      1;   KBLOCK =      1    inner block; outer block 
   IBRION =     -1    ionic relax: 0-MD 1-quasi-New 2-CG
   NFREE  =      1    steps in history (QN), initial steepest desc. (CG)
   ISIF   =      2    stress and relaxation
   IWAVPR =     10    prediction:  0-non 1-charg 2-wave 3-comb
   ISYM   =      3    0-nonsym 1-usesym 2-fastsym
   LCORR  =      T    Harris-Foulkes like correction to forces

   POTIM  = 0.5000    time-step for ionic-motion
   TEIN   =    0.0    initial temperature
   TEBEG  =    0.0;   TEEND  =   0.0 temperature during run
   SMASS  =  -3.00    Nose mass-parameter (am)
   estimated Nose-frequenzy (Omega)   =  0.10E-29 period in steps =****** mass=  -0.367E-26a.u.
   SCALEE = 1.0000    scale energy and forces
   NPACO  =    256;   APACO  = 16.0  distance and # of slots for P.C.
   PSTRESS=    0.0 pullay stress

  Mass of Ions in am
   POMASS =  12.01 14.00 63.55 55.85
  Ionic Valenz
   ZVAL   =   4.00  5.00 11.00  8.00
  Atomic Wigner-Seitz radii
   RWIGS  =  -1.00 -1.00 -1.00 -1.00
  virtual crystal weights 
   VCA    =   1.00  1.00  1.00  1.00
   NELECT =     249.0000    total number of electrons
   NUPDOWN=      -1.0000    fix difference up-down

 DOS related values:
   EMIN   =  10.00;   EMAX   =-10.00  energy-range for DOS
   EFERMI =   0.00
   ISMEAR =     0;   SIGMA  =   0.10  broadening in eV -4-tet -1-fermi 0-gaus

 Electronic relaxation 2 (details)
   IALGO  =     53    algorithm
   LDIAG  =      T    sub-space diagonalisation (order eigenvalues)
   LSUBROT=      F    optimize rotation matrix (better conditioning)
   TURBO    =      0    0=normal 1=particle mesh
   IRESTART =      0    0=no restart 2=restart with 2 vectors
   NREBOOT  =      0    no. of reboots
   NMIN     =      0    reboot dimension
   EREF     =   0.00    reference energy to select bands
   IMIX   =      4    mixing-type and parameters
     AMIX     =   0.40;   BMIX     =  1.00
     AMIX_MAG =   1.60;   BMIX_MAG =  1.00
     AMIN     =   0.10
     WC   =   100.;   INIMIX=   1;  MIXPRE=   1;  MAXMIX= -45

 Intra band minimization:
   WEIMIN = 0.0000     energy-eigenvalue tresh-hold
   EBREAK =  0.16E-06  absolut break condition
   DEPER  =   0.30     relativ break condition  

   TIME   =   0.20     timestep for ELM

  volume/ion in A,a.u.               =      54.77       369.63
  Fermi-wavevector in a.u.,A,eV,Ry     =   0.700607  1.323955  6.678418  0.490850
  Thomas-Fermi vector in A             =   1.784806
 
 Write flags
   LWAVE        =      T    write WAVECAR
   LDOWNSAMPLE  =      F    k-point downsampling of WAVECAR
   LCHARG       =      T    write CHGCAR
   LVTOT        =      F    write LOCPOT, total local potential
   LVHAR        =      T    write LOCPOT, Hartree potential only
   LELF         =      F    write electronic localiz. function (ELF)
   LORBIT       =     11    0 simple, 1 ext, 2 COOP (PROOUT), +10 PAW based schemes


 Dipole corrections
   LMONO  =      F    monopole corrections only (constant potential shift)
   LDIPOL =      T    correct potential (dipole corrections)
   IDIPOL =      3    1-x, 2-y, 3-z, 4-all directions 
   EPSILON=  1.0000000 bulk dielectric constant

 Exchange correlation treatment:
   GGA     =    PE    GGA type
   LEXCH   =     8    internal setting for exchange type
   VOSKOWN=      0    Vosko Wilk Nusair interpolation
   EXXOEP  =     0    0=HF, 1=EXX-LHF (local Hartree Fock) 2=EXX OEP
   LHFCALC =     T    Hartree Fock is set to
   LSYMGRAD=     F    symmetrize gradient (conserves proper symmetry)
   PRECFOCK=normal    Normal, Fast or Accurate (Low or Medium for compatibility)
   LRHFCALC=     F    long range Hartree Fock
   LRSCOR  =     F    long range correlation only (use DFT for short range part)
   LTHOMAS =     F    Thomas Fermi screening in HF
   LMODELHF=     F    short range full HF, long range fraction AEXX
   ENCUT4O =  -1.0   cutoff for four orbital integrals eV
   LMAXFOCK=     4    L truncation for augmentation on plane wave grid
   LMAXFOCKAE=  -1    L truncation for all-electron charge restoration on plane wave grid
   NMAXFOCKAE=   1    number of basis functions for all-electron charge restoration
   LFOCKAEDFT=     F  apply the AE augmentation even for DFT
   NKREDX  =     1    reduce k-point grid by
   NKREDY  =     1    reduce k-point grid by
   NKREDZ  =     1    reduce k-point grid by
   SHIFTRED=     F    shift reduced grid of Gamma
   HFKIDENT=     F    idential grid for each k-point
   ODDONLY =     F    use only odd q-grid points
   EVENONLY=     F    use only even q-grid points
   HFALPHA =   -1.0000 decay constant for conv. correction
   MCALPHA =    0.0000 extent of test-charge in conv. correction in multipole expansion
   AEXX    =    0.2500 exact exchange contribution
   HFSCREEN=    0.2000 screening length (either q_TF or 0.3 A-1)
   HFSCREENC=   0.2000 screening length for correlation (either q_TF or 0.3 A-1)
   HFRCUT  =    0.0000 spherical cutoff for potential kernel
   ALDAX   =    0.7500 LDA exchange part
   AGGAX   =    0.7500 GGA exchange part
   ALDAC   =    1.0000 LDA correlation
   AGGAC   =    1.0000 GGA correlation
   ENCUTFOCK=  -1.0 apply spherical cutoff to Coloumb kernel
   NBANDSGWLOW=     1    first orbital included in HF term
   NBLOCK_FOCK=    64    blocking factor in FOCK_ACC
 Linear response parameters
   LEPSILON=     F    determine dielectric tensor
   LRPA    =     F    only Hartree local field effects (RPA)
   LNABLA  =     F    use nabla operator in PAW spheres
   LVEL    =     F    velocity operator in full k-point grid
   LINTERFAST=   F  fast interpolation
   KINTER  =     0    interpolate to denser k-point grid
   CSHIFT  =0.1000    complex shift for real part using Kramers Kronig
   OMEGAMAX=  -1.0    maximum frequency
   DEG_THRESHOLD= 0.2000000E-02 threshold for treating states as degnerate
   RTIME   =   -0.100 relaxation time in fs
  (WPLASMAI=    0.000 imaginary part of plasma frequency in eV, 0.658/RTIME)
   DFIELD  = 0.0000000 0.0000000 0.0000000 field for delta impulse in time
 
 Orbital magnetization related:
   ORBITALMAG=     F  switch on orbital magnetization
   LCHIMAG   =     F  perturbation theory with respect to B field
   DQ        =  0.001000  dq finite difference perturbation B field
   LLRAUG    =     F  two centre corrections for induced B field



--------------------------------------------------------------------------------------------------------


 Static calculation
 charge density and potential will be updated during run
 spin polarized calculation
 Conjugate gradient for all bands (Freysoldt, et al. PRB 79, 241103 (2009))
 perform sub-space diagonalisation
    before iterative eigenvector-optimisation
 modified Broyden-mixing scheme, WC =      100.0
 initial mixing is a Kerker type mixing with AMIX =  0.4000 and BMIX =      1.0000
 Hartree-type preconditioning will be used
 using additional bands           31
 reciprocal scheme for non local part
 use partial core corrections
 no Harris-corrections to forces 
 use gradient corrections 
 use of overlap-Matrix (Vanderbilt PP)
 Gauss-broadening in eV      SIGMA  =   0.10


--------------------------------------------------------------------------------------------------------


  energy-cutoff  :      500.00
  volume of cell :     3176.88
      direct lattice vectors                 reciprocal lattice vectors
    12.680983262  0.007210874 -0.003652011     0.078858267 -0.000038638  0.000023270
     0.006143369 12.538478602  0.000525180    -0.000045352  0.079754515 -0.000000814
    -0.005895927  0.000200471 19.980354814     0.000014415 -0.000002103  0.050049166

  length of vectors
    12.680985838 12.538480118 19.980355685     0.078858280  0.079754528  0.050049168


 
 old parameters found on file WAVECAR:
  energy-cutoff  :      500.00
  volume of cell :     3176.88
      direct lattice vectors                 reciprocal lattice vectors
    12.810000000  0.000000000  0.000000000     0.078064012  0.000000000  0.000000000
     0.000000000 12.400000000  0.000000000     0.000000000  0.080645161  0.000000000
     0.000000000  0.000000000 20.000000000     0.000000000  0.000000000  0.050000000

  length of vectors

 
 k-points in units of 2pi/SCALE and weight: KPOINTS created by Atomic Simulation Env
   0.01970323  0.01992897  0.00000561       0.500
  -0.01972590  0.01994829 -0.00000602       0.500
 
 k-points in reciprocal lattice and weights: KPOINTS created by Atomic Simulation Env
   0.25000000  0.25000000  0.00000000       0.500
  -0.25000000  0.25000000  0.00000000       0.500
 
 position of ions in fractional coordinates (direct lattice) 
   0.22151419  0.99906020  0.49999100
   0.05519964  0.10005211  0.49997785
   0.11000638  0.00002644  0.50000142
   0.27740606  0.09645552  0.49999813
   0.22331112  0.19551490  0.50009533
   0.05807154  0.30043795  0.50002616
   0.11134509  0.19914656  0.50003216
   0.28199209  0.29204217  0.50019453
   0.06399044  0.49833845  0.49998286
   0.12073857  0.39693154  0.50005053
   0.05694605  0.70009122  0.50001258
   0.11713214  0.60217049  0.49997069
   0.27682904  0.70388323  0.50006345
   0.22238997  0.80232650  0.50004439
   0.05537040  0.90013531  0.50001297
   0.11064769  0.80067708  0.50001277
   0.27743436  0.90057748  0.50002555
   0.55586915  0.99808808  0.49981223
   0.38904619  0.09567600  0.49994023
   0.44484892  0.99757492  0.49987547
   0.61083745  0.09687037  0.49989697
   0.55542481  0.19433791  0.50029481
   0.44330031  0.19365711  0.50011351
   0.55312588  0.60626028  0.50003201
   0.38997956  0.70274054  0.50018261
   0.61091509  0.70314024  0.49984752
   0.55605386  0.80179753  0.49993006
   0.38854186  0.89972050  0.49998266
   0.44422417  0.80117356  0.50004468
   0.61171322  0.89969577  0.49987879
   0.88918370  0.00015363  0.49996245
   0.72254665  0.09902587  0.49991169
   0.77779582  0.99963418  0.49993752
   0.94320053  0.10078610  0.49990800
   0.88807150  0.20139832  0.49984055
   0.71492095  0.29876242  0.50025605
   0.77529636  0.20041739  0.49988047
   0.94407335  0.30162854  0.49993643
   0.88641797  0.40081446  0.50000148
   0.71511295  0.50267090  0.50003574
   0.77015676  0.40114470  0.50014073
   0.94785651  0.49852837  0.49998954
   0.89013229  0.59801550  0.50000690
   0.72283457  0.70022848  0.49986692
   0.77660568  0.59919337  0.49995707
   0.94485508  0.69882107  0.50001914
   0.88992811  0.79923620  0.50002516
   0.72316790  0.89943622  0.49993743
   0.77813600  0.79962921  0.49995863
   0.94406780  0.89975940  0.50002064
   0.23190561  0.38848860  0.50004062
   0.22406655  0.60881008  0.49992055
   0.39130339  0.29080532  0.50022561
   0.60585187  0.29244787  0.50104848
   0.60420666  0.50957131  0.49991280
   0.44424298  0.60555053  0.50030193
   0.33587628  0.50086337  0.49988780
   0.50027094  0.40119864  0.50124574
 
 position of ions in cartesian coordinates  (Angst):
   2.81220737 12.52839249  9.98971339
   0.69765249  1.25499950  9.98958576
   1.39204131  0.00122500  9.98980411
   3.51542620  1.21150603  9.98917770
   2.83005722  2.45316994  9.99136933
   0.73530187  3.76755384  9.99064573
   1.41024044  2.49789802  9.99051798
   3.57478202  3.66389820  9.99318768
   0.81157530  6.24896764  9.98986298
   1.53057401  4.97788851  9.99095447
   0.72348483  8.77858963  9.99058839
   1.48610223  7.55124661  9.98948032
   3.51184032  8.82772124  9.99080392
   2.82210423 10.06165755  9.99067360
   0.70473294 11.28682682  9.99070707
   1.40509230 10.04017053  9.99044901
   3.52072492 11.29397230  9.99014763
   7.05215213 12.51861459  9.98491985
   4.93112842  1.20253709  9.98761263
   5.64430295 12.51137973  9.98658851
   7.74366723  1.21911194  9.98593894
   7.04157687  2.44080712  9.99414143
   5.61972486  2.43146239  9.99092810
   7.01495635  7.60567032  9.98911527
   4.94669249  8.81420954  9.99277086
   7.74837666  8.82081428  9.98526891
   7.05328792 10.05743097  9.98717031
   4.92967231 11.28402819  9.98888460
   5.63517292 10.04880106  9.98986864
   7.75970502 11.28532732  9.98599409
  11.27277687  0.00843828  9.98617995
   9.16026285  1.24694420  9.98582617
   9.86640931 12.53960063  9.98661342
  11.95838193  1.27060591  9.98494748
  11.25991010  2.53173255  9.98385406
   9.06478652  3.75128166  9.99283936
   9.82980413  2.51861996  9.98506305
  11.97068372  3.78887087  9.98561796
  11.24016581  5.03209559  9.98718036
   9.06847521  6.30798510  9.98854395
   9.76586060  5.03539800  9.99038726
  12.01986730  6.25772235  9.98676869
  11.28847852  7.50472338  9.98737866
   9.16760765  8.78511227  9.98524634
   9.84885698  7.51867345  9.98679821
  11.98303649  8.76906649  9.98747624
  11.28712530 10.02772343  9.98784982
   9.17305796 11.28287665  9.98675865
   9.86949424 10.03184505  9.98692901
  11.97428739 11.28852172  9.98761460
   2.94022956  4.87282845  9.99034617
   2.84217677  7.63526814  9.98809145
   4.96094901  3.64917822  9.99340880
   7.68163995  3.67132049 10.00906735
   7.66211763  6.39370607  9.98649611
   5.63420813  7.59598602  9.99490570
   4.25937119  6.28258678  9.98697201
   6.34343687  5.03412845 10.01345144
 


--------------------------------------------------------------------------------------------------------


 k-point  1 :   0.2500 0.2500 0.0000  plane waves:   80666
 k-point  2 :  -0.2500 0.2500 0.0000  plane waves:   80654

 maximum and minimum number of plane-waves per node :      2053     1979

 maximum number of plane-waves:     80666
 maximum index in each direction: 
   IXMAX=   23   IYMAX=   22   IZMAX=   36
   IXMIN=  -23   IYMIN=  -23   IZMIN=  -36


 parallel 3D FFT for wavefunctions:
    minimum data exchange during FFTs selected (reduces bandwidth)
 parallel 3D FFT for charge:
    minimum data exchange during FFTs selected (reduces bandwidth)


 FFT grid for exact exchange (Hartree Fock) 
  NGX = 70; NGY = 70; NGZ =112

 
 Radii for the augmentation spheres in the non-local exchange
 for species   1 augmentation radius   0.874 (default was   0.699)
       energy cutoff for augmentation   2000.0
 for species   2 augmentation radius   0.886 (default was   0.709)
       energy cutoff for augmentation   2000.0
 for species   3 augmentation radius   1.179 (default was   0.943)
       energy cutoff for augmentation   2000.0
 for species   4 augmentation radius   1.263 (default was   1.010)
       energy cutoff for augmentation   2000.0

 real space projection operators:
  total allocation   :       2400.22 KBytes
  max/ min on nodes  :         86.66         42.64

 Maximum index for augmentation-charges in exchange           75
  SETUP_FOCK is finished

 total amount of memory used by VASP MPI-rank0   141543. kBytes
=======================================================================

   base      :      30000. kBytes
   nonl-proj :       4286. kBytes
   fftplans  :      11851. kBytes
   grid      :      31266. kBytes
   one-center:         62. kBytes
   HF        :         23. kBytes
   nonlr-proj:       1547. kBytes
   wavefun   :      62508. kBytes
 
     INWAV:  cpu time    6.2241: real time    6.2433
 Broyden mixing: mesh for mixing (old mesh)
   NGX = 47   NGY = 45   NGZ = 73
  (NGX  =192   NGY  =192   NGZ  =300)
  gives a total of 154395 points

 charge density for first step will be calculated from the start-wavefunctions


--------------------------------------------------------------------------------------------------------


 Maximum index for augmentation-charges          337 (set IRDMAX)


--------------------------------------------------------------------------------------------------------


 initial charge from wavefunction
 First call to EWALD:  gamma=   0.121
 Maximum number of real-space cells 3x 3x 2
 Maximum number of reciprocal cells 2x 2x 4

    FEWALD:  cpu time    0.0030: real time    0.0034


--------------------------------------- Iteration      1(   1)  ---------------------------------------


    POTLOK:  cpu time    1.1103: real time    1.1191
    SETDIJ:  cpu time    1.2317: real time    1.2353
    TRIAL :  cpu time  210.8129: real time  211.5350
    CORREC:  cpu time    0.0010: real time    0.0010
    CHARGE:  cpu time    1.2073: real time    1.2109
    --------------------------------------------
      LOOP:  cpu time  214.3837: real time  215.1243

 eigenvalue-minimisations  :     0
 total energy-change (2. order) :-0.6023492E+03  (-0.4787158E+00)
 number of electron     249.0000002 magnetization       1.8000493
 augmentation part       17.2962315 magnetization       1.3294156

 DIPCOR: dipole corrections for dipol
 direction  3 min pos     1,
 dipolmoment           0.000004     -0.000000     -0.013744 electrons x Angstroem
 Tr[quadrupol]     -6817.117706

 energy correction for charged system         0.000000 eV
 dipol+quadrupol energy correction            0.000005 eV
 added-field ion interaction          0.000000 eV  (added to PSCEN)


 Free energy of the ion-electron system (eV)
  ---------------------------------------------------
  alpha Z        PSCENC =       102.59828501
  Ewald energy   TEWEN  =     40799.12675985
  -Hartree energ DENC   =    -50168.25837583
  -exchange      EXHF   =       574.29993632
  -V(xc)+E(xc)   XCENC  =       658.19846225
  PAW double counting   =     27190.41900857   -27328.36369115
  entropy T*S    EENTRO =        -0.04763257
  eigenvalues    EBANDS =     -3248.81146907
  atomic energy  EATOM  =     10818.48933584
  ---------------------------------------------------
  free energy    TOTEN  =      -602.34920026 eV

  energy without entropy =     -602.30156768  energy(sigma->0) =     -602.32538397
  exchange ACFDT corr.  =        -0.04773203  see jH, gK, PRB 81, 115126


--------------------------------------------------------------------------------------------------------




--------------------------------------- Iteration      1(   2)  ---------------------------------------


    POTLOK:  cpu time    1.1358: real time    1.1394
    SETDIJ:  cpu time    1.2062: real time    1.2097
    TRIAL :  cpu time  208.1746: real time  208.8518
    CORREC:  cpu time    0.0010: real time    0.0010
    CHARGE:  cpu time    1.2072: real time    1.2104
    --------------------------------------------
      LOOP:  cpu time  211.7268: real time  212.4176

 eigenvalue-minimisations  :     0
 total energy-change (2. order) :-0.3677055E+00  (-0.4047168E+00)
 number of electron     249.0000003 magnetization       1.8057387
 augmentation part       17.2754790 magnetization       1.3484398

 DIPCOR: dipole corrections for dipol
 direction  3 min pos     1,
 dipolmoment           0.000004     -0.000000     -0.014082 electrons x Angstroem
 Tr[quadrupol]     -6816.980404

 energy correction for charged system         0.000000 eV
 dipol+quadrupol energy correction            0.000006 eV
 added-field ion interaction          0.000000 eV  (added to PSCEN)


 Free energy of the ion-electron system (eV)
  ---------------------------------------------------
  alpha Z        PSCENC =       102.59828528
  Ewald energy   TEWEN  =     40799.12675985
  -Hartree energ DENC   =    -50161.57149215
  -exchange      EXHF   =       574.34617061
  -V(xc)+E(xc)   XCENC  =       658.02849332
  PAW double counting   =     27321.81370863   -27461.35753904
  entropy T*S    EENTRO =        -0.04759141
  eigenvalues    EBANDS =     -3254.14299548
  atomic energy  EATOM  =     10818.48933584
  ---------------------------------------------------
  free energy    TOTEN  =      -602.71690572 eV

  energy without entropy =     -602.66931431  energy(sigma->0) =     -602.69311002
  exchange ACFDT corr.  =        -0.04912449  see jH, gK, PRB 81, 115126


--------------------------------------------------------------------------------------------------------




--------------------------------------- Iteration      1(   3)  ---------------------------------------


    POTLOK:  cpu time    1.1435: real time    1.1497
    SETDIJ:  cpu time    1.2118: real time    1.2150
    TRIAL :  cpu time  207.9012: real time  208.6004
    CORREC:  cpu time    0.0010: real time    0.0010
    CHARGE:  cpu time    1.2017: real time    1.2050
    --------------------------------------------
      LOOP:  cpu time  211.4615: real time  212.1780

 eigenvalue-minimisations  :     0
 total energy-change (2. order) :-0.3099347E+00  (-0.2218205E+00)
 number of electron     249.0000003 magnetization       1.8104223
 augmentation part       17.2533599 magnetization       1.3602466

 DIPCOR: dipole corrections for dipol
 direction  3 min pos     1,
 dipolmoment           0.000004     -0.000000     -0.014294 electrons x Angstroem
 Tr[quadrupol]     -6816.815313

 energy correction for charged system         0.000000 eV
 dipol+quadrupol energy correction            0.000006 eV
 added-field ion interaction          0.000000 eV  (added to PSCEN)


 Free energy of the ion-electron system (eV)
  ---------------------------------------------------
  alpha Z        PSCENC =       102.59828545
  Ewald energy   TEWEN  =     40799.12675985
  -Hartree energ DENC   =    -50146.63735809
  -exchange      EXHF   =       574.26604242
  -V(xc)+E(xc)   XCENC  =       657.61669431
  PAW double counting   =     27486.01939716   -27624.71309650
  entropy T*S    EENTRO =        -0.04744554
  eigenvalues    EBANDS =     -3269.74530950
  atomic energy  EATOM  =     10818.48933584
  ---------------------------------------------------
  free energy    TOTEN  =      -603.02684045 eV

  energy without entropy =     -602.97939491  energy(sigma->0) =     -603.00311768
  exchange ACFDT corr.  =        -0.04763371  see jH, gK, PRB 81, 115126


--------------------------------------------------------------------------------------------------------




--------------------------------------- Iteration      1(   4)  ---------------------------------------


    POTLOK:  cpu time    1.1486: real time    1.1524
    SETDIJ:  cpu time    1.2250: real time    1.2293
    TRIAL :  cpu time  208.3247: real time  208.9818
    CORREC:  cpu time    0.0014: real time    0.0014
    CHARGE:  cpu time    1.2015: real time    1.2088
    --------------------------------------------
      LOOP:  cpu time  211.9033: real time  212.5812

 eigenvalue-minimisations  :     0
 total energy-change (2. order) :-0.1614439E+00  (-0.1249407E+00)
 number of electron     249.0000003 magnetization       1.8127591
 augmentation part       17.2699948 magnetization       1.3635402

 DIPCOR: dipole corrections for dipol
 direction  3 min pos     1,
 dipolmoment           0.000004     -0.000000     -0.013982 electrons x Angstroem
 Tr[quadrupol]     -6816.741222

 energy correction for charged system         0.000000 eV
 dipol+quadrupol energy correction            0.000006 eV
 added-field ion interaction          0.000000 eV  (added to PSCEN)


 Free energy of the ion-electron system (eV)
  ---------------------------------------------------
  alpha Z        PSCENC =       102.59828520
  Ewald energy   TEWEN  =     40799.12675985
  -Hartree energ DENC   =    -50138.08627925
  -exchange      EXHF   =       574.33520461
  -V(xc)+E(xc)   XCENC  =       657.38328903
  PAW double counting   =     27627.01888124   -27764.73717397
  entropy T*S    EENTRO =        -0.04724312
  eigenvalues    EBANDS =     -3279.26914137
  atomic energy  EATOM  =     10818.48933584
  ---------------------------------------------------
  free energy    TOTEN  =      -603.18828436 eV

  energy without entropy =     -603.14104124  energy(sigma->0) =     -603.16466280
  exchange ACFDT corr.  =        -0.04480367  see jH, gK, PRB 81, 115126


--------------------------------------------------------------------------------------------------------




--------------------------------------- Iteration      1(   5)  ---------------------------------------


    POTLOK:  cpu time    1.1502: real time    1.1536
    SETDIJ:  cpu time    1.1990: real time    1.2023
    TRIAL :  cpu time  208.3708: real time  209.0204
    CORREC:  cpu time    0.0010: real time    0.0010
    CHARGE:  cpu time    1.2077: real time    1.2110
    --------------------------------------------
      LOOP:  cpu time  211.9311: real time  212.5954

 eigenvalue-minimisations  :     0
 total energy-change (2. order) :-0.9482450E-01  (-0.6834264E-01)
 number of electron     249.0000003 magnetization       1.8090329
 augmentation part       17.2802983 magnetization       1.3614631

 DIPCOR: dipole corrections for dipol
 direction  3 min pos     1,
 dipolmoment           0.000004     -0.000000     -0.013652 electrons x Angstroem
 Tr[quadrupol]     -6816.769951

 energy correction for charged system         0.000000 eV
 dipol+quadrupol energy correction            0.000005 eV
 added-field ion interaction          0.000000 eV  (added to PSCEN)


 Free energy of the ion-electron system (eV)
  ---------------------------------------------------
  alpha Z        PSCENC =       102.59828494
  Ewald energy   TEWEN  =     40799.12675985
  -Hartree energ DENC   =    -50141.01284632
  -exchange      EXHF   =       574.62543438
  -V(xc)+E(xc)   XCENC  =       657.47049875
  PAW double counting   =     27729.82745921   -27868.05844414
  entropy T*S    EENTRO =        -0.04699048
  eigenvalues    EBANDS =     -3276.30234824
  atomic energy  EATOM  =     10818.48933584
  ---------------------------------------------------
  free energy    TOTEN  =      -603.28310886 eV

  energy without entropy =     -603.23611838  energy(sigma->0) =     -603.25961362
  exchange ACFDT corr.  =        -0.04341088  see jH, gK, PRB 81, 115126


--------------------------------------------------------------------------------------------------------




--------------------------------------- Iteration      1(   6)  ---------------------------------------


    POTLOK:  cpu time    1.1448: real time    1.1480
    SETDIJ:  cpu time    1.1810: real time    1.1842
    TRIAL :  cpu time  208.1954: real time  208.8782
    CORREC:  cpu time    0.0010: real time    0.0010
    CHARGE:  cpu time    1.2019: real time    1.2054
    --------------------------------------------
      LOOP:  cpu time  211.7261: real time  212.4244

 eigenvalue-minimisations  :     0
 total energy-change (2. order) :-0.5487190E-01  (-0.4426879E-01)
 number of electron     249.0000003 magnetization       1.8005040
 augmentation part       17.2779373 magnetization       1.3574151

 DIPCOR: dipole corrections for dipol
 direction  3 min pos     1,
 dipolmoment           0.000004     -0.000000     -0.013362 electrons x Angstroem
 Tr[quadrupol]     -6816.827470

 energy correction for charged system         0.000000 eV
 dipol+quadrupol energy correction            0.000005 eV
 added-field ion interaction          0.000000 eV  (added to PSCEN)


 Free energy of the ion-electron system (eV)
  ---------------------------------------------------
  alpha Z        PSCENC =       102.59828472
  Ewald energy   TEWEN  =     40799.12675985
  -Hartree energ DENC   =    -50145.43774340
  -exchange      EXHF   =       574.90195670
  -V(xc)+E(xc)   XCENC  =       657.59912120
  PAW double counting   =     27795.30694646   -27933.69259749
  entropy T*S    EENTRO =        -0.04671184
  eigenvalues    EBANDS =     -3272.18305415
  atomic energy  EATOM  =     10818.48933584
  ---------------------------------------------------
  free energy    TOTEN  =      -603.33798075 eV

  energy without entropy =     -603.29126891  energy(sigma->0) =     -603.31462483
  exchange ACFDT corr.  =        -0.04259804  see jH, gK, PRB 81, 115126


--------------------------------------------------------------------------------------------------------




--------------------------------------- Iteration      1(   7)  ---------------------------------------


    POTLOK:  cpu time    1.1428: real time    1.1480
    SETDIJ:  cpu time    1.2232: real time    1.2264
    TRIAL :  cpu time  208.2121: real time  208.8964
    CORREC:  cpu time    0.0011: real time    0.0011
    CHARGE:  cpu time    1.2004: real time    1.2037
    --------------------------------------------
      LOOP:  cpu time  211.7813: real time  212.4817

 eigenvalue-minimisations  :     0
 total energy-change (2. order) :-0.3532944E-01  (-0.2624839E-01)
 number of electron     249.0000003 magnetization       1.7895845
 augmentation part       17.2869165 magnetization       1.3531160

 DIPCOR: dipole corrections for dipol
 direction  3 min pos     1,
 dipolmoment           0.000004     -0.000000     -0.013171 electrons x Angstroem
 Tr[quadrupol]     -6816.873499

 energy correction for charged system         0.000000 eV
 dipol+quadrupol energy correction            0.000005 eV
 added-field ion interaction          0.000000 eV  (added to PSCEN)


 Free energy of the ion-electron system (eV)
  ---------------------------------------------------
  alpha Z        PSCENC =       102.59828457
  Ewald energy   TEWEN  =     40799.12675985
  -Hartree energ DENC   =    -50147.86844969
  -exchange      EXHF   =       575.08771861
  -V(xc)+E(xc)   XCENC  =       657.67297458
  PAW double counting   =     27833.09795295   -27971.09303607
  entropy T*S    EENTRO =        -0.04643044
  eigenvalues    EBANDS =     -3270.43813900
  atomic energy  EATOM  =     10818.48933584
  ---------------------------------------------------
  free energy    TOTEN  =      -603.37331020 eV

  energy without entropy =     -603.32687976  energy(sigma->0) =     -603.35009498
  exchange ACFDT corr.  =        -0.04202836  see jH, gK, PRB 81, 115126


--------------------------------------------------------------------------------------------------------




--------------------------------------- Iteration      1(   8)  ---------------------------------------


    POTLOK:  cpu time    1.1342: real time    1.1405
    SETDIJ:  cpu time    1.2084: real time    1.2121
    TRIAL :  cpu time  208.5163: real time  209.1949
    CORREC:  cpu time    0.0010: real time    0.0010
    CHARGE:  cpu time    1.2000: real time    1.2033
    --------------------------------------------
      LOOP:  cpu time  212.0625: real time  212.7587

 eigenvalue-minimisations  :     0
 total energy-change (2. order) :-0.2223739E-01  (-0.1708669E-01)
 number of electron     249.0000003 magnetization       1.7774578
 augmentation part       17.2966077 magnetization       1.3488651

 DIPCOR: dipole corrections for dipol
 direction  3 min pos     1,
 dipolmoment           0.000004     -0.000000     -0.013109 electrons x Angstroem
 Tr[quadrupol]     -6816.905130

 energy correction for charged system         0.000000 eV
 dipol+quadrupol energy correction            0.000005 eV
 added-field ion interaction          0.000000 eV  (added to PSCEN)


 Free energy of the ion-electron system (eV)
  ---------------------------------------------------
  alpha Z        PSCENC =       102.59828453
  Ewald energy   TEWEN  =     40799.12675985
  -Hartree energ DENC   =    -50150.59843754
  -exchange      EXHF   =       575.23989790
  -V(xc)+E(xc)   XCENC  =       657.75742483
  PAW double counting   =     27853.89416681   -27992.00658199
  entropy T*S    EENTRO =        -0.04614341
  eigenvalues    EBANDS =     -3267.84996737
  atomic energy  EATOM  =     10818.48933584
  ---------------------------------------------------
  free energy    TOTEN  =      -603.39554758 eV

  energy without entropy =     -603.34940417  energy(sigma->0) =     -603.37247588
  exchange ACFDT corr.  =        -0.04158319  see jH, gK, PRB 81, 115126


--------------------------------------------------------------------------------------------------------




--------------------------------------- Iteration      1(   9)  ---------------------------------------


    POTLOK:  cpu time    1.1351: real time    1.1380
    SETDIJ:  cpu time    1.2063: real time    1.2097
    TRIAL :  cpu time  208.2833: real time  208.9695
    CORREC:  cpu time    0.0013: real time    0.0013
    CHARGE:  cpu time    1.1997: real time    1.2032
    --------------------------------------------
      LOOP:  cpu time  211.8284: real time  212.5289

 eigenvalue-minimisations  :     0
 total energy-change (2. order) :-0.1447597E-01  (-0.1127400E-01)
 number of electron     249.0000003 magnetization       1.7644906
 augmentation part       17.2976482 magnetization       1.3445609

 DIPCOR: dipole corrections for dipol
 direction  3 min pos     1,
 dipolmoment           0.000004     -0.000000     -0.013058 electrons x Angstroem
 Tr[quadrupol]     -6816.920116

 energy correction for charged system         0.000000 eV
 dipol+quadrupol energy correction            0.000005 eV
 added-field ion interaction          0.000000 eV  (added to PSCEN)


 Free energy of the ion-electron system (eV)
  ---------------------------------------------------
  alpha Z        PSCENC =       102.59828449
  Ewald energy   TEWEN  =     40799.12675985
  -Hartree energ DENC   =    -50152.39470492
  -exchange      EXHF   =       575.34239921
  -V(xc)+E(xc)   XCENC  =       657.81673743
  PAW double counting   =     27864.01074967   -28002.35907040
  entropy T*S    EENTRO =        -0.04584709
  eigenvalues    EBANDS =     -3265.99437130
  atomic energy  EATOM  =     10818.48933584
  ---------------------------------------------------
  free energy    TOTEN  =      -603.41002355 eV

  energy without entropy =     -603.36417645  energy(sigma->0) =     -603.38710000
  exchange ACFDT corr.  =        -0.04120052  see jH, gK, PRB 81, 115126


--------------------------------------------------------------------------------------------------------




--------------------------------------- Iteration      1(  10)  ---------------------------------------


    POTLOK:  cpu time    1.1324: real time    1.1352
    SETDIJ:  cpu time    1.2067: real time    1.2110
    TRIAL :  cpu time  208.5994: real time  209.2666
    CORREC:  cpu time    0.0011: real time    0.0011
    CHARGE:  cpu time    1.1969: real time    1.2031
    --------------------------------------------
      LOOP:  cpu time  212.1386: real time  212.8239

 eigenvalue-minimisations  :     0
 total energy-change (2. order) :-0.9872235E-02  (-0.7671607E-02)
 number of electron     249.0000003 magnetization       1.7508070
 augmentation part       17.2965553 magnetization       1.3403733

 DIPCOR: dipole corrections for dipol
 direction  3 min pos     1,
 dipolmoment           0.000004     -0.000000     -0.012951 electrons x Angstroem
 Tr[quadrupol]     -6816.921644

 energy correction for charged system         0.000000 eV
 dipol+quadrupol energy correction            0.000005 eV
 added-field ion interaction          0.000000 eV  (added to PSCEN)


 Free energy of the ion-electron system (eV)
  ---------------------------------------------------
  alpha Z        PSCENC =       102.59828441
  Ewald energy   TEWEN  =     40799.12675985
  -Hartree energ DENC   =    -50152.48200602
  -exchange      EXHF   =       575.38835587
  -V(xc)+E(xc)   XCENC  =       657.82748720
  PAW double counting   =     27867.68570210   -28006.00062249
  entropy T*S    EENTRO =        -0.04554562
  eigenvalues    EBANDS =     -3266.00734545
  atomic energy  EATOM  =     10818.48933584
  ---------------------------------------------------
  free energy    TOTEN  =      -603.41989578 eV

  energy without entropy =     -603.37435016  energy(sigma->0) =     -603.39712297
  exchange ACFDT corr.  =        -0.04084318  see jH, gK, PRB 81, 115126


--------------------------------------------------------------------------------------------------------




--------------------------------------- Iteration      1(  11)  ---------------------------------------


    POTLOK:  cpu time    1.1299: real time    1.1331
    SETDIJ:  cpu time    1.2016: real time    1.2048
    TRIAL :  cpu time  208.5685: real time  209.2342
    CORREC:  cpu time    0.0010: real time    0.0010
    CHARGE:  cpu time    1.2006: real time    1.2039
    --------------------------------------------
      LOOP:  cpu time  212.1042: real time  212.7839

 eigenvalue-minimisations  :     0
 total energy-change (2. order) :-0.6714483E-02  (-0.5257135E-02)
 number of electron     249.0000003 magnetization       1.7364644
 augmentation part       17.2989101 magnetization       1.3365428

 DIPCOR: dipole corrections for dipol
 direction  3 min pos     1,
 dipolmoment           0.000004     -0.000000     -0.012842 electrons x Angstroem
 Tr[quadrupol]     -6816.919411

 energy correction for charged system         0.000000 eV
 dipol+quadrupol energy correction            0.000005 eV
 added-field ion interaction          0.000000 eV  (added to PSCEN)


 Free energy of the ion-electron system (eV)
  ---------------------------------------------------
  alpha Z        PSCENC =       102.59828433
  Ewald energy   TEWEN  =     40799.12675985
  -Hartree energ DENC   =    -50152.12099051
  -exchange      EXHF   =       575.41201886
  -V(xc)+E(xc)   XCENC  =       657.82369897
  PAW double counting   =     27868.42912592   -28006.66396150
  entropy T*S    EENTRO =        -0.04523954
  eigenvalues    EBANDS =     -3266.47533640
  atomic energy  EATOM  =     10818.48933584
  ---------------------------------------------------
  free energy    TOTEN  =      -603.42661027 eV

  energy without entropy =     -603.38137072  energy(sigma->0) =     -603.40399049
  exchange ACFDT corr.  =        -0.04049151  see jH, gK, PRB 81, 115126


--------------------------------------------------------------------------------------------------------




--------------------------------------- Iteration      1(  12)  ---------------------------------------


    POTLOK:  cpu time    1.1278: real time    1.1316
    SETDIJ:  cpu time    1.1879: real time    1.1993
    TRIAL :  cpu time  208.9565: real time  209.6200
    CORREC:  cpu time    0.0013: real time    0.0013
    CHARGE:  cpu time    1.2244: real time    1.2279
    --------------------------------------------
      LOOP:  cpu time  212.4997: real time  213.1868

 eigenvalue-minimisations  :     0
 total energy-change (2. order) :-0.4690564E-02  (-0.3646709E-02)
 number of electron     249.0000003 magnetization       1.7215183
 augmentation part       17.3009545 magnetization       1.3329151

 DIPCOR: dipole corrections for dipol
 direction  3 min pos     1,
 dipolmoment           0.000004     -0.000000     -0.012776 electrons x Angstroem
 Tr[quadrupol]     -6816.919669

 energy correction for charged system         0.000000 eV
 dipol+quadrupol energy correction            0.000005 eV
 added-field ion interaction          0.000000 eV  (added to PSCEN)


 Free energy of the ion-electron system (eV)
  ---------------------------------------------------
  alpha Z        PSCENC =       102.59828428
  Ewald energy   TEWEN  =     40799.12675985
  -Hartree energ DENC   =    -50152.26515206
  -exchange      EXHF   =       575.43866643
  -V(xc)+E(xc)   XCENC  =       657.83182505
  PAW double counting   =     27868.50054116   -28006.80136465
  entropy T*S    EENTRO =        -0.04492269
  eigenvalues    EBANDS =     -3266.30495718
  atomic energy  EATOM  =     10818.48933584
  ---------------------------------------------------
  free energy    TOTEN  =      -603.43130083 eV

  energy without entropy =     -603.38637814  energy(sigma->0) =     -603.40883948
  exchange ACFDT corr.  =        -0.04013359  see jH, gK, PRB 81, 115126


--------------------------------------------------------------------------------------------------------




--------------------------------------- Iteration      1(  13)  ---------------------------------------


    POTLOK:  cpu time    1.1207: real time    1.1237
    SETDIJ:  cpu time    1.2104: real time    1.2137
    TRIAL :  cpu time  208.4385: real time  209.1079
    CORREC:  cpu time    0.0010: real time    0.0010
    CHARGE:  cpu time    1.1972: real time    1.2004
    --------------------------------------------
      LOOP:  cpu time  211.9694: real time  212.6531

 eigenvalue-minimisations  :     0
 total energy-change (2. order) :-0.3294919E-02  (-0.2656326E-02)
 number of electron     249.0000003 magnetization       1.7060398
 augmentation part       17.3010968 magnetization       1.3292987

 DIPCOR: dipole corrections for dipol
 direction  3 min pos     1,
 dipolmoment           0.000004     -0.000000     -0.012744 electrons x Angstroem
 Tr[quadrupol]     -6816.920983

 energy correction for charged system         0.000000 eV
 dipol+quadrupol energy correction            0.000005 eV
 added-field ion interaction          0.000000 eV  (added to PSCEN)


 Free energy of the ion-electron system (eV)
  ---------------------------------------------------
  alpha Z        PSCENC =       102.59828426
  Ewald energy   TEWEN  =     40799.12675985
  -Hartree energ DENC   =    -50152.44534257
  -exchange      EXHF   =       575.46111007
  -V(xc)+E(xc)   XCENC  =       657.83943786
  PAW double counting   =     27868.64382748   -28006.99977194
  entropy T*S    EENTRO =        -0.04459001
  eigenvalues    EBANDS =     -3266.10331391
  atomic energy  EATOM  =     10818.48933584
  ---------------------------------------------------
  free energy    TOTEN  =      -603.43459575 eV

  energy without entropy =     -603.39000574  energy(sigma->0) =     -603.41230074
  exchange ACFDT corr.  =        -0.03976078  see jH, gK, PRB 81, 115126


--------------------------------------------------------------------------------------------------------




--------------------------------------- Iteration      1(  14)  ---------------------------------------


    POTLOK:  cpu time    1.1285: real time    1.1462
    SETDIJ:  cpu time    1.2024: real time    1.2068
    TRIAL :  cpu time  209.3665: real time  210.0966
    CORREC:  cpu time    0.0010: real time    0.0010
    CHARGE:  cpu time    1.1975: real time    1.2007
    --------------------------------------------
      LOOP:  cpu time  212.8983: real time  213.6581

 eigenvalue-minimisations  :     0
 total energy-change (2. order) :-0.2428322E-02  (-0.1962491E-02)
 number of electron     249.0000003 magnetization       1.6900788
 augmentation part       17.3013807 magnetization       1.3257366

 DIPCOR: dipole corrections for dipol
 direction  3 min pos     1,
 dipolmoment           0.000004     -0.000000     -0.012732 electrons x Angstroem
 Tr[quadrupol]     -6816.922078

 energy correction for charged system         0.000000 eV
 dipol+quadrupol energy correction            0.000005 eV
 added-field ion interaction          0.000000 eV  (added to PSCEN)


 Free energy of the ion-electron system (eV)
  ---------------------------------------------------
  alpha Z        PSCENC =       102.59828425
  Ewald energy   TEWEN  =     40799.12675985
  -Hartree energ DENC   =    -50152.42896127
  -exchange      EXHF   =       575.47592610
  -V(xc)+E(xc)   XCENC  =       657.84063770
  PAW double counting   =     27869.07346687   -28007.41224113
  entropy T*S    EENTRO =        -0.04423884
  eigenvalues    EBANDS =     -3266.15564226
  atomic energy  EATOM  =     10818.48933584
  ---------------------------------------------------
  free energy    TOTEN  =      -603.43702407 eV

  energy without entropy =     -603.39278523  energy(sigma->0) =     -603.41490465
  exchange ACFDT corr.  =        -0.03936788  see jH, gK, PRB 81, 115126


--------------------------------------------------------------------------------------------------------




--------------------------------------- Iteration      1(  15)  ---------------------------------------


    POTLOK:  cpu time    1.1226: real time    1.1277
    SETDIJ:  cpu time    1.2023: real time    1.2063
    TRIAL :  cpu time  208.7009: real time  210.2209
    CORREC:  cpu time    0.0010: real time    0.0010
    CHARGE:  cpu time    1.1985: real time    1.2020
    --------------------------------------------
      LOOP:  cpu time  212.2279: real time  213.7649

 eigenvalue-minimisations  :     0
 total energy-change (2. order) :-0.1816922E-02  (-0.1507654E-02)
 number of electron     249.0000003 magnetization       1.6736502
 augmentation part       17.3022236 magnetization       1.3223109

 DIPCOR: dipole corrections for dipol
 direction  3 min pos     1,
 dipolmoment           0.000004     -0.000000     -0.012738 electrons x Angstroem
 Tr[quadrupol]     -6816.923386

 energy correction for charged system         0.000000 eV
 dipol+quadrupol energy correction            0.000005 eV
 added-field ion interaction          0.000000 eV  (added to PSCEN)


 Free energy of the ion-electron system (eV)
  ---------------------------------------------------
  alpha Z        PSCENC =       102.59828425
  Ewald energy   TEWEN  =     40799.12675985
  -Hartree energ DENC   =    -50152.46243434
  -exchange      EXHF   =       575.48935310
  -V(xc)+E(xc)   XCENC  =       657.84271657
  PAW double counting   =     27869.93852009   -28008.27147612
  entropy T*S    EENTRO =        -0.04386588
  eigenvalues    EBANDS =     -3266.14566140
  atomic energy  EATOM  =     10818.48933584
  ---------------------------------------------------
  free energy    TOTEN  =      -603.43884099 eV

  energy without entropy =     -603.39497511  energy(sigma->0) =     -603.41690805
  exchange ACFDT corr.  =        -0.03895138  see jH, gK, PRB 81, 115126


--------------------------------------------------------------------------------------------------------




--------------------------------------- Iteration      1(  16)  ---------------------------------------


    POTLOK:  cpu time    1.1214: real time    1.1244
    SETDIJ:  cpu time    1.1932: real time    1.1971
    TRIAL :  cpu time  208.1381: real time  208.8013
    CORREC:  cpu time    0.0010: real time    0.0010
    CHARGE:  cpu time    1.1965: real time    1.1997
    --------------------------------------------
      LOOP:  cpu time  211.6519: real time  212.3300

 eigenvalue-minimisations  :     0
 total energy-change (2. order) :-0.1409995E-02  (-0.1193257E-02)
 number of electron     249.0000003 magnetization       1.6567681
 augmentation part       17.3027609 magnetization       1.3189348

 DIPCOR: dipole corrections for dipol
 direction  3 min pos     1,
 dipolmoment           0.000004     -0.000000     -0.012756 electrons x Angstroem
 Tr[quadrupol]     -6816.924774

 energy correction for charged system         0.000000 eV
 dipol+quadrupol energy correction            0.000005 eV
 added-field ion interaction          0.000000 eV  (added to PSCEN)


 Free energy of the ion-electron system (eV)
  ---------------------------------------------------
  alpha Z        PSCENC =       102.59828426
  Ewald energy   TEWEN  =     40799.12675985
  -Hartree energ DENC   =    -50152.57849490
  -exchange      EXHF   =       575.50268499
  -V(xc)+E(xc)   XCENC  =       657.84681961
  PAW double counting   =     27871.12896129   -28009.48292668
  entropy T*S    EENTRO =        -0.04346743
  eigenvalues    EBANDS =     -3266.02780937
  atomic energy  EATOM  =     10818.48933584
  ---------------------------------------------------
  free energy    TOTEN  =      -603.44025099 eV

  energy without entropy =     -603.39678356  energy(sigma->0) =     -603.41851727
  exchange ACFDT corr.  =        -0.03850761  see jH, gK, PRB 81, 115126


--------------------------------------------------------------------------------------------------------




--------------------------------------- Iteration      1(  17)  ---------------------------------------


    POTLOK:  cpu time    1.1241: real time    1.1279
    SETDIJ:  cpu time    1.1836: real time    1.1887
    TRIAL :  cpu time  208.4086: real time  209.0714
    CORREC:  cpu time    0.0013: real time    0.0013
    CHARGE:  cpu time    1.2073: real time    1.2106
    --------------------------------------------
      LOOP:  cpu time  211.9267: real time  212.6066

 eigenvalue-minimisations  :     0
 total energy-change (2. order) :-0.1128515E-02  (-0.9846710E-03)
 number of electron     249.0000003 magnetization       1.6394682
 augmentation part       17.3028603 magnetization       1.3155782

 DIPCOR: dipole corrections for dipol
 direction  3 min pos     1,
 dipolmoment           0.000004     -0.000000     -0.012780 electrons x Angstroem
 Tr[quadrupol]     -6816.925656

 energy correction for charged system         0.000000 eV
 dipol+quadrupol energy correction            0.000005 eV
 added-field ion interaction          0.000000 eV  (added to PSCEN)


 Free energy of the ion-electron system (eV)
  ---------------------------------------------------
  alpha Z        PSCENC =       102.59828428
  Ewald energy   TEWEN  =     40799.12675985
  -Hartree energ DENC   =    -50152.64582434
  -exchange      EXHF   =       575.51352203
  -V(xc)+E(xc)   XCENC  =       657.84944315
  PAW double counting   =     27872.39682979   -28010.76236969
  entropy T*S    EENTRO =        -0.04304066
  eigenvalues    EBANDS =     -3265.96389299
  atomic energy  EATOM  =     10818.48933584
  ---------------------------------------------------
  free energy    TOTEN  =      -603.44137950 eV

  energy without entropy =     -603.39833884  energy(sigma->0) =     -603.41985917
  exchange ACFDT corr.  =        -0.03803317  see jH, gK, PRB 81, 115126


--------------------------------------------------------------------------------------------------------




[...]
  Kinetic  3666.71822  3703.33527  4224.15801     8.18257    -0.68656     0.29555
  Fock     -412.53047  -413.63033  -395.39877     2.74899     0.17846     0.05167
  -------------------------------------------------------------------------------------
  Total     -44.53253   -44.31943    -0.36200     0.06495     0.02531     0.01960
  in kB     -22.45883   -22.35136    -0.18256     0.03275     0.01277     0.00988
  external pressure =      -15.00 kB  Pullay stress =        0.00 kB


 VOLUME and BASIS-vectors are now :
 -----------------------------------------------------------------------------
  energy-cutoff  :      500.00
  volume of cell :     3176.88
      direct lattice vectors                 reciprocal lattice vectors
    12.680983262  0.007210874 -0.003652011     0.078858267 -0.000038638  0.000023270
     0.006143369 12.538478602  0.000525180    -0.000045352  0.079754515 -0.000000814
    -0.005895927  0.000200471 19.980354814     0.000014415 -0.000002103  0.050049166

  length of vectors
    12.680985838 12.538480118 19.980355685     0.078858280  0.079754528  0.050049168


 FORCES acting on ions:
    Electron-Ion                     Ewald-Force                    Non-Local-Force
 -----------------------------------------------------------------------------------------------
   0.858E+01 0.285E+01 0.262E+00   -.872E+01 -.306E+01 -.263E+00   0.122E+00 0.257E+00 0.271E-02
   0.697E+01 0.106E+01 0.202E+00   -.710E+01 -.112E+01 -.202E+00   0.154E+00 0.649E-01 -.405E-03
   0.146E+02 -.102E+01 0.545E-01   -.147E+02 0.109E+01 -.526E-01   0.116E+00 -.151E-01 -.184E-02
   0.118E+02 0.120E+02 0.369E+00   -.120E+02 -.124E+02 -.363E+00   0.836E-01 0.365E+00 -.405E-02
   0.220E+02 0.203E+02 -.283E+00   -.227E+02 -.211E+02 0.281E+00   0.539E+00 0.635E+00 -.167E-04
   0.254E+02 0.611E+00 -.549E-01   -.259E+02 -.232E+00 0.681E-01   0.459E+00 -.263E+00 -.131E-01
   0.237E+02 0.650E+01 -.134E-01   -.241E+02 -.641E+01 0.314E-02   0.521E+00 -.121E+00 0.911E-02
   0.288E+02 0.502E+02 -.839E+00   -.308E+02 -.529E+02 0.887E+00   0.210E+01 0.302E+01 -.494E-01
   0.278E+02 0.312E+01 0.295E+00   -.278E+02 -.320E+01 -.301E+00   -.321E-01 -.210E-01 0.516E-02
   0.554E+02 -.616E+01 -.205E+00   -.591E+02 0.663E+01 0.209E+00   0.362E+01 -.574E+00 -.589E-02
   0.209E+02 -.199E+01 -.242E-01   -.212E+02 0.180E+01 0.302E-01   0.343E+00 0.211E+00 -.514E-02
   0.706E+02 0.997E+01 0.267E+00   -.739E+02 -.104E+02 -.262E+00   0.350E+01 0.555E+00 -.547E-02
   0.254E+01 -.608E+02 -.282E+00   -.152E+01 0.635E+02 0.285E+00   -.113E+01 -.275E+01 -.248E-02
   0.121E+02 -.223E+02 -.154E+00   -.119E+02 0.227E+02 0.152E+00   -.143E+00 -.411E+00 0.196E-02
   0.390E+01 -.366E+01 -.132E-01   -.405E+01 0.375E+01 0.118E-01   0.908E-01 -.112E+00 0.125E-02
   0.208E+02 -.961E+01 0.709E-01   -.210E+02 0.965E+01 -.746E-01   0.244E+00 -.608E-01 0.475E-02
   0.916E+01 -.932E+01 -.943E-01   -.900E+01 0.946E+01 0.965E-01   -.105E+00 -.194E+00 -.402E-02
   -.112E+02 0.407E+01 0.151E+01   0.110E+02 -.421E+01 -.152E+01   0.145E+00 0.186E+00 0.763E-02
   0.193E+01 0.197E+02 0.102E+01   -.171E+01 -.202E+02 -.103E+01   -.823E-01 0.570E+00 0.139E-01
   -.677E-01 0.486E+01 0.104E+01   0.326E+00 -.512E+01 -.104E+01   -.216E+00 0.236E+00 -.158E-03
   -.125E+02 0.160E+02 0.157E+01   0.124E+02 -.166E+02 -.158E+01   -.325E-02 0.551E+00 0.181E-01
   -.787E+01 0.391E+02 -.139E+00   0.653E+01 -.420E+02 0.116E+00   0.143E+01 0.296E+01 0.310E-01
   -.114E+02 0.443E+02 0.682E+00   0.128E+02 -.472E+02 -.694E+00   -.142E+01 0.284E+01 0.151E-01
   -.406E+02 -.384E+02 0.633E+00   0.428E+02 0.415E+02 -.593E+00   -.229E+01 -.328E+01 -.368E-01
   0.307E+01 -.580E+02 -.103E+01   -.499E+01 0.611E+02 0.101E+01   0.199E+01 -.302E+01 0.598E-02
   -.240E+02 -.189E+02 0.148E+01   0.248E+02 0.199E+02 -.151E+01   -.641E+00 -.815E+00 0.339E-01
   -.137E+02 -.148E+02 0.448E+00   0.138E+02 0.152E+02 -.445E+00   -.426E-01 -.479E+00 -.528E-02
   -.257E+01 -.694E+01 0.197E+00   0.228E+01 0.720E+01 -.197E+00   0.232E+00 -.226E+00 -.172E-02
   -.505E+01 -.237E+02 -.165E+00   0.478E+01 0.242E+02 0.162E+00   0.121E+00 -.562E+00 0.471E-03
   -.857E+01 -.407E+01 0.681E+00   0.871E+01 0.432E+01 -.684E+00   -.114E+00 -.317E+00 -.502E-03
   -.737E+01 -.815E+00 0.136E+00   0.735E+01 0.881E+00 -.138E+00   -.275E-01 -.261E-01 -.891E-03
   -.190E+02 0.387E+01 0.806E+00   0.193E+02 -.401E+01 -.787E+00   -.331E+00 0.140E+00 -.170E-01
   -.234E+01 0.134E+01 0.286E+00   0.251E+01 -.143E+01 -.288E+00   -.132E+00 0.138E+00 -.139E-02
   0.748E+01 -.246E+01 0.605E+00   -.758E+01 0.258E+01 -.606E+00   0.777E-01 -.122E+00 0.931E-03
   -.520E+01 -.292E+01 0.132E+01   0.547E+01 0.321E+01 -.133E+01   -.281E+00 -.284E+00 0.108E-01
   -.521E+02 -.983E+01 0.252E+00   0.556E+02 0.103E+02 -.252E+00   -.373E+01 -.515E+00 0.258E-01
   -.154E+02 -.190E+01 0.168E+01   0.159E+02 0.188E+01 -.168E+01   -.436E+00 0.116E-02 0.122E-01
   0.534E+01 -.176E+01 0.602E+00   -.553E+01 0.213E+01 -.598E+00   0.169E+00 -.322E+00 -.743E-03
   0.459E+01 -.187E+01 0.313E+00   -.457E+01 0.199E+01 -.316E+00   0.588E-01 -.125E+00 0.476E-02
   -.466E+02 0.122E+02 0.280E+00   0.505E+02 -.126E+02 -.329E+00   -.390E+01 0.451E+00 0.368E-01
   -.203E+02 0.296E+01 -.256E+00   0.204E+02 -.279E+01 0.256E+00   -.181E+00 -.129E+00 -.222E-02
   0.825E+00 0.422E+01 0.246E+00   -.598E+00 -.439E+01 -.246E+00   -.242E+00 0.140E+00 0.224E-02
   -.329E+01 0.463E+01 0.715E-02   0.359E+01 -.499E+01 -.205E-02   -.266E+00 0.347E+00 -.443E-02
   -.223E+02 -.486E+01 0.104E+01   0.228E+02 0.482E+01 -.106E+01   -.615E+00 0.665E-01 0.165E-01
   -.212E+02 0.107E+01 0.468E+00   0.218E+02 -.129E+01 -.483E+00   -.599E+00 0.129E+00 0.170E-01
   0.104E+02 0.257E+01 -.809E-01   -.107E+02 -.283E+01 0.812E-01   0.237E+00 0.257E+00 0.118E-03
   -.529E+01 0.138E+00 -.257E+00   0.541E+01 -.259E+00 0.257E+00   -.108E+00 0.103E+00 -.341E-02
   -.141E+02 -.209E+01 0.189E+00   0.142E+02 0.204E+01 -.192E+00   -.100E+00 -.988E-02 -.246E-02
   -.501E+01 -.225E+01 0.116E+00   0.517E+01 0.237E+01 -.115E+00   -.170E+00 -.987E-01 -.432E-02
   0.940E+01 -.171E+01 -.205E+00   -.934E+01 0.166E+01 0.205E+00   -.288E-02 0.228E-01 -.258E-02
   0.686E+02 0.161E+01 0.237E+00   -.592E+02 0.162E+02 -.434E+00   -.880E+01 -.170E+02 0.186E+00
   0.596E+02 -.606E+00 0.119E+01   -.478E+02 -.194E+02 -.127E+01   -.113E+02 0.189E+02 0.715E-01
   -.112E+02 -.106E+01 0.385E+00   0.209E+02 0.183E+02 -.380E+00   -.948E+01 -.165E+02 -.178E-01
   -.327E+02 -.230E+02 -.811E+01   0.230E+02 0.389E+02 0.880E+01   0.948E+01 -.153E+02 -.703E+00
   -.492E+02 0.343E+02 0.351E+01   0.409E+02 -.511E+02 -.382E+01   0.803E+01 0.162E+02 0.322E+00
   -.386E+02 -.210E+02 -.257E+01   0.299E+02 0.642E+01 0.271E+01   0.835E+01 0.138E+02 -.141E+00
   0.124E+02 0.460E+02 0.564E+01   -.138E+02 -.477E+02 -.560E+01   0.113E+01 0.163E+01 -.521E-01
   -.335E+02 0.435E+01 -.156E+02   0.363E+02 -.666E+01 0.151E+02   -.319E+01 0.234E+01 0.463E+00
 -----------------------------------------------------------------------------------------------
   0.700E+01 -.386E+01 -.246E+00   -.711E-13 -.284E-13 -.178E-14   -.674E+01 0.357E+01 0.232E+00
 
 
 POSITION                                       TOTAL-FORCE (eV/Angst)
 -----------------------------------------------------------------------------------
      2.81221     12.52839      9.98971        -0.018037      0.060055      0.002161
      0.69765      1.25500      9.98959         0.022374      0.009127     -0.000158
      1.39204      0.00122      9.98980         0.073118      0.047454     -0.000044
      3.51543      1.21151      9.98918        -0.068636      0.018678      0.002290
      2.83006      2.45317      9.99137        -0.076550     -0.108993     -0.001914
      0.73530      3.76755      9.99065         0.014082      0.099784     -0.000531
      1.41024      2.49790      9.99052         0.097120     -0.038416     -0.000725
      3.57478      3.66390      9.99319         0.189710      0.416083     -0.003527
      0.81158      6.24897      9.98986        -0.011342     -0.098633      0.000367
      1.53057      4.97789      9.99095         0.098353     -0.143533     -0.002641
      0.72348      8.77859      9.99059        -0.014400      0.039092      0.000615
      1.48610      7.55125      9.98948         0.413390      0.159081     -0.000912
      3.51184      8.82772      9.99080        -0.183388     -0.179315      0.000425
      2.82210     10.06166      9.99067         0.055489      0.009051     -0.000058
      0.70473     11.28683      9.99071        -0.066701     -0.024486     -0.000065
      1.40509     10.04017      9.99045         0.005881     -0.022664      0.001378
      3.52072     11.29397      9.99015         0.058398     -0.060774     -0.002066
      7.05215     12.51861      9.98492        -0.039525      0.054087      0.004229
      4.93113      1.20254      9.98761         0.133395      0.071603      0.003622
      5.64430     12.51138      9.98659         0.035857     -0.005605      0.002833
      7.74367      1.21911      9.98594        -0.091001     -0.023106      0.010940
      7.04158      2.44081      9.99414         0.164832      0.206699      0.010268
      5.61972      2.43146      9.99093        -0.155256      0.100433      0.004468
      7.01496      7.60567      9.98912        -0.172487     -0.355633      0.001326
      4.94669      8.81421      9.99277         0.175974     -0.023339     -0.004934
      7.74838      8.82081      9.98527         0.062388      0.094307      0.004844
      7.05329     10.05743      9.98717         0.080625     -0.020708     -0.002716
      4.92967     11.28403      9.98888        -0.054704      0.020888     -0.001678
      5.63517     10.04880      9.98987        -0.147291     -0.109945     -0.002359
      7.75971     11.28533      9.98599         0.018549     -0.081569     -0.003331
     11.27278      0.00844      9.98618        -0.061168      0.038424     -0.002713
      9.16026      1.24694      9.98583        -0.009100      0.005151      0.001308
      9.86641     12.53960      9.98661         0.046691      0.061132     -0.003550
     11.95838      1.27061      9.98495        -0.007823     -0.011720     -0.000211
     11.25991      2.53173      9.98385        -0.034358     -0.007513      0.004336
      9.06479      3.75128      9.99284        -0.430969     -0.111171      0.027408
      9.82980      2.51862      9.98506         0.055587     -0.023403      0.011011
     11.97068      3.78887      9.98562        -0.013630      0.032063      0.003123
     11.24017      5.03210      9.98718         0.096210     -0.017267      0.002107
      9.06848      6.30799      9.98854        -0.204351      0.087677     -0.010673
      9.76586      5.03540      9.99039         0.000695      0.044502     -0.002547
     12.01987      6.25772      9.98677        -0.038487     -0.025070      0.002110
     11.28848      7.50472      9.98738         0.011516      0.004874      0.000435
      9.16761      8.78511      9.98525        -0.118346      0.032883      0.004618
      9.84886      7.51867      9.98680         0.006455     -0.082079      0.002682
     11.98304      8.76907      9.98748         0.021323      0.013649      0.000458
     11.28713     10.02772      9.98785        -0.007573     -0.012057     -0.002840
      9.17306     11.28288      9.98676        -0.074095     -0.052840     -0.005054
      9.86949     10.03185      9.98693        -0.012767      0.013199     -0.003119
     11.97429     11.28852      9.98761         0.061513     -0.031715     -0.002553
      2.94023      4.87283      9.99035        -0.133272     -0.620335      0.006834
      2.84218      7.63527      9.98809        -0.477933      0.559890      0.002581
      4.96095      3.64918      9.99341        -0.613483     -0.666626     -0.015172
      7.68164      3.67132     10.00907         0.666759     -0.626090     -0.077595
      7.66212      6.39371      9.98650         0.474185      0.865954      0.034467
      5.63421      7.59599      9.99491         0.430503      0.316031     -0.010490
      4.25937      6.28259      9.98697        -0.047085      0.166929      0.006357
      6.34344      5.03413     10.01345        -0.187215     -0.064177      0.004581
 -----------------------------------------------------------------------------------
    total drift:                               -0.007949      0.007986     -0.001214


--------------------------------------------------------------------------------------------------------



  FREE ENERGIE OF THE ION-ELECTRON SYSTEM (eV)
  ---------------------------------------------------
  free  energy   TOTEN  =      -603.45674608 eV

  energy  without entropy=     -603.44103207  energy(sigma->0) =     -603.44888908
 


--------------------------------------------------------------------------------------------------------


    POTLOK:  cpu time    2.3071: real time    2.3142


--------------------------------------------------------------------------------------------------------


 stress matrix after NEB project (eV)
    -44.53253      0.06427      0.01960
      0.06495    -44.31943      0.02800
      0.01763      0.02531     -0.36200
  FORCES: max atom, RMS     0.987885    0.300380
  FORCE total and by dimension    2.287629    0.865954
  Stress total and by dimension   62.829135   44.532535
 writing wavefunctions
     LOOP+:  cpu time12997.2700: real time13047.3598
 vacuum level on the upper side and lower side of the slab         1.483         1.483
    4ORBIT:  cpu time    0.0000: real time    0.0000
 


 total charge     
 
# of ion       s       p       d       tot
------------------------------------------
    1        0.871   1.796   0.000   2.667
    2        0.865   1.771   0.000   2.636
    3        0.867   1.771   0.000   2.639
    4        0.874   1.790   0.000   2.664
    5        0.869   1.801   0.000   2.671
    6        0.857   1.745   0.000   2.602
    7        0.866   1.760   0.000   2.625
    8        0.858   1.709   0.000   2.567
    9        0.841   1.717   0.000   2.558
   10        0.843   1.674   0.000   2.517
   11        0.864   1.766   0.000   2.631
   12        0.855   1.709   0.000   2.564
   13        0.864   1.764   0.000   2.627
   14        0.873   1.799   0.000   2.672
   15        0.867   1.782   0.000   2.649
   16        0.868   1.766   0.000   2.634
   17        0.870   1.799   0.000   2.669
   18        0.869   1.799   0.000   2.668
   19        0.872   1.806   0.000   2.678
   20        0.871   1.796   0.000   2.668
   21        0.872   1.798   0.000   2.670
   22        0.865   1.764   0.000   2.630
   23        0.867   1.762   0.000   2.628
   24        0.859   1.708   0.000   2.567
   25        0.861   1.741   0.000   2.602
   26        0.870   1.803   0.000   2.673
   27        0.872   1.786   0.000   2.658
   28        0.870   1.794   0.000   2.664
   29        0.870   1.796   0.000   2.666
   30        0.871   1.794   0.000   2.665
   31        0.866   1.768   0.000   2.634
   32        0.867   1.765   0.000   2.633
   33        0.866   1.780   0.000   2.646
   34        0.864   1.759   0.000   2.623
   35        0.860   1.748   0.000   2.608
   36        0.849   1.691   0.000   2.540
   37        0.860   1.754   0.000   2.614
   38        0.856   1.739   0.000   2.595
   39        0.851   1.712   0.000   2.563
   40        0.846   1.692   0.000   2.539
   41        0.843   1.723   0.000   2.565
   42        0.851   1.709   0.000   2.560
   43        0.857   1.742   0.000   2.599
   44        0.866   1.763   0.000   2.628
   45        0.859   1.754   0.000   2.612
   46        0.862   1.757   0.000   2.620
   47        0.865   1.765   0.000   2.629
   48        0.867   1.771   0.000   2.638
   49        0.866   1.774   0.000   2.641
   50        0.866   1.769   0.000   2.635
   51        1.222   2.662   0.000   3.884
   52        1.238   2.689   0.000   3.927
   53        1.228   2.677   0.000   3.906
   54        1.228   2.667   0.000   3.895
   55        1.225   2.681   0.000   3.906
   56        1.214   2.664   0.000   3.878
   57        0.438   0.449   9.255  10.142
   58        0.427   0.512   6.282   7.220
--------------------------------------------------
tot         51.372 105.003  15.537 171.911
 


 magnetization (x)
 
# of ion       s       p       d       tot
------------------------------------------
    1       -0.000  -0.009   0.000  -0.009
    2       -0.000  -0.003   0.000  -0.003
    3        0.000  -0.002   0.000  -0.001
    4        0.000  -0.001   0.000  -0.001
    5       -0.001  -0.012   0.000  -0.013
    6       -0.001  -0.014   0.000  -0.015
    7        0.000   0.001   0.000   0.001
    8        0.000  -0.003   0.000  -0.003
    9       -0.001  -0.014   0.000  -0.015
   10        0.000  -0.002   0.000  -0.002
   11       -0.001  -0.014   0.000  -0.015
   12        0.000  -0.003   0.000  -0.002
   13        0.001  -0.002   0.000  -0.002
   14       -0.000  -0.004   0.000  -0.004
   15       -0.001  -0.011   0.000  -0.012
   16        0.000  -0.001   0.000  -0.001
   17        0.000  -0.001   0.000  -0.001
   18       -0.000  -0.006   0.000  -0.006
   19        0.000  -0.001   0.000  -0.001
   20       -0.000  -0.005   0.000  -0.005
   21       -0.000  -0.001   0.000  -0.001
   22       -0.000  -0.007   0.000  -0.007
   23       -0.000  -0.009   0.000  -0.009
   24        0.000  -0.006   0.000  -0.006
   25       -0.001  -0.023   0.000  -0.024
   26       -0.000  -0.007   0.000  -0.007
   27       -0.001  -0.010   0.000  -0.010
   28       -0.001  -0.011   0.000  -0.012
   29        0.001   0.006   0.000   0.007
   30       -0.000  -0.004   0.000  -0.004
   31       -0.000  -0.009   0.000  -0.010
   32       -0.000  -0.009   0.000  -0.009
   33       -0.000  -0.006   0.000  -0.006
   34        0.000  -0.001   0.000  -0.001
   35       -0.000  -0.007   0.000  -0.008
   36       -0.000  -0.012   0.000  -0.012
   37       -0.000  -0.007   0.000  -0.007
   38       -0.000  -0.011   0.000  -0.011
   39       -0.000  -0.002   0.000  -0.002
   40       -0.001  -0.012   0.000  -0.013
   41        0.000  -0.003   0.000  -0.003
   42        0.001   0.004   0.000   0.004
   43       -0.001  -0.020   0.000  -0.021
   44       -0.000  -0.003   0.000  -0.003
   45       -0.000  -0.009   0.000  -0.010
   46        0.000  -0.001   0.000  -0.001
   47       -0.000  -0.008   0.000  -0.008
   48       -0.000  -0.006   0.000  -0.006
   49        0.000   0.001   0.000   0.002
   50        0.000  -0.003   0.000  -0.003
   51       -0.003  -0.015   0.000  -0.018
   52       -0.005  -0.058   0.000  -0.063
   53       -0.005  -0.044   0.000  -0.049
   54       -0.005  -0.062   0.000  -0.066
   55       -0.005  -0.024   0.000  -0.029
   56       -0.001  -0.028   0.000  -0.029
   57        0.009   0.011  -0.148  -0.128
   58        0.042   0.027   1.959   2.028
--------------------------------------------------
tot          0.018  -0.496   1.811   1.333
 

 total amount of memory used by VASP MPI-rank0   154701. kBytes
=======================================================================

   base      :      30000. kBytes
   nonl-proj :       4286. kBytes
   fftplans  :      11851. kBytes
   grid      :      31266. kBytes
   one-center:         62. kBytes
   HF        :         23. kBytes
   nonlr-proj:      14705. kBytes
   wavefun   :      62508. kBytes
 
  
  
 General timing and accounting informations for this job:
 ========================================================
  
                  Total CPU time used (sec):    13066.232
                            User time (sec):    13016.310
                          System time (sec):       49.922
                         Elapsed time (sec):    13123.143
  
                   Maximum memory used (kb):      395000.
                   Average memory used (kb):           0.
  
                          Minor page faults:       985422
                          Major page faults:            1
                 Voluntary context switches:       182856
