 vasp.5.4.4.18Apr17-6-g9f103f2a35 (build Feb 25 2019 10:51:38) complex          
  
 executed on             LinuxIFC date 2022.01.30  02:50:49
 running on   32 total cores
 distrk:  each k-point on   32 cores,    1 groups
 distr:  one band on NCORES_PER_BAND=  32 cores,    1 groups


--------------------------------------------------------------------------------------------------------


 INCAR:
 POTCAR:    PAW_PBE C 08Apr2002                   
 POTCAR:    PAW_PBE N 08Apr2002                   
 POTCAR:    PAW_PBE Zn 06Sep2000                  
 POTCAR:    PAW_PBE Fe 06Sep2000                  

 ----------------------------------------------------------------------------- 
|                                                                             |
|           W    W    AA    RRRRR   N    N  II  N    N   GGGG   !!!           |
|           W    W   A  A   R    R  NN   N  II  NN   N  G    G  !!!           |
|           W    W  A    A  R    R  N N  N  II  N N  N  G       !!!           |
|           W WW W  AAAAAA  RRRRR   N  N N  II  N  N N  G  GGG   !            |
|           WW  WW  A    A  R   R   N   NN  II  N   NN  G    G                |
|           W    W  A    A  R    R  N    N  II  N    N   GGGG   !!!           |
|                                                                             |
|      For optimal performance we recommend to set                            |
|        NCORE= 4 - approx SQRT( number of cores)                             |
|      NCORE specifies how many cores store one orbital (NPAR=cpu/NCORE).     |
|      This setting can  greatly improve the performance of VASP for DFT.     |
|      The default,   NCORE=1            might be grossly inefficient         |
|      on modern multi-core architectures or massively parallel machines.     |
|      Do your own testing !!!!                                               |
|      Unfortunately you need to use the default for GW and RPA calculations. |
|      (for HF NCORE is supported but not extensively tested yet)             |
|                                                                             |
 ----------------------------------------------------------------------------- 

 POTCAR:    PAW_PBE C 08Apr2002                   
   VRHFIN =C: s2p2                                                              
   LEXCH  = PE                                                                  
   EATOM  =   147.1560 eV,   10.8157 Ry                                         
                                                                                
   TITEL  = PAW_PBE C 08Apr2002                                                 
   LULTRA =        F    use ultrasoft PP ?                                      
   IUNSCR =        1    unscreen: 0-lin 1-nonlin 2-no                           
   RPACOR =    1.200    partial core radius                                     
   POMASS =   12.011; ZVAL   =    4.000    mass and valenz                      
   RCORE  =    1.500    outmost cutoff radius                                   
   RWIGS  =    1.630; RWIGS  =    0.863    wigner-seitz radius (au A)           
   ENMAX  =  400.000; ENMIN  =  300.000 eV                                      
   ICORE  =        2    local potential                                         
   LCOR   =        T    correct aug charges                                     
   LPAW   =        T    paw PP                                                  
   EAUG   =  644.873                                                            
   DEXC   =    0.000                                                            
   RMAX   =    1.529    core radius for proj-oper                               
   RAUG   =    1.300    factor for augmentation sphere                          
   RDEP   =    1.501    radius for radial grids                                 
   RDEPT  =    1.300    core radius for aug-charge                              
                                                                                
   Atomic configuration                                                         
    4 entries                                                                   
     n  l   j            E        occ.                                          
     1  0  0.50      -273.3789   2.0000                                         
     2  0  0.50       -13.7508   2.0000                                         
     2  1  0.50        -5.2854   2.0000                                         
     3  2  1.50        -5.4423   0.0000                                         
   Description                                                                  
     l       E           TYP  RCUT    TYP  RCUT                                 
     0    -13.7508458     23  1.200                                             
     0     -8.2022199     23  1.200                                             
     1     -5.2854383     23  1.500                                             
     1     34.0145650     23  1.500                                             
     2     -5.4423304      7  1.500                                             
  local pseudopotential read in
  partial core-charges read in
  partial kinetic energy density read in
  atomic valenz-charges read in
  non local Contribution for L=           0  read in
    real space projection operators read in
  non local Contribution for L=           0  read in
    real space projection operators read in
  non local Contribution for L=           1  read in
    real space projection operators read in
  non local Contribution for L=           1  read in
    real space projection operators read in
    PAW grid and wavefunctions read in
 
   number of l-projection  operators is LMAX  =           4
   number of lm-projection operators is LMMAX =           8
 
 POTCAR:    PAW_PBE N 08Apr2002                   
   VRHFIN =N: s2p3                                                              
   LEXCH  = PE                                                                  
   EATOM  =   264.5486 eV,   19.4438 Ry                                         
                                                                                
   TITEL  = PAW_PBE N 08Apr2002                                                 
   LULTRA =        F    use ultrasoft PP ?                                      
   IUNSCR =        1    unscreen: 0-lin 1-nonlin 2-no                           
   RPACOR =    1.200    partial core radius                                     
   POMASS =   14.001; ZVAL   =    5.000    mass and valenz                      
   RCORE  =    1.500    outmost cutoff radius                                   
   RWIGS  =    1.400; RWIGS  =    0.741    wigner-seitz radius (au A)           
   ENMAX  =  400.000; ENMIN  =  300.000 eV                                      
   ICORE  =        2    local potential                                         
   LCOR   =        T    correct aug charges                                     
   LPAW   =        T    paw PP                                                  
   EAUG   =  627.112                                                            
   DEXC   =    0.000                                                            
   RMAX   =    1.529    core radius for proj-oper                               
   RAUG   =    1.300    factor for augmentation sphere                          
   RDEP   =    1.514    radius for radial grids                                 
   RDEPT  =    1.338    core radius for aug-charge                              
                                                                                
   Atomic configuration                                                         
    4 entries                                                                   
     n  l   j            E        occ.                                          
     1  0  0.50      -384.7179   2.0000                                         
     2  0  0.50       -18.5828   2.0000                                         
     2  1  0.50        -7.0898   3.0000                                         
     3  2  1.50        -6.8029   0.0000                                         
   Description                                                                  
     l       E           TYP  RCUT    TYP  RCUT                                 
     0    -18.5828119     23  1.200                                             
     0    -13.5018863     23  1.200                                             
     1     -7.0897853     23  1.500                                             
     1      9.5240782     23  1.500                                             
     2     -6.8029130      7  1.500                                             
  local pseudopotential read in
  partial core-charges read in
  partial kinetic energy density read in
  atomic valenz-charges read in
  non local Contribution for L=           0  read in
    real space projection operators read in
  non local Contribution for L=           0  read in
    real space projection operators read in
  non local Contribution for L=           1  read in
    real space projection operators read in
  non local Contribution for L=           1  read in
    real space projection operators read in
    PAW grid and wavefunctions read in
 
   number of l-projection  operators is LMAX  =           4
   number of lm-projection operators is LMMAX =           8
 
 POTCAR:    PAW_PBE Zn 06Sep2000                  
   VRHFIN =Zn: d10 p2                                                           
   LEXCH  = PE                                                                  
   EATOM  =  1748.8345 eV,  128.5357 Ry                                         
                                                                                
   TITEL  = PAW_PBE Zn 06Sep2000                                                
   LULTRA =        F    use ultrasoft PP ?                                      
   IUNSCR =        1    unscreen: 0-lin 1-nonlin 2-no                           
   RPACOR =    2.000    partial core radius                                     
   POMASS =   65.390; ZVAL   =   12.000    mass and valenz                      
   RCORE  =    2.300    outmost cutoff radius                                   
   RWIGS  =    2.400; RWIGS  =    1.270    wigner-seitz radius (au A)           
   ENMAX  =  276.723; ENMIN  =  207.542 eV                                      
   RCLOC  =    1.828    cutoff for local pot                                    
   LCOR   =        T    correct aug charges                                     
   LPAW   =        T    paw PP                                                  
   EAUG   =  575.892                                                            
   DEXC   =    0.000                                                            
   RMAX   =    2.347    core radius for proj-oper                               
   RAUG   =    1.300    factor for augmentation sphere                          
   RDEP   =    2.324    radius for radial grids                                 
   RDEPT  =    1.788    core radius for aug-charge                              
                                                                                
   Atomic configuration                                                         
    9 entries                                                                   
     n  l   j            E        occ.                                          
     1  0  0.50     -9524.6913   2.0000                                         
     2  0  0.50     -1158.1882   2.0000                                         
     2  1  1.50     -1003.8506   6.0000                                         
     3  0  0.50      -129.2194   2.0000                                         
     3  1  1.50       -83.3890   6.0000                                         
     3  2  2.50       -10.1410  10.0000                                         
     4  0  0.50        -5.9785   2.0000                                         
     4  1  0.50        -4.0817   0.0000                                         
     4  3  2.50        -1.3606   0.0000                                         
   Description                                                                  
     l       E           TYP  RCUT    TYP  RCUT                                 
     2    -10.1410010     23  2.300                                             
     2    -11.5015836     23  2.300                                             
     0     -5.9785163     23  2.300                                             
     0      1.1858015     23  2.300                                             
     1     -2.7211652     23  2.300                                             
     1     13.2444212     23  2.300                                             
  local pseudopotential read in
  partial core-charges read in
  partial kinetic energy density read in
  atomic valenz-charges read in
  non local Contribution for L=           2  read in
    real space projection operators read in
  non local Contribution for L=           2  read in
    real space projection operators read in
  non local Contribution for L=           0  read in
    real space projection operators read in
  non local Contribution for L=           0  read in
    real space projection operators read in
  non local Contribution for L=           1  read in
    real space projection operators read in
  non local Contribution for L=           1  read in
    real space projection operators read in
    PAW grid and wavefunctions read in
 
   number of l-projection  operators is LMAX  =           6
   number of lm-projection operators is LMMAX =          18
 
 POTCAR:    PAW_PBE Fe 06Sep2000                  
   VRHFIN =Fe:  d7 s1                                                           
   LEXCH  = PE                                                                  
   EATOM  =   594.3153 eV,   43.6809 Ry                                         
                                                                                
   TITEL  = PAW_PBE Fe 06Sep2000                                                
   LULTRA =        F    use ultrasoft PP ?                                      
   IUNSCR =        1    unscreen: 0-lin 1-nonlin 2-no                           
   RPACOR =    2.000    partial core radius                                     
   POMASS =   55.847; ZVAL   =    8.000    mass and valenz                      
   RCORE  =    2.300    outmost cutoff radius                                   
   RWIGS  =    2.460; RWIGS  =    1.302    wigner-seitz radius (au A)           
   ENMAX  =  267.882; ENMIN  =  200.911 eV                                      
   RCLOC  =    1.701    cutoff for local pot                                    
   LCOR   =        T    correct aug charges                                     
   LPAW   =        T    paw PP                                                  
   EAUG   =  511.368                                                            
   DEXC   =    0.000                                                            
   RMAX   =    2.356    core radius for proj-oper                               
   RAUG   =    1.300    factor for augmentation sphere                          
   RDEP   =    2.442    radius for radial grids                                 
   RDEPT  =    1.890    core radius for aug-charge                              
                                                                                
   Atomic configuration                                                         
    9 entries                                                                   
     n  l   j            E        occ.                                          
     1  0  0.50     -6993.8440   2.0000                                         
     2  0  0.50      -814.6047   2.0000                                         
     2  1  1.50      -693.3689   6.0000                                         
     3  0  0.50       -89.4732   2.0000                                         
     3  1  1.50       -55.6373   6.0000                                         
     3  2  2.50        -3.8151   7.0000                                         
     4  0  0.50        -4.2551   1.0000                                         
     4  1  1.50        -3.4015   0.0000                                         
     4  3  2.50        -1.3606   0.0000                                         
   Description                                                                  
     l       E           TYP  RCUT    TYP  RCUT                                 
     2     -3.8151135     23  2.300                                             
     2     -5.1756961     23  2.300                                             
     0     -4.2550963     23  2.300                                             
     0      7.2035603     23  2.300                                             
     1     -2.7211652     23  2.300                                             
     1     18.4316424     23  2.300                                             
  local pseudopotential read in
  partial core-charges read in
  partial kinetic energy density read in
  atomic valenz-charges read in
  non local Contribution for L=           2  read in
    real space projection operators read in
  non local Contribution for L=           2  read in
    real space projection operators read in
  non local Contribution for L=           0  read in
    real space projection operators read in
  non local Contribution for L=           0  read in
    real space projection operators read in
  non local Contribution for L=           1  read in
    real space projection operators read in
  non local Contribution for L=           1  read in
    real space projection operators read in
    PAW grid and wavefunctions read in
 
   number of l-projection  operators is LMAX  =           6
   number of lm-projection operators is LMMAX =          18
 

 ----------------------------------------------------------------------------- 
|                                                                             |
|  ADVICE TO THIS USER RUNNING 'VASP/VAMP'   (HEAR YOUR MASTER'S VOICE ...):  |
|                                                                             |
|      You have a (more or less) 'large supercell' and for larger cells       |
|      it might be more efficient to use real space projection opertators     |
|      So try LREAL= Auto  in the INCAR   file.                               |
|      Mind:          For very  accurate calculation you might also keep the  |
|      reciprocal projection scheme          (i.e. LREAL=.FALSE.)             |
|                                                                             |
 ----------------------------------------------------------------------------- 

  PAW_PBE C 08Apr2002                   :
 energy of atom  1       EATOM= -147.1560
 kinetic energy error for atom=    0.0076 (will be added to EATOM!!)
  PAW_PBE N 08Apr2002                   :
 energy of atom  2       EATOM= -264.5486
 kinetic energy error for atom=    0.0138 (will be added to EATOM!!)
  PAW_PBE Zn 06Sep2000                  :
 energy of atom  3       EATOM=-1748.8345
 kinetic energy error for atom=    0.0029 (will be added to EATOM!!)
  PAW_PBE Fe 06Sep2000                  :
 energy of atom  4       EATOM= -594.3153
 kinetic energy error for atom=    0.0026 (will be added to EATOM!!)
 
 
 POSCAR:  C  N Zn Fe                             
  positions in cartesian coordinates
  No initial velocities read in
 exchange correlation table for  LEXCH =        8
   RHO(1)=    0.500       N(1)  =     2000
   RHO(2)=  100.500       N(2)  =     4000

 VTST: version 3.2, (02/03/18)

 CHAIN: initializing optimizer
 
 OPT: Using VASP Conjugate-Gradient optimizer
 CHAIN: Read ICHAIN            0
 
 POSCAR:  C  N Zn Fe                             
  positions in cartesian coordinates
  No initial velocities read in
 


--------------------------------------------------------------------------------------------------------


 ion  position               nearest neighbor table
   1  0.222  0.998  0.500-  17 1.42   4 1.42   3 1.42
   2  0.055  0.099  0.500-   7 1.43  34 1.43   3 1.44
   3  0.110  0.999  0.500-   1 1.42  15 1.43   2 1.44
   4  0.278  0.097  0.500-   5 1.42  19 1.42   1 1.42
   5  0.222  0.195  0.500-   4 1.42   8 1.42   7 1.43
   6  0.056  0.299  0.500-  38 1.44   7 1.44  10 1.44
   7  0.110  0.198  0.500-   2 1.43   5 1.43   6 1.44
   8  0.279  0.292  0.500-  53 1.38   5 1.42  51 1.43
   9  0.062  0.499  0.500-  10 1.46  42 1.46  12 1.46
  10  0.116  0.396  0.500-  53 1.38   6 1.44   9 1.46
  11  0.057  0.700  0.500-  46 1.42  16 1.43  12 1.44
  12  0.116  0.602  0.500-  54 1.37  11 1.44   9 1.46
  13  0.276  0.703  0.500-  54 1.37  14 1.41  25 1.46
  14  0.222  0.802  0.500-  13 1.41  17 1.42  16 1.42
  15  0.055  0.900  0.500-  50 1.42  16 1.43   3 1.43
  16  0.111  0.800  0.500-  14 1.42  15 1.43  11 1.43
  17  0.278  0.900  0.500-  28 1.42   1 1.42  14 1.42
  18  0.556  0.998  0.500-  30 1.42  20 1.42  21 1.43
  19  0.389  0.096  0.500-   4 1.42  20 1.42  23 1.43
  20  0.444  0.998  0.500-  18 1.42  19 1.42  28 1.43
  21  0.611  0.098  0.500-  22 1.41  32 1.42  18 1.43
  22  0.556  0.195  0.500-  55 1.39  21 1.41  23 1.44
  23  0.443  0.196  0.500-  51 1.42  19 1.43  22 1.44
  24  0.559  0.605  0.500-  56 1.38  52 1.42  26 1.42  58 2.55
  25  0.390  0.699  0.500-  29 1.44  52 1.44  13 1.46
  26  0.613  0.704  0.500-  27 1.42  24 1.42  44 1.42
  27  0.556  0.801  0.500-  26 1.42  29 1.43  30 1.43
  28  0.389  0.899  0.500-  17 1.42  20 1.43  29 1.43
  29  0.444  0.799  0.500-  27 1.43  28 1.43  25 1.44
  30  0.611  0.900  0.500-  18 1.42  48 1.42  27 1.43
  31  0.889  0.000  0.500-  33 1.42  34 1.43  50 1.44
  32  0.722  0.099  0.500-  21 1.42  33 1.43  37 1.43
  33  0.778  1.000  0.500-  31 1.42  32 1.43  48 1.43
  34  0.943  0.100  0.500-   2 1.43  31 1.43  35 1.44
  35  0.887  0.201  0.500-  37 1.44  38 1.44  34 1.44
  36  0.715  0.300  0.500-  55 1.40  37 1.45  41 1.47
  37  0.775  0.201  0.500-  32 1.43  35 1.44  36 1.45
  38  0.943  0.300  0.500-   6 1.44  35 1.44  39 1.44
  39  0.887  0.401  0.500-  38 1.44  42 1.45  41 1.46
  40  0.720  0.503  0.500-  56 1.37  45 1.44  41 1.44
  41  0.772  0.401  0.500-  40 1.44  39 1.46  36 1.47
  42  0.947  0.499  0.500-  43 1.44  39 1.45   9 1.46
  43  0.891  0.599  0.500-  45 1.43  46 1.44  42 1.44
  44  0.725  0.702  0.500-  26 1.42  49 1.42  45 1.44
  45  0.779  0.601  0.500-  43 1.43  40 1.44  44 1.44
  46  0.945  0.700  0.500-  11 1.42  47 1.44  43 1.44
  47  0.890  0.800  0.500-  49 1.42  50 1.43  46 1.44
  48  0.723  0.900  0.500-  30 1.42  49 1.43  33 1.43
  49  0.779  0.801  0.500-  47 1.42  44 1.42  48 1.43
  50  0.944  0.900  0.500-  15 1.42  47 1.43  31 1.44
  51  0.391  0.296  0.500-  23 1.42   8 1.43  58 2.03
  52  0.448  0.599  0.500-  24 1.42  25 1.44  57 2.00  58 2.48
  53  0.223  0.388  0.500-  10 1.38   8 1.38  57 1.92
  54  0.222  0.609  0.500-  13 1.37  12 1.37  57 1.97
  55  0.605  0.294  0.500-  22 1.39  36 1.40  58 1.94
  56  0.613  0.509  0.500-  40 1.37  24 1.38  58 1.87
  57  0.329  0.496  0.500-  53 1.92  54 1.97  52 2.00  58 2.47
  58  0.504  0.410  0.500-  56 1.87  55 1.94  51 2.03  57 2.47  52 2.48  24 2.55
 
  LATTYP: Found a triclinic cell.
 ALAT       =    17.8373247840
 B/A-ratio  =     0.7012459864
 C/A-ratio  =     1.1149341672
 COS(alpha) =     0.0000955331
 COS(beta)  =     0.0004170240
 COS(gamma) =     0.6981391227
  
  Lattice vectors:
  
 A1 = (  12.7326571210, -12.4919813367,   0.0006091457)
 A2 = (  -0.0383016557, -12.5082937711,  -0.0000083036)
 A3 = (   0.0106867969,  -0.0019194409, -19.8874398894)


Analysis of symmetry for initial positions (statically):
=====================================================================
 Subroutine PRICEL returns:
 Original cell was already a primitive cell.
 

 Routine SETGRP: Setting up the symmetry group for a 
 triclinic supercell.


 Subroutine GETGRP returns: Found  1 space group operations
 (whereof  1 operations were pure point group operations)
 out of a pool of  2 trial point group operations.


The static configuration has the point symmetry C_1 .


Analysis of symmetry for dynamics (positions and initial velocities):
=====================================================================
 Subroutine PRICEL returns:
 Original cell was already a primitive cell.
 

 Routine SETGRP: Setting up the symmetry group for a 
 triclinic supercell.


 Subroutine GETGRP returns: Found  1 space group operations
 (whereof  1 operations were pure point group operations)
 out of a pool of  2 trial point group operations.


The dynamic configuration has the point symmetry C_1 .


Analysis of structural, dynamic, and magnetic symmetry:
=====================================================================
 Subroutine PRICEL returns:
 Original cell was already a primitive cell.
 

 Routine SETGRP: Setting up the symmetry group for a 
 triclinic supercell.


 Subroutine GETGRP returns: Found  1 space group operations
 (whereof  1 operations were pure point group operations)
 out of a pool of  2 trial point group operations.


The magnetic configuration has the point symmetry C_1 .


 Subroutine INISYM returns: Found  1 space group operations
 (whereof  1 operations are pure point group operations),
 and found     1 'primitive' translations

 
 
 KPOINTS: KPOINTS created by Atomic Simulation Env

Automatic generation of k-mesh.
Space group operators:
 irot       det(A)        alpha          n_x          n_y          n_z        tau_x        tau_y        tau_z
    1     1.000000     0.000000     1.000000     0.000000     0.000000     0.000000     0.000000     0.000000
 
 Subroutine IBZKPT returns following result:
 ===========================================
 
 Found      1 irreducible k-points:
 
 Following reciprocal coordinates:
            Coordinates               Weight
  0.000000  0.000000  0.000000      1.000000
 
 Following cartesian coordinates:
            Coordinates               Weight
  0.000000  0.000000  0.000000      1.000000
 
 
 Subroutine IBZKPT_HF returns following result:
 ==============================================
 
 Found      1 k-points in 1st BZ
 the following      1 k-points will be used (e.g. in the exchange kernel)
 Following reciprocal coordinates:   # in IRBZ
  0.000000  0.000000  0.000000    1.00000000   1 t-inv F


--------------------------------------------------------------------------------------------------------




 Dimension of arrays:
   k-points           NKPTS =      1   k-points in BZ     NKDIM =      1   number of bands    NBANDS=    158
   number of dos      NEDOS =    301   number of ions     NIONS =     58
   non local maximal  LDIM  =      6   non local SUM 2l+1 LMDIM =     18
   total plane-waves  NPLWV = ******
   max r-space proj   IRMAX =      1   max aug-charges    IRDMAX=  15698
   dimension x,y,z NGX =    96 NGY =   96 NGZ =  150
   dimension x,y,z NGXF=   192 NGYF=  192 NGZF=  300
   support grid    NGXF=   192 NGYF=  192 NGZF=  300
   ions per type =              52   4   1   1
   NGX,Y,Z   is equivalent  to a cutoff of  12.50, 12.76, 12.54 a.u.
   NGXF,Y,Z  is equivalent  to a cutoff of  24.99, 25.52, 25.08 a.u.

 SYSTEM =  unknown system                          
 POSCAR =   C  N Zn Fe                             

 Startparameter for this run:
   NWRITE =      2    write-flag & timer
   PREC   = accura    normal or accurate (medium, high low for compatibility)
   ISTART =      1    job   : 0-new  1-cont  2-samecut
   ICHARG =      0    charge: 1-file 2-atom 10-const
   ISPIN  =      2    spin polarized calculation?
   LNONCOLLINEAR =      F non collinear calculations
   LSORBIT =      F    spin-orbit coupling
   INIWAV =      1    electr: 0-lowe 1-rand  2-diag
   LASPH  =      T    aspherical Exc in radial PAW
   METAGGA=      F    non-selfconsistent MetaGGA calc.

 Electronic Relaxation 1
   ENCUT  =  500.0 eV  36.75 Ry    6.06 a.u.  23.28 22.81 36.26*2*pi/ulx,y,z
   ENINI  =  500.0     initial cutoff
   ENAUG  =  644.9 eV  augmentation charge cutoff
   NELM   =    250;   NELMIN=  2; NELMDL=  0     # of ELM steps 
   EDIFF  = 0.1E-03   stopping-criterion for ELM
   LREAL  =      F    real-space projection
   NLSPLINE    = F    spline interpolate recip. space projectors
   LCOMPAT=      F    compatible to vasp.4.4
   GGA_COMPAT  = T    GGA compatible to vasp.4.4-vasp.4.6
   LMAXPAW     = -100 max onsite density
   LMAXMIX     =    2 max onsite mixed and CHGCAR
   VOSKOWN=      0    Vosko Wilk Nusair interpolation
   ROPT   =    0.00000   0.00000   0.00000   0.00000
 Ionic relaxation
   EDIFFG = -.3E-01   stopping-criterion for IOM
   NSW    =      0    number of steps for IOM
   NBLOCK =      1;   KBLOCK =      1    inner block; outer block 
   IBRION =     -1    ionic relax: 0-MD 1-quasi-New 2-CG
   NFREE  =      1    steps in history (QN), initial steepest desc. (CG)
   ISIF   =      2    stress and relaxation
   IWAVPR =     10    prediction:  0-non 1-charg 2-wave 3-comb
   ISYM   =      3    0-nonsym 1-usesym 2-fastsym
   LCORR  =      T    Harris-Foulkes like correction to forces

   POTIM  = 0.5000    time-step for ionic-motion
   TEIN   =    0.0    initial temperature
   TEBEG  =    0.0;   TEEND  =   0.0 temperature during run
   SMASS  =  -3.00    Nose mass-parameter (am)
   estimated Nose-frequenzy (Omega)   =  0.10E-29 period in steps =****** mass=  -0.373E-26a.u.
   SCALEE = 1.0000    scale energy and forces
   NPACO  =    256;   APACO  = 16.0  distance and # of slots for P.C.
   PSTRESS=    0.0 pullay stress

  Mass of Ions in am
   POMASS =  12.01 14.00 65.39 55.85
  Ionic Valenz
   ZVAL   =   4.00  5.00 12.00  8.00
  Atomic Wigner-Seitz radii
   RWIGS  =  -1.00 -1.00 -1.00 -1.00
  virtual crystal weights 
   VCA    =   1.00  1.00  1.00  1.00
   NELECT =     248.0000    total number of electrons
   NUPDOWN=      -1.0000    fix difference up-down

 DOS related values:
   EMIN   =  10.00;   EMAX   =-10.00  energy-range for DOS
   EFERMI =   0.00
   ISMEAR =     0;   SIGMA  =   0.10  broadening in eV -4-tet -1-fermi 0-gaus

 Electronic relaxation 2 (details)
   IALGO  =     53    algorithm
   LDIAG  =      T    sub-space diagonalisation (order eigenvalues)
   LSUBROT=      F    optimize rotation matrix (better conditioning)
   TURBO    =      0    0=normal 1=particle mesh
   IRESTART =      0    0=no restart 2=restart with 2 vectors
   NREBOOT  =      0    no. of reboots
   NMIN     =      0    reboot dimension
   EREF     =   0.00    reference energy to select bands
   IMIX   =      4    mixing-type and parameters
     AMIX     =   0.40;   BMIX     =  1.00
     AMIX_MAG =   1.60;   BMIX_MAG =  1.00
     AMIN     =   0.10
     WC   =   100.;   INIMIX=   1;  MIXPRE=   1;  MAXMIX= -45

 Intra band minimization:
   WEIMIN = 0.0000     energy-eigenvalue tresh-hold
   EBREAK =  0.16E-06  absolut break condition
   DEPER  =   0.30     relativ break condition  

   TIME   =   0.20     timestep for ELM

  volume/ion in A,a.u.               =      54.77       369.63
  Fermi-wavevector in a.u.,A,eV,Ry     =   0.699669  1.322182  6.660546  0.489536
  Thomas-Fermi vector in A             =   1.783611
 
 Write flags
   LWAVE        =      T    write WAVECAR
   LDOWNSAMPLE  =      F    k-point downsampling of WAVECAR
   LCHARG       =      T    write CHGCAR
   LVTOT        =      F    write LOCPOT, total local potential
   LVHAR        =      F    write LOCPOT, Hartree potential only
   LELF         =      F    write electronic localiz. function (ELF)
   LORBIT       =     11    0 simple, 1 ext, 2 COOP (PROOUT), +10 PAW based schemes


 Dipole corrections
   LMONO  =      F    monopole corrections only (constant potential shift)
   LDIPOL =      T    correct potential (dipole corrections)
   IDIPOL =      3    1-x, 2-y, 3-z, 4-all directions 
   EPSILON=  1.0000000 bulk dielectric constant

 Exchange correlation treatment:
   GGA     =    PE    GGA type
   LEXCH   =     8    internal setting for exchange type
   VOSKOWN=      0    Vosko Wilk Nusair interpolation
   EXXOEP  =     0    0=HF, 1=EXX-LHF (local Hartree Fock) 2=EXX OEP
   LHFCALC =     T    Hartree Fock is set to
   LSYMGRAD=     F    symmetrize gradient (conserves proper symmetry)
   PRECFOCK=normal    Normal, Fast or Accurate (Low or Medium for compatibility)
   LRHFCALC=     F    long range Hartree Fock
   LRSCOR  =     F    long range correlation only (use DFT for short range part)
   LTHOMAS =     F    Thomas Fermi screening in HF
   LMODELHF=     F    short range full HF, long range fraction AEXX
   ENCUT4O =  -1.0   cutoff for four orbital integrals eV
   LMAXFOCK=     4    L truncation for augmentation on plane wave grid
   LMAXFOCKAE=  -1    L truncation for all-electron charge restoration on plane wave grid
   NMAXFOCKAE=   1    number of basis functions for all-electron charge restoration
   LFOCKAEDFT=     F  apply the AE augmentation even for DFT
   NKREDX  =     1    reduce k-point grid by
   NKREDY  =     1    reduce k-point grid by
   NKREDZ  =     1    reduce k-point grid by
   SHIFTRED=     F    shift reduced grid of Gamma
   HFKIDENT=     F    idential grid for each k-point
   ODDONLY =     F    use only odd q-grid points
   EVENONLY=     F    use only even q-grid points
   HFALPHA =   -1.0000 decay constant for conv. correction
   MCALPHA =    0.0000 extent of test-charge in conv. correction in multipole expansion
   AEXX    =    0.2500 exact exchange contribution
   HFSCREEN=    0.2000 screening length (either q_TF or 0.3 A-1)
   HFSCREENC=   0.2000 screening length for correlation (either q_TF or 0.3 A-1)
   HFRCUT  =    0.0000 spherical cutoff for potential kernel
   ALDAX   =    0.7500 LDA exchange part
   AGGAX   =    0.7500 GGA exchange part
   ALDAC   =    1.0000 LDA correlation
   AGGAC   =    1.0000 GGA correlation
   ENCUTFOCK=  -1.0 apply spherical cutoff to Coloumb kernel
   NBANDSGWLOW=     1    first orbital included in HF term
   NBLOCK_FOCK=    64    blocking factor in FOCK_ACC
 Linear response parameters
   LEPSILON=     F    determine dielectric tensor
   LRPA    =     F    only Hartree local field effects (RPA)
   LNABLA  =     F    use nabla operator in PAW spheres
   LVEL    =     F    velocity operator in full k-point grid
   LINTERFAST=   F  fast interpolation
   KINTER  =     0    interpolate to denser k-point grid
   CSHIFT  =0.1000    complex shift for real part using Kramers Kronig
   OMEGAMAX=  -1.0    maximum frequency
   DEG_THRESHOLD= 0.2000000E-02 threshold for treating states as degnerate
   RTIME   =   -0.100 relaxation time in fs
  (WPLASMAI=    0.000 imaginary part of plasma frequency in eV, 0.658/RTIME)
   DFIELD  = 0.0000000 0.0000000 0.0000000 field for delta impulse in time
 
 Orbital magnetization related:
   ORBITALMAG=     F  switch on orbital magnetization
   LCHIMAG   =     F  perturbation theory with respect to B field
   DQ        =  0.001000  dq finite difference perturbation B field
   LLRAUG    =     F  two centre corrections for induced B field



--------------------------------------------------------------------------------------------------------


 Static calculation
 charge density and potential will be updated during run
 spin polarized calculation
 Conjugate gradient for all bands (Freysoldt, et al. PRB 79, 241103 (2009))
 perform sub-space diagonalisation
    before iterative eigenvector-optimisation
 modified Broyden-mixing scheme, WC =      100.0
 initial mixing is a Kerker type mixing with AMIX =  0.4000 and BMIX =      1.0000
 Hartree-type preconditioning will be used
 using additional bands           34
 reciprocal scheme for non local part
 use partial core corrections
 no Harris-corrections to forces 
 use gradient corrections 
 use of overlap-Matrix (Vanderbilt PP)
 Gauss-broadening in eV      SIGMA  =   0.10


--------------------------------------------------------------------------------------------------------


  energy-cutoff  :      500.00
  volume of cell :     3176.87
      direct lattice vectors                 reciprocal lattice vectors
    12.770958777  0.016312434  0.000617449     0.078302961 -0.000239772  0.000042100
     0.038301656 12.508293771  0.000008304    -0.000102117  0.079947268 -0.000007771
    -0.010686797  0.001919441 19.887439889    -0.000002431 -0.000000026  0.050282992

  length of vectors
    12.770969210 12.508352413 19.887442853     0.078303339  0.079947333  0.050282992


 
 old parameters found on file WAVECAR:
  energy-cutoff  :      500.00
  volume of cell :     3176.87
      direct lattice vectors                 reciprocal lattice vectors
    12.661700000  0.000000000  0.000000000     0.078978336 -0.000138533  0.000045640
     0.021991991 12.537780712  0.000000000     0.000000000  0.079758932 -0.000008016
    -0.011560896  0.002011131 20.011796560     0.000000000  0.000000000  0.049970526

  length of vectors

 
 k-points in units of 2pi/SCALE and weight: KPOINTS created by Atomic Simulation Env
   0.00000000  0.00000000  0.00000000       1.000
 
 k-points in reciprocal lattice and weights: KPOINTS created by Atomic Simulation Env
   0.00000000  0.00000000  0.00000000       1.000
 
 position of ions in fractional coordinates (direct lattice) 
   0.22177290  0.99847911  0.50001230
   0.05453906  0.09930547  0.49997971
   0.11040092  0.99948765  0.49999630
   0.27765730  0.09657457  0.50005430
   0.22201775  0.19503670  0.50008999
   0.05551683  0.29865721  0.50000777
   0.11027439  0.19790547  0.50001890
   0.27889503  0.29229898  0.50019431
   0.06171980  0.49853351  0.50000146
   0.11602936  0.39594054  0.50004926
   0.05668321  0.70040158  0.49998908
   0.11551733  0.60170473  0.50000489
   0.27609594  0.70323338  0.50004403
   0.22224341  0.80175951  0.50002077
   0.05546707  0.90006691  0.49998942
   0.11082860  0.80047997  0.50000511
   0.27776813  0.90004193  0.50000666
   0.55560454  0.99841088  0.49991444
   0.38887628  0.09645959  0.50005932
   0.44446070  0.99752312  0.49996270
   0.61099370  0.09771160  0.49997702
   0.55591708  0.19548817  0.50013619
   0.44332821  0.19617514  0.50018126
   0.55855520  0.60530331  0.50018522
   0.39006895  0.69859627  0.50008189
   0.61335997  0.70367197  0.50003191
   0.55611215  0.80106280  0.49995306
   0.38895782  0.89865604  0.49997223
   0.44448710  0.79907400  0.49999392
   0.61149068  0.90009630  0.49988812
   0.88875504  0.00018836  0.49992990
   0.72213803  0.09945166  0.49994722
   0.77774000  0.99991383  0.49990017
   0.94276612  0.10042608  0.49995061
   0.88709320  0.20089142  0.49997545
   0.71495600  0.29952841  0.50013633
   0.77464120  0.20059608  0.50001287
   0.94312460  0.30042507  0.49999390
   0.88684530  0.40050021  0.50003175
   0.71992441  0.50317894  0.50017194
   0.77232731  0.40081845  0.50012895
   0.94719592  0.49871965  0.49999764
   0.89103866  0.59898693  0.49998731
   0.72459443  0.70156684  0.49999878
   0.77912022  0.60057886  0.50004373
   0.94541135  0.69960493  0.49996751
   0.89033394  0.80004185  0.49994907
   0.72287892  0.90008625  0.49989025
   0.77900973  0.80066796  0.49993091
   0.94447580  0.90001819  0.49995468
   0.39112663  0.29638700  0.50029432
   0.44782478  0.59934048  0.50019800
   0.22347009  0.38769187  0.50015637
   0.22226409  0.60906054  0.50003288
   0.60535814  0.29391431  0.50022765
   0.61257724  0.50934252  0.50032227
   0.32940388  0.49579711  0.50017411
   0.50426557  0.40975982  0.50039389
 
 position of ions in cartesian coordinates  (Angst):
   2.86515245 12.49384738  9.94410983
   0.69497649  1.24399137  9.94335087
   1.44286430 12.50464576  9.94372287
   3.54430494  1.21347216  9.94497217
   2.83750537  2.44415786  9.94564826
   0.71509875  3.73755742  9.94391130
   1.41054617  2.47821838  9.94416559
   3.56760693  3.66167110  9.94775884
   0.80197231  6.23777012  9.94379117
   1.49162742  4.95539311  9.94477455
   0.74538224  8.76271306  9.94354353
   1.49296990  7.52914363  9.94389354
   3.54760101  8.80171329  9.94477186
   2.86362655 10.03322863  9.94427679
   0.73749839 11.26016581  9.94355134
   1.44070371 10.01540618  9.94389664
   3.57649493 11.26347964  9.94403138
   7.12850095 12.49843943  9.94236964
   4.96467349  1.21384819  9.94514051
   5.70905309 12.48552208  9.94326084
   7.80137466  1.23313191  9.94364094
   7.10173674  2.45525179  9.94677332
   5.66389484  2.46200812  9.94760015
   7.15112415  7.58138307  9.94775346
   5.00296754  8.74557026  9.94559511
   7.85480298  8.81270084  9.94473916
   7.12742442 10.02996005  9.94313646
   4.99644120 11.24795821  9.94341528
   5.70178891 10.00326267  9.94388008
   7.83845522 11.26960330  9.94187989
  11.34491856  0.01781343  9.94287457
   9.22086137  1.25671001  9.94311707
   9.96544151 12.52086225  9.94222314
  12.03853090  1.27249739  9.94332072
  11.33138209  2.52823921  9.94378111
   9.13680124  3.75921198  9.94687511
   9.89525051  2.52271069  9.94445584
  12.05076880  3.77414934  9.94418341
  11.33586088  5.02500067  9.94490219
   9.20805227  6.30661377  9.94758813
   9.87336752  5.02711346  9.94676467
  12.11035841  6.25454267  9.94426201
  11.39701691  7.50779921  9.94402280
   9.27529338  8.78818380  9.94414890
   9.96777146  7.52588594  9.94507566
  12.09526234  8.76724560  9.94366331
  11.39571810 10.02264157  9.94326342
   9.26098949 11.27129462  9.94199113
   9.97402536 10.02865724  9.94283362
  12.09099074 11.27405829  9.94340925
   5.00106762  3.71463615  9.94981709
   5.73676207  7.50499204  9.94793919
   2.86343154  4.85396917  9.94697104
   2.85650977  7.62289359  9.94451619
   7.73691546  3.68720156  9.94862351
   7.83736046  6.38195887  9.95051162
   4.22044791  6.20790931  9.94739013
   6.45030171  5.13458248  9.95186814
 


--------------------------------------------------------------------------------------------------------


 k-point  1 :   0.0000 0.0000 0.0000  plane waves:   80629

 maximum and minimum number of plane-waves per node :      2524     2512

 maximum number of plane-waves:     80629
 maximum index in each direction: 
   IXMAX=   23   IYMAX=   22   IZMAX=   36
   IXMIN=  -23   IYMIN=  -22   IZMIN=  -36


 parallel 3D FFT for wavefunctions:
    minimum data exchange during FFTs selected (reduces bandwidth)
 parallel 3D FFT for charge:
    minimum data exchange during FFTs selected (reduces bandwidth)


 FFT grid for exact exchange (Hartree Fock) 
  NGX = 70; NGY = 70; NGZ =112

 
 Radii for the augmentation spheres in the non-local exchange
 for species   1 augmentation radius   0.874 (default was   0.699)
       energy cutoff for augmentation   2000.0
 for species   2 augmentation radius   0.886 (default was   0.709)
       energy cutoff for augmentation   2000.0
 for species   3 augmentation radius   1.190 (default was   0.952)
       energy cutoff for augmentation   2000.0
 for species   4 augmentation radius   1.263 (default was   1.010)
       energy cutoff for augmentation   2000.0

 real space projection operators:
  total allocation   :       2405.44 KBytes
  max/ min on nodes  :        106.77         41.13

 Maximum index for augmentation-charges in exchange          124
  SETUP_FOCK is finished

 total amount of memory used by VASP MPI-rank0   125101. kBytes
=======================================================================

   base      :      30000. kBytes
   nonl-proj :       3782. kBytes
   fftplans  :      14248. kBytes
   grid      :      36827. kBytes
   one-center:         62. kBytes
   HF        :         23. kBytes
   nonlr-proj:       1618. kBytes
   wavefun   :      38541. kBytes
 
     INWAV:  cpu time    1.9388: real time    1.9391
 Broyden mixing: mesh for mixing (old mesh)
   NGX = 47   NGY = 45   NGZ = 73
  (NGX  =192   NGY  =192   NGZ  =300)
  gives a total of 154395 points

 charge density for first step will be calculated from the start-wavefunctions


--------------------------------------------------------------------------------------------------------


 Maximum index for augmentation-charges          742 (set IRDMAX)


--------------------------------------------------------------------------------------------------------


 initial charge from wavefunction
 First call to EWALD:  gamma=   0.121
 Maximum number of real-space cells 3x 3x 2
 Maximum number of reciprocal cells 2x 2x 4

    FEWALD:  cpu time    0.0036: real time    0.0036


--------------------------------------- Iteration      1(   1)  ---------------------------------------


    POTLOK:  cpu time    1.3852: real time    1.4098
    SETDIJ:  cpu time    2.0932: real time    2.0955
    TRIAL :  cpu time   64.0072: real time   64.0223
    CORREC:  cpu time    0.0010: real time    0.0012
    CHARGE:  cpu time    0.1945: real time    0.1945
    --------------------------------------------
      LOOP:  cpu time   67.6897: real time   67.7347

 eigenvalue-minimisations  :     0
 total energy-change (2. order) :-0.5712032E+03  (-0.8078810E+01)
 number of electron     248.0000006 magnetization       1.9999305
 augmentation part       17.9629021 magnetization       1.3833808

 DIPCOR: dipole corrections for dipol
 direction  3 min pos     1,
 dipolmoment           0.000000     -0.000000     -0.000496 electrons x Angstroem
 Tr[quadrupol]     -6790.095827

 energy correction for charged system         0.000000 eV
 dipol+quadrupol energy correction            0.000000 eV
 added-field ion interaction          0.000000 eV  (added to PSCEN)


 Free energy of the ion-electron system (eV)
  ---------------------------------------------------
  alpha Z        PSCENC =       107.13509415
  Ewald energy   TEWEN  =     39868.58831547
  -Hartree energ DENC   =    -49301.65075822
  -exchange      EXHF   =       569.50107371
  -V(xc)+E(xc)   XCENC  =       656.74278023
  PAW double counting   =     28816.43397960   -29020.20286428
  entropy T*S    EENTRO =        -0.00002715
  eigenvalues    EBANDS =     -3211.59080469
  atomic energy  EATOM  =     10943.84007970
  ---------------------------------------------------
  free energy    TOTEN  =      -571.20319340 eV

  energy without entropy =     -571.20316625  energy(sigma->0) =     -571.20317982
  exchange ACFDT corr.  =        -0.00011527  see jH, gK, PRB 81, 115126


--------------------------------------------------------------------------------------------------------




--------------------------------------- Iteration      1(   2)  ---------------------------------------


    POTLOK:  cpu time    1.4073: real time    1.4074
    SETDIJ:  cpu time    2.0872: real time    2.0873
    TRIAL :  cpu time   63.8549: real time   63.8586
    CORREC:  cpu time    0.0009: real time    0.0012
    CHARGE:  cpu time    0.1935: real time    0.1935
    --------------------------------------------
      LOOP:  cpu time   67.5481: real time   67.5528

 eigenvalue-minimisations  :     0
 total energy-change (2. order) :-0.7301885E+01  (-0.8995945E+01)
 number of electron     248.0000006 magnetization       1.9999924
 augmentation part       17.9648786 magnetization       1.4092598

 DIPCOR: dipole corrections for dipol
 direction  3 min pos     1,
 dipolmoment           0.000000     -0.000000     -0.000319 electrons x Angstroem
 Tr[quadrupol]     -6789.884719

 energy correction for charged system         0.000000 eV
 dipol+quadrupol energy correction            0.000000 eV
 added-field ion interaction          0.000000 eV  (added to PSCEN)


 Free energy of the ion-electron system (eV)
  ---------------------------------------------------
  alpha Z        PSCENC =       107.13509414
  Ewald energy   TEWEN  =     39868.58831547
  -Hartree energ DENC   =    -49288.96385136
  -exchange      EXHF   =       569.38505885
  -V(xc)+E(xc)   XCENC  =       656.43942453
  PAW double counting   =     28541.16252532   -28746.69334801
  entropy T*S    EENTRO =        -0.00000387
  eigenvalues    EBANDS =     -3229.39834984
  atomic energy  EATOM  =     10943.84007970
  ---------------------------------------------------
  free energy    TOTEN  =      -578.50507835 eV

  energy without entropy =     -578.50507448  energy(sigma->0) =     -578.50507641
  exchange ACFDT corr.  =        -0.00002804  see jH, gK, PRB 81, 115126


--------------------------------------------------------------------------------------------------------




--------------------------------------- Iteration      1(   3)  ---------------------------------------


    POTLOK:  cpu time    1.4102: real time    1.4102
    SETDIJ:  cpu time    2.0901: real time    2.0901
    TRIAL :  cpu time   63.9193: real time   63.9222
    CORREC:  cpu time    0.0009: real time    0.0011
    CHARGE:  cpu time    0.1935: real time    0.1935
    --------------------------------------------
      LOOP:  cpu time   67.6164: real time   67.6218

 eigenvalue-minimisations  :     0
 total energy-change (2. order) :-0.7697726E+01  (-0.6588386E+01)
 number of electron     248.0000006 magnetization       1.9999998
 augmentation part       17.9472819 magnetization       1.4279922

 DIPCOR: dipole corrections for dipol
 direction  3 min pos     1,
 dipolmoment           0.000000     -0.000000     -0.000188 electrons x Angstroem
 Tr[quadrupol]     -6789.648548

 energy correction for charged system         0.000000 eV
 dipol+quadrupol energy correction            0.000000 eV
 added-field ion interaction          0.000000 eV  (added to PSCEN)


 Free energy of the ion-electron system (eV)
  ---------------------------------------------------
  alpha Z        PSCENC =       107.13509414
  Ewald energy   TEWEN  =     39868.58831547
  -Hartree energ DENC   =    -49272.39587770
  -exchange      EXHF   =       569.24417425
  -V(xc)+E(xc)   XCENC  =       656.04040018
  PAW double counting   =     28213.68779283   -28419.85615874
  entropy T*S    EENTRO =        -0.00000035
  eigenvalues    EBANDS =     -3252.48662072
  atomic energy  EATOM  =     10943.84007970
  ---------------------------------------------------
  free energy    TOTEN  =      -586.20280445 eV

  energy without entropy =     -586.20280410  energy(sigma->0) =     -586.20280427
  exchange ACFDT corr.  =        -0.00000294  see jH, gK, PRB 81, 115126


--------------------------------------------------------------------------------------------------------




--------------------------------------- Iteration      1(   4)  ---------------------------------------


    POTLOK:  cpu time    1.4122: real time    1.4123
    SETDIJ:  cpu time    2.0906: real time    2.0906
    TRIAL :  cpu time   64.0083: real time   64.0237
    CORREC:  cpu time    0.0008: real time    0.0010
    CHARGE:  cpu time    0.1919: real time    0.1919
    --------------------------------------------
      LOOP:  cpu time   67.7062: real time   67.7219

 eigenvalue-minimisations  :     0
 total energy-change (2. order) :-0.5471775E+01  (-0.4052937E+01)
 number of electron     248.0000006 magnetization       2.0000002
 augmentation part       17.9395555 magnetization       1.4381809

 DIPCOR: dipole corrections for dipol
 direction  3 min pos     1,
 dipolmoment           0.000000     -0.000000     -0.000151 electrons x Angstroem
 Tr[quadrupol]     -6789.552874

 energy correction for charged system         0.000000 eV
 dipol+quadrupol energy correction            0.000000 eV
 added-field ion interaction          0.000000 eV  (added to PSCEN)


 Free energy of the ion-electron system (eV)
  ---------------------------------------------------
  alpha Z        PSCENC =       107.13509414
  Ewald energy   TEWEN  =     39868.58831547
  -Hartree energ DENC   =    -49263.11279875
  -exchange      EXHF   =       569.27259699
  -V(xc)+E(xc)   XCENC  =       655.80748093
  PAW double counting   =     27956.75792269   -28162.03638134
  entropy T*S    EENTRO =        -0.00000002
  eigenvalues    EBANDS =     -3267.92688889
  atomic energy  EATOM  =     10943.84007970
  ---------------------------------------------------
  free energy    TOTEN  =      -591.67457939 eV

  energy without entropy =     -591.67457936  energy(sigma->0) =     -591.67457938
  exchange ACFDT corr.  =        -0.00000020  see jH, gK, PRB 81, 115126


--------------------------------------------------------------------------------------------------------




--------------------------------------- Iteration      1(   5)  ---------------------------------------


    POTLOK:  cpu time    1.4148: real time    1.4149
    SETDIJ:  cpu time    2.0961: real time    2.0962
    TRIAL :  cpu time   63.8776: real time   63.8814
    CORREC:  cpu time    0.0007: real time    0.0009
    CHARGE:  cpu time    0.1931: real time    0.1931
    --------------------------------------------
      LOOP:  cpu time   67.5848: real time   67.5890

 eigenvalue-minimisations  :     0
 total energy-change (2. order) :-0.3330155E+01  (-0.2353386E+01)
 number of electron     248.0000006 magnetization       2.0000003
 augmentation part       17.9511144 magnetization       1.4425892

 DIPCOR: dipole corrections for dipol
 direction  3 min pos     1,
 dipolmoment           0.000000     -0.000000     -0.000186 electrons x Angstroem
 Tr[quadrupol]     -6789.610832

 energy correction for charged system         0.000000 eV
 dipol+quadrupol energy correction            0.000000 eV
 added-field ion interaction          0.000000 eV  (added to PSCEN)


 Free energy of the ion-electron system (eV)
  ---------------------------------------------------
  alpha Z        PSCENC =       107.13509414
  Ewald energy   TEWEN  =     39868.58831547
  -Hartree energ DENC   =    -49264.78870209
  -exchange      EXHF   =       569.52695281
  -V(xc)+E(xc)   XCENC  =       655.84452561
  PAW double counting   =     27803.21609774   -28007.48699904
  entropy T*S    EENTRO =        -0.00000000
  eigenvalues    EBANDS =     -3270.88009858
  atomic energy  EATOM  =     10943.84007970
  ---------------------------------------------------
  free energy    TOTEN  =      -595.00473425 eV

  energy without entropy =     -595.00473424  energy(sigma->0) =     -595.00473425
  exchange ACFDT corr.  =        -0.00000001  see jH, gK, PRB 81, 115126


--------------------------------------------------------------------------------------------------------




--------------------------------------- Iteration      1(   6)  ---------------------------------------


    POTLOK:  cpu time    1.4090: real time    1.4091
    SETDIJ:  cpu time    2.0876: real time    2.0876
    TRIAL :  cpu time   63.5017: real time   63.5045
    CORREC:  cpu time    0.0006: real time    0.0006
    CHARGE:  cpu time    0.1923: real time    0.1926
    --------------------------------------------
      LOOP:  cpu time   67.1937: real time   67.1968

 eigenvalue-minimisations  :     0
 total energy-change (2. order) :-0.1942065E+01  (-0.1374981E+01)
 number of electron     248.0000006 magnetization       2.0000003
 augmentation part       17.9693181 magnetization       1.4440062

 DIPCOR: dipole corrections for dipol
 direction  3 min pos     1,
 dipolmoment           0.000000     -0.000000     -0.000228 electrons x Angstroem
 Tr[quadrupol]     -6789.725653

 energy correction for charged system         0.000000 eV
 dipol+quadrupol energy correction            0.000000 eV
 added-field ion interaction          0.000000 eV  (added to PSCEN)


 Free energy of the ion-electron system (eV)
  ---------------------------------------------------
  alpha Z        PSCENC =       107.13509414
  Ewald energy   TEWEN  =     39868.58831547
  -Hartree energ DENC   =    -49272.55371425
  -exchange      EXHF   =       569.88395779
  -V(xc)+E(xc)   XCENC  =       656.04895820
  PAW double counting   =     27733.77182061   -27937.91163792
  entropy T*S    EENTRO =        -0.00000000
  eigenvalues    EBANDS =     -3265.74967260
  atomic energy  EATOM  =     10943.84007970
  ---------------------------------------------------
  free energy    TOTEN  =      -596.94679885 eV

  energy without entropy =     -596.94679885  energy(sigma->0) =     -596.94679885
  exchange ACFDT corr.  =        -0.00000000  see jH, gK, PRB 81, 115126


--------------------------------------------------------------------------------------------------------




--------------------------------------- Iteration      1(   7)  ---------------------------------------


    POTLOK:  cpu time    1.4125: real time    1.4125
    SETDIJ:  cpu time    2.0867: real time    2.0868
    TRIAL :  cpu time   63.4810: real time   63.4842
    CORREC:  cpu time    0.0006: real time    0.0006
    CHARGE:  cpu time    0.1918: real time    0.1918
    --------------------------------------------
      LOOP:  cpu time   67.1748: real time   67.1780

 eigenvalue-minimisations  :     0
 total energy-change (2. order) :-0.1145339E+01  (-0.8210284E+00)
 number of electron     248.0000006 magnetization       2.0000003
 augmentation part       17.9830531 magnetization       1.4444622

 DIPCOR: dipole corrections for dipol
 direction  3 min pos     1,
 dipolmoment           0.000000     -0.000000     -0.000258 electrons x Angstroem
 Tr[quadrupol]     -6789.813197

 energy correction for charged system         0.000000 eV
 dipol+quadrupol energy correction            0.000000 eV
 added-field ion interaction          0.000000 eV  (added to PSCEN)


 Free energy of the ion-electron system (eV)
  ---------------------------------------------------
  alpha Z        PSCENC =       107.13509414
  Ewald energy   TEWEN  =     39868.58831547
  -Hartree energ DENC   =    -49279.71748274
  -exchange      EXHF   =       570.18814499
  -V(xc)+E(xc)   XCENC  =       656.25390811
  PAW double counting   =     27713.84293986   -27918.36924419
  entropy T*S    EENTRO =        -0.00000000
  eigenvalues    EBANDS =     -3259.85389334
  atomic energy  EATOM  =     10943.84007970
  ---------------------------------------------------
  free energy    TOTEN  =      -598.09213798 eV

  energy without entropy =     -598.09213798  energy(sigma->0) =     -598.09213798
  exchange ACFDT corr.  =        -0.00000000  see jH, gK, PRB 81, 115126


--------------------------------------------------------------------------------------------------------




--------------------------------------- Iteration      1(   8)  ---------------------------------------


    POTLOK:  cpu time    1.4098: real time    1.4099
    SETDIJ:  cpu time    2.0952: real time    2.0951
    TRIAL :  cpu time   63.2518: real time   63.2625
    CORREC:  cpu time    0.0005: real time    0.0005
    CHARGE:  cpu time    0.1951: real time    0.1953
    --------------------------------------------
      LOOP:  cpu time   66.9543: real time   66.9653

 eigenvalue-minimisations  :     0
 total energy-change (2. order) :-0.6897347E+00  (-0.4982504E+00)
 number of electron     248.0000006 magnetization       2.0000003
 augmentation part       17.9900444 magnetization       1.4450027

 DIPCOR: dipole corrections for dipol
 direction  3 min pos     1,
 dipolmoment           0.000000     -0.000000     -0.000267 electrons x Angstroem
 Tr[quadrupol]     -6789.847908

 energy correction for charged system         0.000000 eV
 dipol+quadrupol energy correction            0.000000 eV
 added-field ion interaction          0.000000 eV  (added to PSCEN)


 Free energy of the ion-electron system (eV)
  ---------------------------------------------------
  alpha Z        PSCENC =       107.13509414
  Ewald energy   TEWEN  =     39868.58831547
  -Hartree energ DENC   =    -49283.11687073
  -exchange      EXHF   =       570.36985062
  -V(xc)+E(xc)   XCENC  =       656.36994229
  PAW double counting   =     27716.24458490   -27921.06668124
  entropy T*S    EENTRO =        -0.00000000
  eigenvalues    EBANDS =     -3257.14618781
  atomic energy  EATOM  =     10943.84007970
  ---------------------------------------------------
  free energy    TOTEN  =      -598.78187265 eV

  energy without entropy =     -598.78187265  energy(sigma->0) =     -598.78187265
  exchange ACFDT corr.  =        -0.00000000  see jH, gK, PRB 81, 115126


--------------------------------------------------------------------------------------------------------




--------------------------------------- Iteration      1(   9)  ---------------------------------------


    POTLOK:  cpu time    1.4071: real time    1.4071
    SETDIJ:  cpu time    2.0922: real time    2.0922
    TRIAL :  cpu time   63.2047: real time   63.2159
    CORREC:  cpu time    0.0005: real time    0.0005
    CHARGE:  cpu time    0.1928: real time    0.1930
    --------------------------------------------
      LOOP:  cpu time   66.8993: real time   66.9108

 eigenvalue-minimisations  :     0
 total energy-change (2. order) :-0.4206416E+00  (-0.3025867E+00)
 number of electron     248.0000006 magnetization       2.0000003
 augmentation part       17.9935394 magnetization       1.4456079

 DIPCOR: dipole corrections for dipol
 direction  3 min pos     1,
 dipolmoment           0.000000     -0.000000     -0.000273 electrons x Angstroem
 Tr[quadrupol]     -6789.845541

 energy correction for charged system         0.000000 eV
 dipol+quadrupol energy correction            0.000000 eV
 added-field ion interaction          0.000000 eV  (added to PSCEN)


 Free energy of the ion-electron system (eV)
  ---------------------------------------------------
  alpha Z        PSCENC =       107.13509414
  Ewald energy   TEWEN  =     39868.58831547
  -Hartree energ DENC   =    -49283.25454695
  -exchange      EXHF   =       570.44493835
  -V(xc)+E(xc)   XCENC  =       656.39948621
  PAW double counting   =     27726.49481073   -27931.31555932
  entropy T*S    EENTRO =        -0.00000000
  eigenvalues    EBANDS =     -3257.53513263
  atomic energy  EATOM  =     10943.84007970
  ---------------------------------------------------
  free energy    TOTEN  =      -599.20251428 eV

  energy without entropy =     -599.20251428  energy(sigma->0) =     -599.20251428
  exchange ACFDT corr.  =        -0.00000000  see jH, gK, PRB 81, 115126


--------------------------------------------------------------------------------------------------------




--------------------------------------- Iteration      1(  10)  ---------------------------------------


    POTLOK:  cpu time    1.4075: real time    1.4076
    SETDIJ:  cpu time    2.0866: real time    2.0867
    TRIAL :  cpu time   63.1322: real time   63.1352
    CORREC:  cpu time    0.0005: real time    0.0005
    CHARGE:  cpu time    0.1917: real time    0.1917
    --------------------------------------------
      LOOP:  cpu time   66.8208: real time   66.8238

 eigenvalue-minimisations  :     0
 total energy-change (2. order) :-0.2561314E+00  (-0.1824939E+00)
 number of electron     248.0000006 magnetization       2.0000003
 augmentation part       17.9970669 magnetization       1.4459398

 DIPCOR: dipole corrections for dipol
 direction  3 min pos     1,
 dipolmoment           0.000000     -0.000000     -0.000280 electrons x Angstroem
 Tr[quadrupol]     -6789.833057

 energy correction for charged system         0.000000 eV
 dipol+quadrupol energy correction            0.000000 eV
 added-field ion interaction          0.000000 eV  (added to PSCEN)


 Free energy of the ion-electron system (eV)
  ---------------------------------------------------
  alpha Z        PSCENC =       107.13509414
  Ewald energy   TEWEN  =     39868.58831547
  -Hartree energ DENC   =    -49282.25543172
  -exchange      EXHF   =       570.46762128
  -V(xc)+E(xc)   XCENC  =       656.39085938
  PAW double counting   =     27738.42950568   -27943.13949735
  entropy T*S    EENTRO =        -0.00000000
  eigenvalues    EBANDS =     -3258.91519229
  atomic energy  EATOM  =     10943.84007970
  ---------------------------------------------------
  free energy    TOTEN  =      -599.45864571 eV

  energy without entropy =     -599.45864571  energy(sigma->0) =     -599.45864571
  exchange ACFDT corr.  =        -0.00000000  see jH, gK, PRB 81, 115126


--------------------------------------------------------------------------------------------------------




--------------------------------------- Iteration      1(  11)  ---------------------------------------


    POTLOK:  cpu time    1.4040: real time    1.4041
    SETDIJ:  cpu time    2.0958: real time    2.0958
    TRIAL :  cpu time   63.1537: real time   63.1561
    CORREC:  cpu time    0.0005: real time    0.0008
    CHARGE:  cpu time    0.1901: real time    0.1901
    --------------------------------------------
      LOOP:  cpu time   66.8464: real time   66.8492

 eigenvalue-minimisations  :     0
 total energy-change (2. order) :-0.1552350E+00  (-0.1098613E+00)
 number of electron     248.0000006 magnetization       2.0000003
 augmentation part       18.0003759 magnetization       1.4459495

 DIPCOR: dipole corrections for dipol
 direction  3 min pos     1,
 dipolmoment           0.000000     -0.000000     -0.000288 electrons x Angstroem
 Tr[quadrupol]     -6789.827228

 energy correction for charged system         0.000000 eV
 dipol+quadrupol energy correction            0.000000 eV
 added-field ion interaction          0.000000 eV  (added to PSCEN)


 Free energy of the ion-electron system (eV)
  ---------------------------------------------------
  alpha Z        PSCENC =       107.13509414
  Ewald energy   TEWEN  =     39868.58831547
  -Hartree energ DENC   =    -49281.75193780
  -exchange      EXHF   =       570.48286229
  -V(xc)+E(xc)   XCENC  =       656.38581184
  PAW double counting   =     27749.60116255   -27954.32150026
  entropy T*S    EENTRO =        -0.00000000
  eigenvalues    EBANDS =     -3259.57376861
  atomic energy  EATOM  =     10943.84007970
  ---------------------------------------------------
  free energy    TOTEN  =      -599.61388067 eV

  energy without entropy =     -599.61388067  energy(sigma->0) =     -599.61388067
  exchange ACFDT corr.  =        -0.00000000  see jH, gK, PRB 81, 115126


--------------------------------------------------------------------------------------------------------




--------------------------------------- Iteration      1(  12)  ---------------------------------------


    POTLOK:  cpu time    1.4047: real time    1.4047
    SETDIJ:  cpu time    2.0918: real time    2.0918
    TRIAL :  cpu time   63.1464: real time   63.1494
    CORREC:  cpu time    0.0005: real time    0.0008
    CHARGE:  cpu time    0.1912: real time    0.1912
    --------------------------------------------
      LOOP:  cpu time   66.8369: real time   66.8401

 eigenvalue-minimisations  :     0
 total energy-change (2. order) :-0.9402172E-01  (-0.6650025E-01)
 number of electron     248.0000006 magnetization       2.0000003
 augmentation part       18.0024992 magnetization       1.4458474

 DIPCOR: dipole corrections for dipol
 direction  3 min pos     1,
 dipolmoment           0.000000     -0.000000     -0.000295 electrons x Angstroem
 Tr[quadrupol]     -6789.829291

 energy correction for charged system         0.000000 eV
 dipol+quadrupol energy correction            0.000000 eV
 added-field ion interaction          0.000000 eV  (added to PSCEN)


 Free energy of the ion-electron system (eV)
  ---------------------------------------------------
  alpha Z        PSCENC =       107.13509414
  Ewald energy   TEWEN  =     39868.58831547
  -Hartree energ DENC   =    -49281.86677767
  -exchange      EXHF   =       570.50221483
  -V(xc)+E(xc)   XCENC  =       656.39065032
  PAW double counting   =     27758.78109778   -27963.58963120
  entropy T*S    EENTRO =        -0.00000000
  eigenvalues    EBANDS =     -3259.48894576
  atomic energy  EATOM  =     10943.84007970
  ---------------------------------------------------
  free energy    TOTEN  =      -599.70790240 eV

  energy without entropy =     -599.70790240  energy(sigma->0) =     -599.70790240
  exchange ACFDT corr.  =        -0.00000000  see jH, gK, PRB 81, 115126


--------------------------------------------------------------------------------------------------------




--------------------------------------- Iteration      1(  13)  ---------------------------------------


    POTLOK:  cpu time    1.4019: real time    1.4019
    SETDIJ:  cpu time    2.0901: real time    2.0902
    TRIAL :  cpu time   63.1057: real time   63.1184
    CORREC:  cpu time    0.0005: real time    0.0008
    CHARGE:  cpu time    0.1946: real time    0.1946
    --------------------------------------------
      LOOP:  cpu time   66.7956: real time   66.8086

 eigenvalue-minimisations  :     0
 total energy-change (2. order) :-0.5742200E-01  (-0.4111623E-01)
 number of electron     248.0000006 magnetization       2.0000003
 augmentation part       18.0034121 magnetization       1.4457599

 DIPCOR: dipole corrections for dipol
 direction  3 min pos     1,
 dipolmoment           0.000000     -0.000000     -0.000296 electrons x Angstroem
 Tr[quadrupol]     -6789.834386

 energy correction for charged system         0.000000 eV
 dipol+quadrupol energy correction            0.000000 eV
 added-field ion interaction          0.000000 eV  (added to PSCEN)


 Free energy of the ion-electron system (eV)
  ---------------------------------------------------
  alpha Z        PSCENC =       107.13509414
  Ewald energy   TEWEN  =     39868.58831547
  -Hartree energ DENC   =    -49282.14757572
  -exchange      EXHF   =       570.52167510
  -V(xc)+E(xc)   XCENC  =       656.39711092
  PAW double counting   =     27765.76218861   -27970.62366588
  entropy T*S    EENTRO =        -0.00000000
  eigenvalues    EBANDS =     -3259.23854673
  atomic energy  EATOM  =     10943.84007970
  ---------------------------------------------------
  free energy    TOTEN  =      -599.76532439 eV

  energy without entropy =     -599.76532439  energy(sigma->0) =     -599.76532439
  exchange ACFDT corr.  =        -0.00000000  see jH, gK, PRB 81, 115126


--------------------------------------------------------------------------------------------------------




--------------------------------------- Iteration      1(  14)  ---------------------------------------


    POTLOK:  cpu time    1.3989: real time    1.3989
    SETDIJ:  cpu time    2.0880: real time    2.0880
    TRIAL :  cpu time   63.1708: real time   63.1786
    CORREC:  cpu time    0.0005: real time    0.0005
    CHARGE:  cpu time    0.1910: real time    0.1912
    --------------------------------------------
      LOOP:  cpu time   66.8514: real time   66.8594

 eigenvalue-minimisations  :     0
 total energy-change (2. order) :-0.3592959E-01  (-0.2622059E-01)
 number of electron     248.0000006 magnetization       2.0000003
 augmentation part       18.0037606 magnetization       1.4456023

 DIPCOR: dipole corrections for dipol
 direction  3 min pos     1,
 dipolmoment           0.000000     -0.000000     -0.000297 electrons x Angstroem
 Tr[quadrupol]     -6789.838717

 energy correction for charged system         0.000000 eV
 dipol+quadrupol energy correction            0.000000 eV
 added-field ion interaction          0.000000 eV  (added to PSCEN)


 Free energy of the ion-electron system (eV)
  ---------------------------------------------------
  alpha Z        PSCENC =       107.13509414
  Ewald energy   TEWEN  =     39868.58831547
  -Hartree energ DENC   =    -49282.32514531
  -exchange      EXHF   =       570.53787711
  -V(xc)+E(xc)   XCENC  =       656.40048925
  PAW double counting   =     27770.70387755   -27975.55684778
  entropy T*S    EENTRO =        -0.00000000
  eigenvalues    EBANDS =     -3259.12499411
  atomic energy  EATOM  =     10943.84007970
  ---------------------------------------------------
  free energy    TOTEN  =      -599.80125398 eV

  energy without entropy =     -599.80125398  energy(sigma->0) =     -599.80125398
  exchange ACFDT corr.  =        -0.00000000  see jH, gK, PRB 81, 115126


--------------------------------------------------------------------------------------------------------




--------------------------------------- Iteration      1(  15)  ---------------------------------------


    POTLOK:  cpu time    1.3934: real time    1.3935
    SETDIJ:  cpu time    2.0880: real time    2.0881
    TRIAL :  cpu time   63.1423: real time   63.1448
    CORREC:  cpu time    0.0005: real time    0.0008
    CHARGE:  cpu time    0.1980: real time    0.1980
    --------------------------------------------
      LOOP:  cpu time   66.8247: real time   66.8277

 eigenvalue-minimisations  :     0
 total energy-change (2. order) :-0.2319908E-01  (-0.1724423E-01)
 number of electron     248.0000006 magnetization       2.0000003
 augmentation part       18.0040961 magnetization       1.4453164

 DIPCOR: dipole corrections for dipol
 direction  3 min pos     1,
 dipolmoment           0.000000     -0.000000     -0.000299 electrons x Angstroem
 Tr[quadrupol]     -6789.841096

 energy correction for charged system         0.000000 eV
 dipol+quadrupol energy correction            0.000000 eV
 added-field ion interaction          0.000000 eV  (added to PSCEN)


 Free energy of the ion-electron system (eV)
  ---------------------------------------------------
  alpha Z        PSCENC =       107.13509414
  Ewald energy   TEWEN  =     39868.58831547
  -Hartree energ DENC   =    -49282.40561459
  -exchange      EXHF   =       570.55116011
  -V(xc)+E(xc)   XCENC  =       656.40197561
  PAW double counting   =     27773.78018982   -27978.61289612
  entropy T*S    EENTRO =        -0.00000000
  eigenvalues    EBANDS =     -3259.10275720
  atomic energy  EATOM  =     10943.84007970
  ---------------------------------------------------
  free energy    TOTEN  =      -599.82445306 eV

  energy without entropy =     -599.82445306  energy(sigma->0) =     -599.82445306
  exchange ACFDT corr.  =        -0.00000000  see jH, gK, PRB 81, 115126


--------------------------------------------------------------------------------------------------------




--------------------------------------- Iteration      1(  16)  ---------------------------------------


    POTLOK:  cpu time    1.3938: real time    1.3940
    SETDIJ:  cpu time    2.0894: real time    2.0894
    TRIAL :  cpu time   63.2615: real time   63.2644
    CORREC:  cpu time    0.0005: real time    0.0008
    CHARGE:  cpu time    0.1903: real time    0.1903
    --------------------------------------------
      LOOP:  cpu time   66.9382: real time   66.9415

 eigenvalue-minimisations  :     0
 total energy-change (2. order) :-0.1543216E-01  (-0.1164005E-01)
 number of electron     248.0000006 magnetization       2.0000003
 augmentation part       18.0043774 magnetization       1.4449382

 DIPCOR: dipole corrections for dipol
 direction  3 min pos     1,
 dipolmoment           0.000000     -0.000000     -0.000300 electrons x Angstroem
 Tr[quadrupol]     -6789.841925

 energy correction for charged system         0.000000 eV
 dipol+quadrupol energy correction            0.000000 eV
 added-field ion interaction          0.000000 eV  (added to PSCEN)


 Free energy of the ion-electron system (eV)
  ---------------------------------------------------
  alpha Z        PSCENC =       107.13509414
  Ewald energy   TEWEN  =     39868.58831547
  -Hartree energ DENC   =    -49282.46532116
  -exchange      EXHF   =       570.56282938
  -V(xc)+E(xc)   XCENC  =       656.40377062
  PAW double counting   =     27775.32639003   -27980.16480874
  entropy T*S    EENTRO =        -0.00000000
  eigenvalues    EBANDS =     -3259.06623467
  atomic energy  EATOM  =     10943.84007970
  ---------------------------------------------------
  free energy    TOTEN  =      -599.83988522 eV

  energy without entropy =     -599.83988522  energy(sigma->0) =     -599.83988522
  exchange ACFDT corr.  =        -0.00000000  see jH, gK, PRB 81, 115126


--------------------------------------------------------------------------------------------------------




--------------------------------------- Iteration      1(  17)  ---------------------------------------


    POTLOK:  cpu time    1.3899: real time    1.3899
    SETDIJ:  cpu time    2.0893: real time    2.0893
    TRIAL :  cpu time   63.1412: real time   63.1478
    CORREC:  cpu time    0.0005: real time    0.0005
    CHARGE:  cpu time    0.1905: real time    0.1908
    --------------------------------------------
      LOOP:  cpu time   66.8137: real time   66.8205

 eigenvalue-minimisations  :     0
 total energy-change (2. order) :-0.1050385E-01  (-0.7997111E-02)
 number of electron     248.0000006 magnetization       2.0000003
 augmentation part       18.0044950 magnetization       1.4445477

 DIPCOR: dipole corrections for dipol
 direction  3 min pos     1,
 dipolmoment           0.000000     -0.000000     -0.000299 electrons x Angstroem
 Tr[quadrupol]     -6789.841851

 energy correction for charged system         0.000000 eV
 dipol+quadrupol energy correction            0.000000 eV
 added-field ion interaction          0.000000 eV  (added to PSCEN)


 Free energy of the ion-electron system (eV)
  ---------------------------------------------------
  alpha Z        PSCENC =       107.13509414
  Ewald energy   TEWEN  =     39868.58831547
  -Hartree energ DENC   =    -49282.50282932
  -exchange      EXHF   =       570.57274669
  -V(xc)+E(xc)   XCENC  =       656.40558221
  PAW double counting   =     27775.80504596   -27980.66067437
  entropy T*S    EENTRO =        -0.00000000
  eigenvalues    EBANDS =     -3259.03374955
  atomic energy  EATOM  =     10943.84007970
  ---------------------------------------------------
  free energy    TOTEN  =      -599.85038907 eV

  energy without entropy =     -599.85038907  energy(sigma->0) =     -599.85038907
  exchange ACFDT corr.  =        -0.00000000  see jH, gK, PRB 81, 115126


--------------------------------------------------------------------------------------------------------




--------------------------------------- Iteration      1(  18)  ---------------------------------------


    POTLOK:  cpu time    1.3836: real time    1.3836
    SETDIJ:  cpu time    2.0871: real time    2.0872
    TRIAL :  cpu time   63.1807: real time   63.1836
    CORREC:  cpu time    0.0005: real time    0.0008
    CHARGE:  cpu time    0.1924: real time    0.1924
    --------------------------------------------
      LOOP:  cpu time   66.8468: real time   66.8501

 eigenvalue-minimisations  :     0
 total energy-change (2. order) :-0.7258278E-02  (-0.5557274E-02)
 number of electron     248.0000006 magnetization       2.0000003
 augmentation part       18.0044391 magnetization       1.4441845

 DIPCOR: dipole corrections for dipol
 direction  3 min pos     1,
 dipolmoment           0.000000     -0.000000     -0.000298 electrons x Angstroem
 Tr[quadrupol]     -6789.841418

 energy correction for charged system         0.000000 eV
 dipol+quadrupol energy correction            0.000000 eV
 added-field ion interaction          0.000000 eV  (added to PSCEN)


 Free energy of the ion-electron system (eV)
  ---------------------------------------------------
  alpha Z        PSCENC =       107.13509414
  Ewald energy   TEWEN  =     39868.58831547
  -Hartree energ DENC   =    -49282.50665331
  -exchange      EXHF   =       570.58068983
  -V(xc)+E(xc)   XCENC  =       656.40674409
  PAW double counting   =     27775.67024572   -27980.53559555
  entropy T*S    EENTRO =        -0.00000000
  eigenvalues    EBANDS =     -3259.03656744
  atomic energy  EATOM  =     10943.84007970
  ---------------------------------------------------
  free energy    TOTEN  =      -599.85764734 eV

  energy without entropy =     -599.85764734  energy(sigma->0) =     -599.85764734
  exchange ACFDT corr.  =        -0.00000000  see jH, gK, PRB 81, 115126


[...]
  augment    43.63860    45.84377    46.10272    -0.17932     0.01132     0.00387
  Kinetic  3581.07343  3623.30526  4106.65330     3.10783     0.00874    -0.00480
  Fock     -384.83992  -386.20421  -361.04793     0.95787    -0.00583    -0.00169
  -------------------------------------------------------------------------------------
  Total     -48.24903   -38.54801    -0.39678     1.44261    -0.00175     0.00098
  in kB     -24.33326   -19.44079    -0.20011     0.72755    -0.00088     0.00049
  external pressure =      -14.66 kB  Pullay stress =        0.00 kB


 VOLUME and BASIS-vectors are now :
 -----------------------------------------------------------------------------
  energy-cutoff  :      500.00
  volume of cell :     3176.87
      direct lattice vectors                 reciprocal lattice vectors
    12.770958777  0.016312434  0.000617449     0.078302961 -0.000239772  0.000042100
     0.038301656 12.508293771  0.000008304    -0.000102117  0.079947268 -0.000007771
    -0.010686797  0.001919441 19.887439889    -0.000002431 -0.000000026  0.050282992

  length of vectors
    12.770969210 12.508352413 19.887442853     0.078303339  0.079947333  0.050282992


 FORCES acting on ions:
    Electron-Ion                     Ewald-Force                    Non-Local-Force
 -----------------------------------------------------------------------------------------------
   0.480E+01 -.240E+00 0.123E+00   -.490E+01 0.143E+00 -.125E+00   -.127E+00 0.840E-01 0.204E-02
   0.655E+01 0.357E+01 0.250E+00   -.638E+01 -.379E+01 -.251E+00   -.162E+00 0.659E-01 0.108E-02
   0.914E+01 -.186E+01 0.102E+00   -.873E+01 0.213E+01 -.101E+00   -.159E+00 0.898E-02 -.114E-02
   0.333E+01 0.837E+01 0.187E-01   -.314E+01 -.839E+01 -.174E-01   -.359E+00 0.118E+00 -.850E-03
   0.102E+02 0.205E+02 -.988E-01   -.100E+02 -.208E+02 0.986E-01   -.329E+00 0.562E-02 -.527E-03
   0.219E+02 0.537E+01 0.279E+00   -.225E+02 -.554E+01 -.279E+00   0.314E+00 0.161E+00 0.110E-02
   0.159E+02 0.838E+01 0.181E+00   -.158E+02 -.836E+01 -.181E+00   0.239E-02 0.716E-01 0.399E-03
   -.105E+02 0.573E+02 -.593E+00   0.149E+02 -.606E+02 0.597E+00   -.375E+01 0.328E+01 -.391E-02
   0.258E+02 0.195E+00 0.324E+00   -.262E+02 -.211E+00 -.324E+00   -.559E-02 0.394E-01 0.207E-02
   0.631E+02 -.331E+01 0.182E+00   -.663E+02 0.344E+01 -.185E+00   0.366E+01 -.351E+00 0.531E-02
   0.187E+02 -.502E+01 0.186E+00   -.192E+02 0.495E+01 -.186E+00   0.325E+00 -.332E-01 0.229E-03
   0.659E+02 0.742E+01 0.263E+00   -.692E+02 -.766E+01 -.263E+00   0.372E+01 0.422E+00 0.800E-03
   -.159E+02 -.603E+02 0.767E-01   0.182E+02 0.637E+02 -.761E-01   -.223E+01 -.315E+01 -.105E-02
   0.669E+01 -.244E+02 0.400E-01   -.614E+01 0.249E+02 -.413E-01   -.381E+00 -.512E+00 0.218E-03
   0.340E+01 -.472E+01 0.621E-01   -.351E+01 0.482E+01 -.627E-01   -.981E-01 -.409E+00 -.618E-03
   0.155E+02 -.113E+02 0.411E-01   -.157E+02 0.116E+02 -.411E-01   0.336E-01 -.120E+00 -.101E-02
   0.203E+01 -.787E+01 0.998E-01   -.167E+01 0.820E+01 -.977E-01   -.291E+00 -.335E+00 -.250E-02
   -.525E+01 0.382E+00 0.693E+00   0.481E+01 -.587E+00 -.693E+00   0.315E+00 0.200E+00 0.205E-02
   -.167E+01 0.733E+01 0.499E-01   0.219E+01 -.686E+01 -.498E-01   -.373E+00 -.331E+00 0.930E-03
   -.651E-01 0.280E+01 0.465E+00   0.291E+00 -.279E+01 -.464E+00   0.144E-01 -.211E-01 0.119E-02
   -.600E+01 0.157E+02 0.458E+00   0.545E+01 -.162E+02 -.459E+00   0.375E+00 0.515E+00 0.351E-02
   0.677E+01 0.339E+02 -.240E+00   -.935E+01 -.368E+02 0.237E+00   0.271E+01 0.297E+01 0.166E-02
   0.229E+01 0.191E+02 -.498E+00   -.378E+01 -.175E+02 0.502E+00   0.130E+01 -.152E+01 -.573E-02
   -.304E+01 -.429E+02 -.381E+00   0.133E+00 0.463E+02 0.370E+00   0.236E+01 -.340E+01 0.100E-01
   -.147E+02 -.342E+02 -.745E-01   0.152E+02 0.337E+02 0.764E-01   -.506E+00 0.655E+00 -.207E-02
   -.108E+02 -.182E+02 0.212E+00   0.110E+02 0.187E+02 -.214E+00   0.186E-01 -.298E+00 0.188E-02
   -.482E+01 -.119E+02 0.496E+00   0.468E+01 0.121E+02 -.496E+00   0.351E+00 -.248E+00 0.105E-02
   -.432E+01 -.477E+01 0.362E+00   0.417E+01 0.487E+01 -.363E+00   -.155E-02 -.537E-01 0.210E-02
   -.332E+01 -.119E+02 0.283E+00   0.277E+01 0.116E+02 -.282E+00   0.347E+00 0.143E+00 -.606E-03
   -.472E+01 -.124E+01 0.755E+00   0.462E+01 0.151E+01 -.756E+00   0.199E+00 -.286E+00 0.281E-02
   -.493E+01 -.377E+00 0.351E+00   0.460E+01 0.355E+00 -.350E+00   0.660E-02 0.816E-02 -.976E-03
   -.137E+02 0.447E+01 0.473E+00   0.138E+02 -.472E+01 -.472E+00   -.712E-01 0.183E+00 0.819E-03
   -.622E+00 0.828E+00 0.582E+00   0.951E+00 -.978E+00 -.584E+00   -.234E-01 0.362E+00 0.250E-02
   0.550E+01 -.161E+01 0.345E+00   -.542E+01 0.178E+01 -.345E+00   0.651E-02 -.173E-01 0.899E-03
   -.137E+01 -.258E+00 0.311E+00   0.143E+01 0.382E+00 -.310E+00   -.238E+00 -.302E+00 0.270E-03
   -.417E+02 -.792E+01 -.272E+00   0.446E+02 0.817E+01 0.267E+00   -.349E+01 -.329E+00 0.428E-02
   -.121E+02 -.130E+01 0.190E+00   0.127E+02 0.129E+01 -.190E+00   -.284E+00 -.974E-02 0.221E-03
   0.784E+01 0.170E+00 0.290E+00   -.761E+01 0.229E+00 -.289E+00   0.136E+00 -.134E+00 0.391E-03
   0.355E+01 -.107E+01 0.144E+00   -.378E+01 0.965E+00 -.143E+00   -.357E-01 -.811E-01 0.103E-02
   -.500E+02 0.110E+02 -.364E+00   0.533E+02 -.112E+02 0.355E+00   -.386E+01 0.299E+00 0.978E-02
   -.148E+02 0.913E+01 -.277E+00   0.152E+02 -.910E+01 0.277E+00   -.304E-01 -.649E-01 -.155E-02
   0.358E+01 0.495E+01 0.282E+00   -.323E+01 -.495E+01 -.280E+00   -.379E-01 0.112E+00 -.319E-03
   -.431E+01 0.259E+01 0.322E+00   0.409E+01 -.294E+01 -.323E+00   -.194E+00 0.200E+00 0.261E-02
   -.154E+02 -.563E+01 0.236E+00   0.154E+02 0.557E+01 -.234E+00   -.229E+00 -.120E+00 -.133E-02
   -.155E+02 -.232E+01 0.129E+00   0.162E+02 0.266E+01 -.130E+00   -.335E+00 -.207E+00 0.104E-02
   0.101E+02 0.127E+00 0.281E+00   -.101E+02 -.306E+00 -.281E+00   0.248E+00 0.244E+00 0.365E-03
   -.279E+01 -.115E+01 0.268E+00   0.271E+01 0.105E+01 -.268E+00   -.124E-01 0.231E-01 -.138E-02
   -.770E+01 -.253E+01 0.616E+00   0.736E+01 0.229E+01 -.614E+00   0.181E+00 -.545E-01 -.112E-02
   -.338E+01 -.511E+01 0.435E+00   0.321E+01 0.533E+01 -.437E+00   0.155E+00 -.239E-02 0.150E-02
   0.730E+01 -.352E+01 0.205E+00   -.699E+01 0.360E+01 -.206E+00   -.485E-01 -.872E-01 -.575E-04
   -.193E+02 -.946E+00 -.116E+01   0.233E+02 0.805E+01 0.117E+01   -.467E+01 -.716E+01 -.207E-01
   -.251E+02 -.121E+02 -.621E+00   0.239E+02 0.958E+01 0.632E+00   0.157E+01 0.263E+01 -.120E-01
   0.584E+02 0.243E+02 -.508E+00   -.487E+02 -.932E+01 0.535E+00   -.968E+01 -.140E+02 -.267E-01
   0.522E+02 -.145E+02 0.412E+00   -.419E+02 -.321E+01 -.412E+00   -.101E+02 0.165E+02 0.110E-02
   -.164E+02 -.224E+02 -.870E+00   0.647E+01 0.379E+02 0.917E+00   0.998E+01 -.149E+02 -.466E-01
   -.312E+02 0.271E+02 -.175E+01   0.225E+02 -.428E+02 0.185E+01   0.907E+01 0.150E+02 -.950E-01
   -.528E+02 0.229E+02 -.903E+00   0.510E+02 -.212E+02 0.909E+00   0.100E+01 -.151E+01 -.465E-02
   -.715E+01 0.293E+02 -.310E+01   0.903E+01 -.353E+02 0.309E+01   -.189E+01 0.565E+01 0.144E-01
 -----------------------------------------------------------------------------------------------
   0.547E+01 -.375E-01 0.165E+00   -.568E-13 0.995E-13 0.000E+00   -.555E+01 -.154E+00 -.151E+00
 
 
 POSITION                                       TOTAL-FORCE (eV/Angst)
 -----------------------------------------------------------------------------------
      2.86515     12.49385      9.94411        -0.242464     -0.007904      0.000033
      0.69498      1.24399      9.94335         0.000668     -0.152962      0.000641
      1.44286     12.50465      9.94372         0.246708      0.277122     -0.000476
      3.54430      1.21347      9.94497        -0.186099      0.107356      0.000348
      2.83751      2.44416      9.94565        -0.168624     -0.236052     -0.000735
      0.71510      3.73756      9.94391        -0.347947      0.007600      0.001270
      1.41055      2.47822      9.94417         0.140593      0.087109      0.000889
      3.56761      3.66167      9.94776         0.499831      0.173338     -0.000336
      0.80197      6.23777      9.94379        -0.457868      0.023906      0.001703
      1.49163      4.95539      9.94477         0.685385     -0.252119      0.002873
      0.74538      8.76271      9.94354        -0.227617     -0.097054     -0.000106
      1.49297      7.52914      9.94389         0.624920      0.217261      0.000971
      3.54760      8.80171      9.94477        -0.020336     -0.011666     -0.000523
      2.86363     10.03323      9.94428         0.153691     -0.039552     -0.001031
      0.73750     11.26017      9.94355        -0.217606     -0.330413     -0.001308
      1.44070     10.01541      9.94390        -0.099774      0.189470     -0.001108
      3.57649     11.26348      9.94403         0.049652     -0.019614     -0.000612
      7.12850     12.49844      9.94237        -0.105476      0.000779      0.002137
      4.96467      1.21385      9.94514         0.130839      0.120256      0.001099
      5.70905     12.48552      9.94326         0.244033     -0.012788      0.001634
      7.80137      1.23313      9.94364        -0.149453      0.016793      0.002213
      7.10174      2.45525      9.94677         0.280339      0.188442     -0.001045
      5.66389      2.46201      9.94760        -0.122461      0.047734     -0.001455
      7.15112      7.58138      9.94775        -0.429376     -0.201202     -0.000151
      5.00297      8.74557      9.94560        -0.054740      0.190738     -0.000290
      7.85480      8.81270      9.94474         0.186847      0.132239      0.000509
      7.12742     10.02996      9.94314         0.230208     -0.030296      0.001241
      4.99644     11.24796      9.94342        -0.155187      0.050595      0.000831
      5.70179     10.00326      9.94388        -0.184959     -0.142943      0.000930
      7.83846     11.26960      9.94188         0.110262     -0.025521      0.002418
     11.34492      0.01781      9.94287        -0.342129     -0.011916     -0.000211
      9.22086      1.25671      9.94312         0.032699     -0.058388      0.001845
      9.96544     12.52086      9.94222         0.313610      0.232421      0.001223
     12.03853      1.27250      9.94332         0.089917      0.147149      0.000790
     11.33138      2.52824      9.94378        -0.200833     -0.194545      0.001054
      9.13680      3.75921      9.94688        -0.745590     -0.106464     -0.000458
      9.89525      2.52271      9.94446         0.243234     -0.018524      0.000265
     12.05077      3.77415      9.94418         0.374799      0.258227      0.001392
     11.33586      5.02500      9.94490        -0.252419     -0.196916      0.001567
      9.20805      6.30661      9.94759        -0.825488      0.121894      0.001058
      9.87337      5.02711      9.94676         0.401623     -0.026113     -0.001106
     12.11036      6.25454      9.94426         0.301488      0.116624      0.001897
     11.39702      7.50780      9.94402        -0.431695     -0.142628      0.001825
      9.27529      8.78818      9.94415        -0.233821     -0.183993      0.000748
      9.96777      7.52589      9.94508         0.410644      0.127028     -0.000206
     12.09526      8.76725      9.94366         0.252905      0.079020      0.000389
     11.39572     10.02264      9.94326        -0.097269     -0.072758     -0.000501
      9.26099     11.27129      9.94199        -0.160369     -0.300317      0.000880
      9.97403     10.02866      9.94283        -0.000796      0.218035      0.000275
     12.09099     11.27406      9.94341         0.269445     -0.017253     -0.000906
      5.00107      3.71464      9.94982        -0.932541     -0.436865     -0.005143
      5.73676      7.50499      9.94794         0.521767      0.226177     -0.001961
      2.86343      4.85397      9.94697        -0.792045     -0.216570     -0.001425
      2.85651      7.62289      9.94452        -0.607573      0.184694      0.000883
      7.73692      3.68720      9.94862         0.957021     -0.591717     -0.004259
      7.83736      6.38196      9.95051         1.148379      0.588370     -0.008060
      4.22045      6.20791      9.94739        -0.369780      0.216611      0.000840
      6.45030      5.13458      9.95187         0.260830     -0.211935     -0.005256
 -----------------------------------------------------------------------------------
    total drift:                                0.002467      0.000440      0.000079


--------------------------------------------------------------------------------------------------------



  FREE ENERGIE OF THE ION-ELECTRON SYSTEM (eV)
  ---------------------------------------------------
  free  energy   TOTEN  =      -599.87766813 eV

  energy  without entropy=     -599.87766813  energy(sigma->0) =     -599.87766813
 


--------------------------------------------------------------------------------------------------------


    POTLOK:  cpu time    3.4515: real time    3.4516


--------------------------------------------------------------------------------------------------------


 stress matrix after NEB project (eV)
    -48.24903      1.44171      0.00098
      1.44261    -38.54801     -0.00153
      0.00098     -0.00175     -0.39678
  FORCES: max atom, RMS     1.290356    0.449994
  FORCE total and by dimension    3.427049    1.148379
  Stress total and by dimension   61.791869   48.249028
 writing wavefunctions
     LOOP+:  cpu time 3110.4588: real time 3110.9427
    4ORBIT:  cpu time    0.0000: real time    0.0000
 


 total charge     
 
# of ion       s       p       d       tot
------------------------------------------
    1        0.869   1.781   0.000   2.650
    2        0.865   1.765   0.000   2.631
    3        0.863   1.774   0.000   2.637
    4        0.871   1.785   0.000   2.655
    5        0.872   1.784   0.000   2.656
    6        0.859   1.756   0.000   2.616
    7        0.865   1.764   0.000   2.628
    8        0.866   1.728   0.000   2.594
    9        0.844   1.726   0.000   2.570
   10        0.854   1.698   0.000   2.552
   11        0.865   1.770   0.000   2.635
   12        0.853   1.706   0.000   2.560
   13        0.862   1.754   0.000   2.616
   14        0.873   1.792   0.000   2.665
   15        0.867   1.776   0.000   2.643
   16        0.868   1.763   0.000   2.630
   17        0.866   1.794   0.000   2.661
   18        0.864   1.793   0.000   2.657
   19        0.870   1.773   0.000   2.643
   20        0.869   1.776   0.000   2.645
   21        0.871   1.789   0.000   2.660
   22        0.867   1.746   0.000   2.613
   23        0.871   1.764   0.000   2.635
   24        0.869   1.737   0.000   2.606
   25        0.858   1.733   0.000   2.591
   26        0.873   1.792   0.000   2.665
   27        0.869   1.775   0.000   2.644
   28        0.867   1.773   0.000   2.640
   29        0.866   1.759   0.000   2.625
   30        0.869   1.777   0.000   2.645
   31        0.865   1.769   0.000   2.634
   32        0.869   1.760   0.000   2.628
   33        0.866   1.774   0.000   2.640
   34        0.865   1.752   0.000   2.617
   35        0.860   1.750   0.000   2.610
   36        0.845   1.684   0.000   2.529
   37        0.860   1.751   0.000   2.611
   38        0.859   1.750   0.000   2.610
   39        0.853   1.719   0.000   2.572
   40        0.858   1.719   0.000   2.577
   41        0.847   1.731   0.000   2.578
   42        0.853   1.717   0.000   2.570
   43        0.860   1.752   0.000   2.612
   44        0.864   1.775   0.000   2.639
   45        0.861   1.763   0.000   2.624
   46        0.863   1.762   0.000   2.625
   47        0.867   1.760   0.000   2.627
   48        0.864   1.770   0.000   2.634
   49        0.868   1.773   0.000   2.640
   50        0.866   1.767   0.000   2.633
   51        0.864   1.674   0.000   2.538
   52        0.840   1.682   0.000   2.522
   53        1.230   2.690   0.000   3.920
   54        1.233   2.701   0.000   3.934
   55        1.227   2.639   0.000   3.866
   56        1.232   2.704   0.000   3.936
   57        0.570   0.554   9.860  10.983
   58        0.424   0.530   6.277   7.231
--------------------------------------------------
tot         50.792 103.076  16.137 170.005
 


 magnetization (x)
 
# of ion       s       p       d       tot
------------------------------------------
    1       -0.000  -0.004   0.000  -0.005
    2       -0.000  -0.003   0.000  -0.004
    3        0.000   0.003   0.000   0.003
    4        0.001   0.009   0.000   0.009
    5       -0.001  -0.004   0.000  -0.005
    6       -0.000  -0.004   0.000  -0.004
    7        0.000   0.005   0.000   0.005
    8        0.000   0.003   0.000   0.003
    9       -0.000  -0.001   0.000  -0.001
   10        0.000   0.001   0.000   0.002
   11       -0.000  -0.004   0.000  -0.005
   12        0.000   0.006   0.000   0.006
   13        0.000   0.004   0.000   0.004
   14       -0.000  -0.003   0.000  -0.004
   15       -0.000  -0.003   0.000  -0.003
   16        0.000   0.003   0.000   0.004
   17        0.001   0.011   0.000   0.012
   18       -0.000  -0.004   0.000  -0.004
   19       -0.001  -0.006   0.000  -0.007
   20        0.000   0.005   0.000   0.005
   21        0.000   0.002   0.000   0.002
   22       -0.001  -0.004   0.000  -0.005
   23        0.001   0.016   0.000   0.017
   24       -0.000  -0.004   0.000  -0.004
   25       -0.001  -0.006   0.000  -0.006
   26        0.000   0.003   0.000   0.003
   27       -0.000  -0.003   0.000  -0.003
   28       -0.001  -0.004   0.000  -0.005
   29        0.000   0.004   0.000   0.004
   30        0.000   0.004   0.000   0.005
   31       -0.001  -0.007   0.000  -0.008
   32       -0.000  -0.004   0.000  -0.004
   33        0.000   0.004   0.000   0.004
   34        0.000   0.003   0.000   0.004
   35       -0.000  -0.005   0.000  -0.005
   36       -0.001  -0.011   0.000  -0.012
   37        0.000   0.005   0.000   0.005
   38        0.000   0.003   0.000   0.003
   39       -0.000  -0.004   0.000  -0.004
   40       -0.001  -0.007   0.000  -0.008
   41        0.001   0.006   0.000   0.007
   42        0.000   0.004   0.000   0.004
   43       -0.000  -0.002   0.000  -0.002
   44       -0.001  -0.007   0.000  -0.008
   45        0.000   0.004   0.000   0.004
   46        0.000   0.003   0.000   0.003
   47       -0.000  -0.005   0.000  -0.005
   48       -0.000  -0.002   0.000  -0.002
   49        0.000   0.004   0.000   0.005
   50        0.000   0.005   0.000   0.006
   51       -0.007  -0.029   0.000  -0.036
   52       -0.003  -0.008   0.000  -0.011
   53       -0.000  -0.001   0.000  -0.001
   54       -0.001  -0.005   0.000  -0.005
   55       -0.005  -0.009   0.000  -0.014
   56       -0.004  -0.013   0.000  -0.017
   57       -0.001  -0.003  -0.005  -0.008
   58        0.037   0.014   1.917   1.968
--------------------------------------------------
tot          0.015  -0.046   1.912   1.880
 

 total amount of memory used by VASP MPI-rank0   138484. kBytes
=======================================================================

   base      :      30000. kBytes
   nonl-proj :       3782. kBytes
   fftplans  :      14248. kBytes
   grid      :      36827. kBytes
   one-center:         62. kBytes
   HF        :         23. kBytes
   nonlr-proj:      15001. kBytes
   wavefun   :      38541. kBytes
 
  
  
 General timing and accounting informations for this job:
 ========================================================
  
                  Total CPU time used (sec):     3159.624
                            User time (sec):     3146.599
                          System time (sec):       13.025
                         Elapsed time (sec):     3161.787
  
                   Maximum memory used (kb):      383480.
                   Average memory used (kb):           0.
  
                          Minor page faults:       190420
                          Major page faults:            0
                 Voluntary context switches:         1072
