 vasp.5.4.4.18Apr17-6-g9f103f2a35 (build Feb 25 2019 10:51:38) complex          
  
 executed on             LinuxIFC date 2021.08.06  10:13:39
 running on   32 total cores
 distrk:  each k-point on   32 cores,    1 groups
 distr:  one band on NCORES_PER_BAND=  32 cores,    1 groups


--------------------------------------------------------------------------------------------------------


 INCAR:
 POTCAR:    PAW_PBE C 08Apr2002                   
 POTCAR:    PAW_PBE N 08Apr2002                   
 POTCAR:    PAW_PBE Fe 06Sep2000                  
 POTCAR:    PAW_PBE V 08Apr2002                   

 ----------------------------------------------------------------------------- 
|                                                                             |
|           W    W    AA    RRRRR   N    N  II  N    N   GGGG   !!!           |
|           W    W   A  A   R    R  NN   N  II  NN   N  G    G  !!!           |
|           W    W  A    A  R    R  N N  N  II  N N  N  G       !!!           |
|           W WW W  AAAAAA  RRRRR   N  N N  II  N  N N  G  GGG   !            |
|           WW  WW  A    A  R   R   N   NN  II  N   NN  G    G                |
|           W    W  A    A  R    R  N    N  II  N    N   GGGG   !!!           |
|                                                                             |
|      For optimal performance we recommend to set                            |
|        NCORE= 4 - approx SQRT( number of cores)                             |
|      NCORE specifies how many cores store one orbital (NPAR=cpu/NCORE).     |
|      This setting can  greatly improve the performance of VASP for DFT.     |
|      The default,   NCORE=1            might be grossly inefficient         |
|      on modern multi-core architectures or massively parallel machines.     |
|      Do your own testing !!!!                                               |
|      Unfortunately you need to use the default for GW and RPA calculations. |
|      (for HF NCORE is supported but not extensively tested yet)             |
|                                                                             |
 ----------------------------------------------------------------------------- 

 POTCAR:    PAW_PBE C 08Apr2002                   
   VRHFIN =C: s2p2                                                              
   LEXCH  = PE                                                                  
   EATOM  =   147.1560 eV,   10.8157 Ry                                         
                                                                                
   TITEL  = PAW_PBE C 08Apr2002                                                 
   LULTRA =        F    use ultrasoft PP ?                                      
   IUNSCR =        1    unscreen: 0-lin 1-nonlin 2-no                           
   RPACOR =    1.200    partial core radius                                     
   POMASS =   12.011; ZVAL   =    4.000    mass and valenz                      
   RCORE  =    1.500    outmost cutoff radius                                   
   RWIGS  =    1.630; RWIGS  =    0.863    wigner-seitz radius (au A)           
   ENMAX  =  400.000; ENMIN  =  300.000 eV                                      
   ICORE  =        2    local potential                                         
   LCOR   =        T    correct aug charges                                     
   LPAW   =        T    paw PP                                                  
   EAUG   =  644.873                                                            
   DEXC   =    0.000                                                            
   RMAX   =    1.529    core radius for proj-oper                               
   RAUG   =    1.300    factor for augmentation sphere                          
   RDEP   =    1.501    radius for radial grids                                 
   RDEPT  =    1.300    core radius for aug-charge                              
                                                                                
   Atomic configuration                                                         
    4 entries                                                                   
     n  l   j            E        occ.                                          
     1  0  0.50      -273.3789   2.0000                                         
     2  0  0.50       -13.7508   2.0000                                         
     2  1  0.50        -5.2854   2.0000                                         
     3  2  1.50        -5.4423   0.0000                                         
   Description                                                                  
     l       E           TYP  RCUT    TYP  RCUT                                 
     0    -13.7508458     23  1.200                                             
     0     -8.2022199     23  1.200                                             
     1     -5.2854383     23  1.500                                             
     1     34.0145650     23  1.500                                             
     2     -5.4423304      7  1.500                                             
  local pseudopotential read in
  partial core-charges read in
  partial kinetic energy density read in
  atomic valenz-charges read in
  non local Contribution for L=           0  read in
    real space projection operators read in
  non local Contribution for L=           0  read in
    real space projection operators read in
  non local Contribution for L=           1  read in
    real space projection operators read in
  non local Contribution for L=           1  read in
    real space projection operators read in
    PAW grid and wavefunctions read in
 
   number of l-projection  operators is LMAX  =           4
   number of lm-projection operators is LMMAX =           8
 
 POTCAR:    PAW_PBE N 08Apr2002                   
   VRHFIN =N: s2p3                                                              
   LEXCH  = PE                                                                  
   EATOM  =   264.5486 eV,   19.4438 Ry                                         
                                                                                
   TITEL  = PAW_PBE N 08Apr2002                                                 
   LULTRA =        F    use ultrasoft PP ?                                      
   IUNSCR =        1    unscreen: 0-lin 1-nonlin 2-no                           
   RPACOR =    1.200    partial core radius                                     
   POMASS =   14.001; ZVAL   =    5.000    mass and valenz                      
   RCORE  =    1.500    outmost cutoff radius                                   
   RWIGS  =    1.400; RWIGS  =    0.741    wigner-seitz radius (au A)           
   ENMAX  =  400.000; ENMIN  =  300.000 eV                                      
   ICORE  =        2    local potential                                         
   LCOR   =        T    correct aug charges                                     
   LPAW   =        T    paw PP                                                  
   EAUG   =  627.112                                                            
   DEXC   =    0.000                                                            
   RMAX   =    1.529    core radius for proj-oper                               
   RAUG   =    1.300    factor for augmentation sphere                          
   RDEP   =    1.514    radius for radial grids                                 
   RDEPT  =    1.338    core radius for aug-charge                              
                                                                                
   Atomic configuration                                                         
    4 entries                                                                   
     n  l   j            E        occ.                                          
     1  0  0.50      -384.7179   2.0000                                         
     2  0  0.50       -18.5828   2.0000                                         
     2  1  0.50        -7.0898   3.0000                                         
     3  2  1.50        -6.8029   0.0000                                         
   Description                                                                  
     l       E           TYP  RCUT    TYP  RCUT                                 
     0    -18.5828119     23  1.200                                             
     0    -13.5018863     23  1.200                                             
     1     -7.0897853     23  1.500                                             
     1      9.5240782     23  1.500                                             
     2     -6.8029130      7  1.500                                             
  local pseudopotential read in
  partial core-charges read in
  partial kinetic energy density read in
  atomic valenz-charges read in
  non local Contribution for L=           0  read in
    real space projection operators read in
  non local Contribution for L=           0  read in
    real space projection operators read in
  non local Contribution for L=           1  read in
    real space projection operators read in
  non local Contribution for L=           1  read in
    real space projection operators read in
    PAW grid and wavefunctions read in
 
   number of l-projection  operators is LMAX  =           4
   number of lm-projection operators is LMMAX =           8
 
 POTCAR:    PAW_PBE Fe 06Sep2000                  
   VRHFIN =Fe:  d7 s1                                                           
   LEXCH  = PE                                                                  
   EATOM  =   594.3153 eV,   43.6809 Ry                                         
                                                                                
   TITEL  = PAW_PBE Fe 06Sep2000                                                
   LULTRA =        F    use ultrasoft PP ?                                      
   IUNSCR =        1    unscreen: 0-lin 1-nonlin 2-no                           
   RPACOR =    2.000    partial core radius                                     
   POMASS =   55.847; ZVAL   =    8.000    mass and valenz                      
   RCORE  =    2.300    outmost cutoff radius                                   
   RWIGS  =    2.460; RWIGS  =    1.302    wigner-seitz radius (au A)           
   ENMAX  =  267.882; ENMIN  =  200.911 eV                                      
   RCLOC  =    1.701    cutoff for local pot                                    
   LCOR   =        T    correct aug charges                                     
   LPAW   =        T    paw PP                                                  
   EAUG   =  511.368                                                            
   DEXC   =    0.000                                                            
   RMAX   =    2.356    core radius for proj-oper                               
   RAUG   =    1.300    factor for augmentation sphere                          
   RDEP   =    2.442    radius for radial grids                                 
   RDEPT  =    1.890    core radius for aug-charge                              
                                                                                
   Atomic configuration                                                         
    9 entries                                                                   
     n  l   j            E        occ.                                          
     1  0  0.50     -6993.8440   2.0000                                         
     2  0  0.50      -814.6047   2.0000                                         
     2  1  1.50      -693.3689   6.0000                                         
     3  0  0.50       -89.4732   2.0000                                         
     3  1  1.50       -55.6373   6.0000                                         
     3  2  2.50        -3.8151   7.0000                                         
     4  0  0.50        -4.2551   1.0000                                         
     4  1  1.50        -3.4015   0.0000                                         
     4  3  2.50        -1.3606   0.0000                                         
   Description                                                                  
     l       E           TYP  RCUT    TYP  RCUT                                 
     2     -3.8151135     23  2.300                                             
     2     -5.1756961     23  2.300                                             
     0     -4.2550963     23  2.300                                             
     0      7.2035603     23  2.300                                             
     1     -2.7211652     23  2.300                                             
     1     18.4316424     23  2.300                                             
  local pseudopotential read in
  partial core-charges read in
  partial kinetic energy density read in
  atomic valenz-charges read in
  non local Contribution for L=           2  read in
    real space projection operators read in
  non local Contribution for L=           2  read in
    real space projection operators read in
  non local Contribution for L=           0  read in
    real space projection operators read in
  non local Contribution for L=           0  read in
    real space projection operators read in
  non local Contribution for L=           1  read in
    real space projection operators read in
  non local Contribution for L=           1  read in
    real space projection operators read in
    PAW grid and wavefunctions read in
 
   number of l-projection  operators is LMAX  =           6
   number of lm-projection operators is LMMAX =          18
 
 POTCAR:    PAW_PBE V 08Apr2002                   
   VRHFIN =V: p6 d4 s1                                                          
   LEXCH  = PE                                                                  
   EATOM  =   170.8679 eV,   12.5584 Ry                                         
                                                                                
   TITEL  = PAW_PBE V 08Apr2002                                                 
   LULTRA =        F    use ultrasoft PP ?                                      
   IUNSCR =        1    unscreen: 0-lin 1-nonlin 2-no                           
   RPACOR =    2.000    partial core radius                                     
   POMASS =   50.941; ZVAL   =    5.000    mass and valenz                      
   RCORE  =    2.700    outmost cutoff radius                                   
   RWIGS  =    2.500; RWIGS  =    1.323    wigner-seitz radius (au A)           
   ENMAX  =  192.543; ENMIN  =  144.408 eV                                      
   RCLOC  =    1.779    cutoff for local pot                                    
   LCOR   =        T    correct aug charges                                     
   LPAW   =        T    paw PP                                                  
   EAUG   =  358.662                                                            
   DEXC   =    0.000                                                            
   RMAX   =    2.768    core radius for proj-oper                               
   RAUG   =    1.300    factor for augmentation sphere                          
   RDEP   =    2.762    radius for radial grids                                 
   RDEPT  =    2.240    core radius for aug-charge                              
                                                                                
   Atomic configuration                                                         
    9 entries                                                                   
     n  l   j            E        occ.                                          
     1  0  0.50     -5360.7193   2.0000                                         
     2  0  0.50      -598.4546   2.0000                                         
     2  1  1.50      -499.0155   6.0000                                         
     3  0  0.50       -66.5711   2.0000                                         
     3  1  1.50       -40.5282   6.0000                                         
     3  2  2.50        -2.4291   4.0000                                         
     4  0  0.50        -3.8743   1.0000                                         
     4  1  0.50        -2.7212   0.0000                                         
     4  3  2.50        -1.3606   0.0000                                         
   Description                                                                  
     l       E           TYP  RCUT    TYP  RCUT                                 
     2     -2.4290901     23  2.700                                             
     2     -3.7896727     23  2.700                                             
     0     -3.8742752     23  2.700                                             
     0     27.2116520     23  2.700                                             
     1     -2.7211652     23  2.700                                             
     1     27.2116520     23  2.700                                             
  local pseudopotential read in
  partial core-charges read in
  partial kinetic energy density read in
  atomic valenz-charges read in
  non local Contribution for L=           2  read in
    real space projection operators read in
  non local Contribution for L=           2  read in
    real space projection operators read in
  non local Contribution for L=           0  read in
    real space projection operators read in
  non local Contribution for L=           0  read in
    real space projection operators read in
  non local Contribution for L=           1  read in
    real space projection operators read in
  non local Contribution for L=           1  read in
    real space projection operators read in
    PAW grid and wavefunctions read in
 
   number of l-projection  operators is LMAX  =           6
   number of lm-projection operators is LMMAX =          18
 

 ----------------------------------------------------------------------------- 
|                                                                             |
|  ADVICE TO THIS USER RUNNING 'VASP/VAMP'   (HEAR YOUR MASTER'S VOICE ...):  |
|                                                                             |
|      You have a (more or less) 'large supercell' and for larger cells       |
|      it might be more efficient to use real space projection opertators     |
|      So try LREAL= Auto  in the INCAR   file.                               |
|      Mind:          For very  accurate calculation you might also keep the  |
|      reciprocal projection scheme          (i.e. LREAL=.FALSE.)             |
|                                                                             |
 ----------------------------------------------------------------------------- 

  PAW_PBE C 08Apr2002                   :
 energy of atom  1       EATOM= -147.1560
 kinetic energy error for atom=    0.0076 (will be added to EATOM!!)
  PAW_PBE N 08Apr2002                   :
 energy of atom  2       EATOM= -264.5486
 kinetic energy error for atom=    0.0138 (will be added to EATOM!!)
  PAW_PBE Fe 06Sep2000                  :
 energy of atom  3       EATOM= -594.3153
 kinetic energy error for atom=    0.0026 (will be added to EATOM!!)
  PAW_PBE V 08Apr2002                   :
 energy of atom  4       EATOM= -170.8679
 kinetic energy error for atom=    0.0003 (will be added to EATOM!!)
 
 
 POSCAR:  C  N Fe  V                             
  positions in cartesian coordinates
  No initial velocities read in
 exchange correlation table for  LEXCH =        8
   RHO(1)=    0.500       N(1)  =     2000
   RHO(2)=  100.500       N(2)  =     4000

 VTST: version 3.2, (02/03/18)

 CHAIN: initializing optimizer
 
 OPT: Using VASP Conjugate-Gradient optimizer
 CHAIN: Read ICHAIN            0
 
 POSCAR:  C  N Fe  V                             
  positions in cartesian coordinates
  No initial velocities read in
 


--------------------------------------------------------------------------------------------------------


 ion  position               nearest neighbor table
   1  0.220  1.000  0.500-   3 1.42  20 1.43   4 1.43
   2  0.055  0.100  0.500-  34 1.42   7 1.44   3 1.44
   3  0.110  1.000  0.500-   1 1.42  18 1.44   2 1.44
   4  0.276  0.099  0.500-  22 1.42   5 1.43   1 1.43
   5  0.223  0.200  0.500-   7 1.43   4 1.43   8 1.45
   6  0.055  0.300  0.500-  38 1.43   7 1.44  11 1.45
   7  0.111  0.200  0.500-   5 1.43   2 1.44   6 1.44
   8  0.282  0.299  0.500-  51 1.42   5 1.45   9 1.46
   9  0.223  0.399  0.500-  11 1.42  12 1.45   8 1.46
  10  0.056  0.501  0.500-  42 1.44  15 1.45  11 1.45
  11  0.112  0.400  0.500-   9 1.42  10 1.45   6 1.45
  12  0.280  0.500  0.500-  53 1.34   9 1.45  13 1.45
  13  0.225  0.601  0.500-  15 1.44  12 1.45  16 1.46
  14  0.055  0.700  0.500-  46 1.43  19 1.44  15 1.44
  15  0.113  0.601  0.500-  13 1.44  14 1.44  10 1.45
  16  0.282  0.702  0.500-  55 1.38  17 1.44  13 1.46
  17  0.223  0.800  0.500-  20 1.43  19 1.43  16 1.44
  18  0.055  0.899  0.500-  50 1.42   3 1.44  19 1.44
  19  0.111  0.800  0.500-  17 1.43  18 1.44  14 1.44
  20  0.276  0.901  0.500-  28 1.43  17 1.43   1 1.43
  21  0.555  0.999  0.500-  23 1.41  30 1.42  24 1.42
  22  0.387  0.097  0.500-  26 1.41   4 1.42  23 1.42
  23  0.444  0.999  0.500-  21 1.41  28 1.42  22 1.42
  24  0.611  0.097  0.500-  25 1.41  32 1.42  21 1.42
  25  0.555  0.194  0.500-  24 1.41  52 1.42  26 1.44
  26  0.443  0.194  0.500-  22 1.41  51 1.42  25 1.44
  27  0.556  0.803  0.500-  56 1.39  30 1.41  29 1.44
  28  0.388  0.901  0.500-  29 1.41  23 1.42  20 1.43
  29  0.443  0.803  0.500-  55 1.39  28 1.41  27 1.44
  30  0.610  0.901  0.500-  27 1.41  21 1.42  48 1.43
  31  0.889  1.000  0.500-  33 1.42  50 1.44  34 1.44
  32  0.722  0.099  0.500-  24 1.42  37 1.43  33 1.43
  33  0.778  1.000  0.500-  31 1.42  48 1.43  32 1.43
  34  0.944  0.100  0.500-   2 1.42  35 1.44  31 1.44
  35  0.888  0.200  0.500-  37 1.43  34 1.44  38 1.44
  36  0.717  0.299  0.500-  52 1.42  37 1.45  41 1.46
  37  0.776  0.200  0.500-  35 1.43  32 1.43  36 1.45
  38  0.943  0.300  0.500-   6 1.43  35 1.44  39 1.45
  39  0.887  0.400  0.500-  41 1.42  42 1.45  38 1.45
  40  0.719  0.500  0.500-  54 1.34  41 1.45  45 1.45
  41  0.775  0.399  0.500-  39 1.42  40 1.45  36 1.46
  42  0.943  0.501  0.500-  10 1.44  43 1.45  39 1.45
  43  0.886  0.601  0.500-  45 1.44  46 1.44  42 1.45
  44  0.716  0.702  0.500-  56 1.38  49 1.44  45 1.46
  45  0.773  0.601  0.500-  43 1.44  40 1.45  44 1.46
  46  0.943  0.700  0.500-  14 1.43  47 1.44  43 1.44
  47  0.888  0.800  0.500-  49 1.43  50 1.44  46 1.44
  48  0.722  0.901  0.500-  30 1.43  49 1.43  33 1.43
  49  0.776  0.800  0.500-  48 1.43  47 1.43  44 1.44
  50  0.943  0.899  0.500-  18 1.42  31 1.44  47 1.44
  51  0.393  0.295  0.500-  26 1.42   8 1.42  57 1.95
  52  0.606  0.295  0.500-  25 1.42  36 1.42  57 1.95
  53  0.384  0.500  0.500-  12 1.34  58 1.83  57 1.88
  54  0.614  0.500  0.499-  40 1.34  58 1.83  57 1.88
  55  0.390  0.707  0.500-  16 1.38  29 1.39  58 2.04
  56  0.608  0.707  0.500-  44 1.38  27 1.39  58 2.04
  57  0.499  0.407  0.500-  54 1.88  53 1.88  51 1.95  52 1.95  58 2.27
  58  0.499  0.588  0.499-  53 1.83  54 1.83  56 2.04  55 2.04  57 2.27
 
  LATTYP: Found a triclinic cell.
 ALAT       =    12.5243605523
 B/A-ratio  =     1.4279905293
 C/A-ratio  =     1.5863161192
 COS(alpha) =     0.0000174928
 COS(beta)  =     0.0002156274
 COS(gamma) =     0.7002812997
  
  Lattice vectors:
  
 A1 = (  -0.0005766431,  12.5243605386,  -0.0001049776)
 A2 = (  12.7666979136,  12.5248865440,  -0.0001016447)
 A3 = (  -0.0037106312,   0.0041172987, -19.8675942539)


Analysis of symmetry for initial positions (statically):
=====================================================================
 Subroutine PRICEL returns:
 Original cell was already a primitive cell.
 

 Routine SETGRP: Setting up the symmetry group for a 
 triclinic supercell.


 Subroutine GETGRP returns: Found  1 space group operations
 (whereof  1 operations were pure point group operations)
 out of a pool of  2 trial point group operations.


The static configuration has the point symmetry C_1 .


Analysis of symmetry for dynamics (positions and initial velocities):
=====================================================================
 Subroutine PRICEL returns:
 Original cell was already a primitive cell.
 

 Routine SETGRP: Setting up the symmetry group for a 
 triclinic supercell.


 Subroutine GETGRP returns: Found  1 space group operations
 (whereof  1 operations were pure point group operations)
 out of a pool of  2 trial point group operations.


The dynamic configuration has the point symmetry C_1 .


Analysis of structural, dynamic, and magnetic symmetry:
=====================================================================
 Subroutine PRICEL returns:
 Original cell was already a primitive cell.
 

 Routine SETGRP: Setting up the symmetry group for a 
 triclinic supercell.


 Subroutine GETGRP returns: Found  1 space group operations
 (whereof  1 operations were pure point group operations)
 out of a pool of  2 trial point group operations.


The magnetic configuration has the point symmetry C_1 .


 Subroutine INISYM returns: Found  1 space group operations
 (whereof  1 operations are pure point group operations),
 and found     1 'primitive' translations

 
 
 KPOINTS: KPOINTS created by Atomic Simulation Env

Automatic generation of k-mesh.
Space group operators:
 irot       det(A)        alpha          n_x          n_y          n_z        tau_x        tau_y        tau_z
    1     1.000000     0.000000     1.000000     0.000000     0.000000     0.000000     0.000000     0.000000
 
 Subroutine IBZKPT returns following result:
 ===========================================
 
 Found      2 irreducible k-points:
 
 Following reciprocal coordinates:
            Coordinates               Weight
  0.250000  0.250000  0.000000      2.000000
 -0.250000  0.250000  0.000000      2.000000
 
 Following cartesian coordinates:
            Coordinates               Weight
  0.019580  0.019962  0.000000      2.000000
 -0.019582  0.019960  0.000008      2.000000
 
 
 Subroutine IBZKPT_HF returns following result:
 ==============================================
 
 Found      4 k-points in 1st BZ
 the following      4 k-points will be used (e.g. in the exchange kernel)
 Following reciprocal coordinates:   # in IRBZ
  0.250000  0.250000  0.000000    0.25000000   1 t-inv F
 -0.250000  0.250000  0.000000    0.25000000   2 t-inv F
 -0.250000 -0.250000 -0.000000    0.25000000   1 t-inv T
  0.250000 -0.250000 -0.000000    0.25000000   2 t-inv T


--------------------------------------------------------------------------------------------------------




 Dimension of arrays:
   k-points           NKPTS =      2   k-points in BZ     NKDIM =      4   number of bands    NBANDS=    154
   number of dos      NEDOS =    301   number of ions     NIONS =     58
   non local maximal  LDIM  =      6   non local SUM 2l+1 LMDIM =     18
   total plane-waves  NPLWV = ******
   max r-space proj   IRMAX =      1   max aug-charges    IRDMAX=  26586
   dimension x,y,z NGX =    96 NGY =   96 NGZ =  150
   dimension x,y,z NGXF=   192 NGYF=  192 NGZF=  300
   support grid    NGXF=   192 NGYF=  192 NGZF=  300
   ions per type =              52   4   1   1
   NGX,Y,Z   is equivalent  to a cutoff of  12.50, 12.74, 12.55 a.u.
   NGXF,Y,Z  is equivalent  to a cutoff of  25.00, 25.49, 25.10 a.u.

 SYSTEM =  unknown system                          
 POSCAR =   C  N Fe  V                             

 Startparameter for this run:
   NWRITE =      2    write-flag & timer
   PREC   = accura    normal or accurate (medium, high low for compatibility)
   ISTART =      1    job   : 0-new  1-cont  2-samecut
   ICHARG =      0    charge: 1-file 2-atom 10-const
   ISPIN  =      2    spin polarized calculation?
   LNONCOLLINEAR =      F non collinear calculations
   LSORBIT =      F    spin-orbit coupling
   INIWAV =      1    electr: 0-lowe 1-rand  2-diag
   LASPH  =      T    aspherical Exc in radial PAW
   METAGGA=      F    non-selfconsistent MetaGGA calc.

 Electronic Relaxation 1
   ENCUT  =  500.0 eV  36.75 Ry    6.06 a.u.  23.28 22.83 36.22*2*pi/ulx,y,z
   ENINI  =  500.0     initial cutoff
   ENAUG  =  644.9 eV  augmentation charge cutoff
   NELM   =    250;   NELMIN=  2; NELMDL=  0     # of ELM steps 
   EDIFF  = 0.1E-03   stopping-criterion for ELM
   LREAL  =      F    real-space projection
   NLSPLINE    = F    spline interpolate recip. space projectors
   LCOMPAT=      F    compatible to vasp.4.4
   GGA_COMPAT  = T    GGA compatible to vasp.4.4-vasp.4.6
   LMAXPAW     = -100 max onsite density
   LMAXMIX     =    2 max onsite mixed and CHGCAR
   VOSKOWN=      0    Vosko Wilk Nusair interpolation
   ROPT   =    0.00000   0.00000   0.00000   0.00000
 Ionic relaxation
   EDIFFG = -.3E-01   stopping-criterion for IOM
   NSW    =      0    number of steps for IOM
   NBLOCK =      1;   KBLOCK =      1    inner block; outer block 
   IBRION =     -1    ionic relax: 0-MD 1-quasi-New 2-CG
   NFREE  =      1    steps in history (QN), initial steepest desc. (CG)
   ISIF   =      2    stress and relaxation
   IWAVPR =     10    prediction:  0-non 1-charg 2-wave 3-comb
   ISYM   =      3    0-nonsym 1-usesym 2-fastsym
   LCORR  =      T    Harris-Foulkes like correction to forces

   POTIM  = 0.5000    time-step for ionic-motion
   TEIN   =    0.0    initial temperature
   TEBEG  =    0.0;   TEEND  =   0.0 temperature during run
   SMASS  =  -3.00    Nose mass-parameter (am)
   estimated Nose-frequenzy (Omega)   =  0.10E-29 period in steps =****** mass=  -0.373E-26a.u.
   SCALEE = 1.0000    scale energy and forces
   NPACO  =    256;   APACO  = 16.0  distance and # of slots for P.C.
   PSTRESS=    0.0 pullay stress

  Mass of Ions in am
   POMASS =  12.01 14.00 55.85 50.94
  Ionic Valenz
   ZVAL   =   4.00  5.00  8.00  5.00
  Atomic Wigner-Seitz radii
   RWIGS  =  -1.00 -1.00 -1.00 -1.00
  virtual crystal weights 
   VCA    =   1.00  1.00  1.00  1.00
   NELECT =     241.0000    total number of electrons
   NUPDOWN=      -1.0000    fix difference up-down

 DOS related values:
   EMIN   =  10.00;   EMAX   =-10.00  energy-range for DOS
   EFERMI =   0.00
   ISMEAR =     0;   SIGMA  =   0.10  broadening in eV -4-tet -1-fermi 0-gaus

 Electronic relaxation 2 (details)
   IALGO  =     53    algorithm
   LDIAG  =      T    sub-space diagonalisation (order eigenvalues)
   LSUBROT=      F    optimize rotation matrix (better conditioning)
   TURBO    =      0    0=normal 1=particle mesh
   IRESTART =      0    0=no restart 2=restart with 2 vectors
   NREBOOT  =      0    no. of reboots
   NMIN     =      0    reboot dimension
   EREF     =   0.00    reference energy to select bands
   IMIX   =      4    mixing-type and parameters
     AMIX     =   0.40;   BMIX     =  1.00
     AMIX_MAG =   1.60;   BMIX_MAG =  1.00
     AMIN     =   0.10
     WC   =   100.;   INIMIX=   1;  MIXPRE=   1;  MAXMIX= -45

 Intra band minimization:
   WEIMIN = 0.0000     energy-eigenvalue tresh-hold
   EBREAK =  0.16E-06  absolut break condition
   DEPER  =   0.30     relativ break condition  

   TIME   =   0.20     timestep for ELM

  volume/ion in A,a.u.               =      54.77       369.63
  Fermi-wavevector in a.u.,A,eV,Ry     =   0.693023  1.309623  6.534614  0.480281
  Thomas-Fermi vector in A             =   1.775120
 
 Write flags
   LWAVE        =      T    write WAVECAR
   LDOWNSAMPLE  =      F    k-point downsampling of WAVECAR
   LCHARG       =      T    write CHGCAR
   LVTOT        =      F    write LOCPOT, total local potential
   LVHAR        =      F    write LOCPOT, Hartree potential only
   LELF         =      F    write electronic localiz. function (ELF)
   LORBIT       =     11    0 simple, 1 ext, 2 COOP (PROOUT), +10 PAW based schemes


 Dipole corrections
   LMONO  =      F    monopole corrections only (constant potential shift)
   LDIPOL =      T    correct potential (dipole corrections)
   IDIPOL =      3    1-x, 2-y, 3-z, 4-all directions 
   EPSILON=  1.0000000 bulk dielectric constant

 Exchange correlation treatment:
   GGA     =    PE    GGA type
   LEXCH   =     8    internal setting for exchange type
   VOSKOWN=      0    Vosko Wilk Nusair interpolation
   EXXOEP  =     0    0=HF, 1=EXX-LHF (local Hartree Fock) 2=EXX OEP
   LHFCALC =     T    Hartree Fock is set to
   LSYMGRAD=     F    symmetrize gradient (conserves proper symmetry)
   PRECFOCK=normal    Normal, Fast or Accurate (Low or Medium for compatibility)
   LRHFCALC=     F    long range Hartree Fock
   LRSCOR  =     F    long range correlation only (use DFT for short range part)
   LTHOMAS =     F    Thomas Fermi screening in HF
   LMODELHF=     F    short range full HF, long range fraction AEXX
   ENCUT4O =  -1.0   cutoff for four orbital integrals eV
   LMAXFOCK=     4    L truncation for augmentation on plane wave grid
   LMAXFOCKAE=  -1    L truncation for all-electron charge restoration on plane wave grid
   NMAXFOCKAE=   1    number of basis functions for all-electron charge restoration
   LFOCKAEDFT=     F  apply the AE augmentation even for DFT
   NKREDX  =     1    reduce k-point grid by
   NKREDY  =     1    reduce k-point grid by
   NKREDZ  =     1    reduce k-point grid by
   SHIFTRED=     F    shift reduced grid of Gamma
   HFKIDENT=     F    idential grid for each k-point
   ODDONLY =     F    use only odd q-grid points
   EVENONLY=     F    use only even q-grid points
   HFALPHA =   -1.0000 decay constant for conv. correction
   MCALPHA =    0.0000 extent of test-charge in conv. correction in multipole expansion
   AEXX    =    0.2500 exact exchange contribution
   HFSCREEN=    0.2000 screening length (either q_TF or 0.3 A-1)
   HFSCREENC=   0.2000 screening length for correlation (either q_TF or 0.3 A-1)
   HFRCUT  =    0.0000 spherical cutoff for potential kernel
   ALDAX   =    0.7500 LDA exchange part
   AGGAX   =    0.7500 GGA exchange part
   ALDAC   =    1.0000 LDA correlation
   AGGAC   =    1.0000 GGA correlation
   ENCUTFOCK=  -1.0 apply spherical cutoff to Coloumb kernel
   NBANDSGWLOW=     1    first orbital included in HF term
   NBLOCK_FOCK=    64    blocking factor in FOCK_ACC
 Linear response parameters
   LEPSILON=     F    determine dielectric tensor
   LRPA    =     F    only Hartree local field effects (RPA)
   LNABLA  =     F    use nabla operator in PAW spheres
   LVEL    =     F    velocity operator in full k-point grid
   LINTERFAST=   F  fast interpolation
   KINTER  =     0    interpolate to denser k-point grid
   CSHIFT  =0.1000    complex shift for real part using Kramers Kronig
   OMEGAMAX=  -1.0    maximum frequency
   DEG_THRESHOLD= 0.2000000E-02 threshold for treating states as degnerate
   RTIME   =   -0.100 relaxation time in fs
  (WPLASMAI=    0.000 imaginary part of plasma frequency in eV, 0.658/RTIME)
   DFIELD  = 0.0000000 0.0000000 0.0000000 field for delta impulse in time
 
 Orbital magnetization related:
   ORBITALMAG=     F  switch on orbital magnetization
   LCHIMAG   =     F  perturbation theory with respect to B field
   DQ        =  0.001000  dq finite difference perturbation B field
   LLRAUG    =     F  two centre corrections for induced B field



--------------------------------------------------------------------------------------------------------


 Static calculation
 charge density and potential will be updated during run
 spin polarized calculation
 Conjugate gradient for all bands (Freysoldt, et al. PRB 79, 241103 (2009))
 perform sub-space diagonalisation
    before iterative eigenvector-optimisation
 modified Broyden-mixing scheme, WC =      100.0
 initial mixing is a Kerker type mixing with AMIX =  0.4000 and BMIX =      1.0000
 Hartree-type preconditioning will be used
 using additional bands           33
 reciprocal scheme for non local part
 use partial core corrections
 no Harris-corrections to forces 
 use gradient corrections 
 use of overlap-Matrix (Vanderbilt PP)
 Gauss-broadening in eV      SIGMA  =   0.10


--------------------------------------------------------------------------------------------------------


  energy-cutoff  :      500.00
  volume of cell :     3176.87
      direct lattice vectors                 reciprocal lattice vectors
    12.767274557  0.000526005  0.000003333     0.078325252  0.000003606 -0.000014628
    -0.000576643 12.524360539 -0.000104978    -0.000003290  0.079844396  0.000016547
     0.003710631 -0.004117299 19.867594254    -0.000000013  0.000000422  0.050333220

  length of vectors
    12.767274567 12.524360552 19.867595027     0.078325254  0.079844398  0.050333220


 
 old parameters found on file WAVECAR:
  energy-cutoff  :      500.00
  volume of cell :     3176.87
      direct lattice vectors                 reciprocal lattice vectors
    12.732400000  0.000000000  0.000000000     0.078539788  0.000006854 -0.000014529
    -0.001090019 12.490699952  0.000000000     0.000000000  0.080059565  0.000015788
     0.003695602 -0.003939329 19.975699270     0.000000000  0.000000000  0.050060826

  length of vectors

 
 k-points in units of 2pi/SCALE and weight: KPOINTS created by Atomic Simulation Env
   0.01958049  0.01996200  0.00000048       0.500
  -0.01958214  0.01996020  0.00000779       0.500
 
 k-points in reciprocal lattice and weights: KPOINTS created by Atomic Simulation Env
   0.25000000  0.25000000  0.00000000       0.500
  -0.25000000  0.25000000  0.00000000       0.500
 
 position of ions in fractional coordinates (direct lattice) 
   0.22048643  0.99980919  0.50002044
   0.05491996  0.10033081  0.50000943
   0.10953192  0.99965949  0.50000391
   0.27615817  0.09928690  0.50001076
   0.22283998  0.19991566  0.49998326
   0.05505468  0.30020679  0.50002527
   0.11083753  0.20022416  0.50001185
   0.28153117  0.29912524  0.49989301
   0.22348849  0.39934986  0.49990883
   0.05560989  0.50079590  0.50003013
   0.11188972  0.40035809  0.50000357
   0.27964986  0.49970393  0.49981236
   0.22524961  0.60116088  0.49996587
   0.05519765  0.69959406  0.50003934
   0.11251111  0.60053234  0.50003067
   0.28201769  0.70223333  0.49999779
   0.22266504  0.80045837  0.50002800
   0.05498195  0.89926297  0.49999920
   0.11068748  0.79950924  0.50001837
   0.27624274  0.90062267  0.50003242
   0.55460987  0.99922982  0.50003385
   0.38728703  0.09719107  0.50000952
   0.44381222  0.99923276  0.50004215
   0.61114195  0.09718460  0.50000725
   0.55545414  0.19413456  0.49994255
   0.44298128  0.19413717  0.49992795
   0.55575621  0.80349603  0.50004242
   0.38803752  0.90122452  0.50005260
   0.44265508  0.80349849  0.50004376
   0.61037857  0.90121807  0.50004079
   0.88889018  0.99965332  0.49999840
   0.72227070  0.09927711  0.50000911
   0.77793558  0.99979795  0.50000843
   0.94350929  0.10032603  0.50000819
   0.88759820  0.20021813  0.50001997
   0.71690951  0.29911326  0.49993930
   0.77559618  0.19990422  0.50000329
   0.94338430  0.30020274  0.50003561
   0.88654781  0.40035097  0.50002580
   0.71878160  0.49968847  0.49980812
   0.77494967  0.39933753  0.49994304
   0.94282052  0.50079236  0.50003771
   0.88591045  0.60052468  0.50003729
   0.71639561  0.70222105  0.49999837
   0.77317130  0.60114899  0.49996709
   0.94321846  0.69958950  0.50004179
   0.88772712  0.79950210  0.50001887
   0.72217397  0.90061231  0.50002106
   0.77574852  0.80044646  0.50002557
   0.94343472  0.89925800  0.49999784
   0.39291528  0.29502833  0.49981471
   0.60552601  0.29502244  0.49986257
   0.38432197  0.50024637  0.49953113
   0.61411005  0.50023916  0.49948502
   0.39025857  0.70666803  0.49996798
   0.60815355  0.70666296  0.49997462
   0.49922044  0.40653659  0.49953767
   0.49921551  0.58751392  0.49942413
 
 position of ions in cartesian coordinates  (Angst):
   2.81628963 12.52002795  9.93409896
   0.70297569  1.25454943  9.93397416
   1.39970297 12.51809485  9.93377027
   3.52758533  1.24159151  9.93400131
   2.84679919  2.50187447  9.93344431
   0.70458054  3.75786830  9.93426788
   1.41683309  2.50567919  9.93401184
   3.59606816  3.74444229  9.93164105
   2.85496367  4.99966097  9.93194467
   0.71155333  6.27011891  9.93434326
   1.43015127  5.01222923  9.93382635
   3.57193297  6.25656138  9.93001766
   2.87733221  7.52721562  9.93305662
   0.70617555  8.75993843  9.93450545
   1.43796941  7.51928393  9.93434382
   3.60204765  8.79311309  9.93368049
   2.84421954 10.02328764  9.93427023
   0.70330639 11.26066394  9.93368702
   1.41457178 10.01134150  9.93407846
   3.52820294 11.27780957  9.93434765
   7.08213571 12.51294752  9.93436665
   4.94639911  1.21540098  9.93397738
   5.66755180 12.51292601  9.93453119
   7.80441635  1.21543780  9.93393298
   7.09337869  2.42964501  9.93263730
   5.65740674  2.42961861  9.93234685
   7.09688427 10.06150752  9.93455739
   4.95551745 11.28540600  9.93474875
   5.65289106 10.06147885  9.93458367
   7.79420655 11.28544224  9.93451490
  11.34998387 12.51842754  9.93366331
   9.22322642  1.24170354  9.93397020
   9.93339599 12.52018052  9.93386222
  12.04783967  1.25495704  9.93395252
  11.33394991  2.50601224  9.93417579
   9.15466316  3.74452102  9.93256207
   9.90398940  2.50202182  9.93384400
  12.04612874  3.75828481  9.93447623
  11.32042389  5.01254751  9.93427061
   9.17844843  6.25659874  9.92993485
   9.89562001  4.99979641  9.93262616
  12.03881507  6.27054125  9.93449691
  11.31217106  7.51959486  9.93447795
   9.14786980  8.79318776  9.93369350
   9.87279878  7.52735488  9.93308277
  12.04378107  8.76034848  9.93455714
  11.33525022 10.01166079  9.93409114
   9.22152942 11.27791442  9.93412341
   9.90558817 10.02342935  9.93422369
  12.04642682 11.26106906  9.93366292
   5.01814181  3.69319000  9.93008622
   7.73260147  3.69322782  9.93103771
   4.90830921  6.26341130  9.92443049
   7.84207653  6.26344209  9.92351520
   4.98398605  8.84871189  9.93308817
   7.76591105  8.84876305  9.93322069
   6.37530354  5.08981661  9.92457078
   6.37513588  7.35644247  9.92229589
 


--------------------------------------------------------------------------------------------------------


 k-point  1 :   0.2500 0.2500 0.0000  plane waves:   80655
 k-point  2 :  -0.2500 0.2500 0.0000  plane waves:   80663

 maximum and minimum number of plane-waves per node :      2548     2491

 maximum number of plane-waves:     80663
 maximum index in each direction: 
   IXMAX=   23   IYMAX=   22   IZMAX=   36
   IXMIN=  -23   IYMIN=  -23   IZMIN=  -36


 parallel 3D FFT for wavefunctions:
    minimum data exchange during FFTs selected (reduces bandwidth)
 parallel 3D FFT for charge:
    minimum data exchange during FFTs selected (reduces bandwidth)


 FFT grid for exact exchange (Hartree Fock) 
  NGX = 70; NGY = 70; NGZ =112

 
 Radii for the augmentation spheres in the non-local exchange
 for species   1 augmentation radius   0.874 (default was   0.699)
       energy cutoff for augmentation   2000.0
 for species   2 augmentation radius   0.886 (default was   0.709)
       energy cutoff for augmentation   2000.0
 for species   3 augmentation radius   1.263 (default was   1.010)
       energy cutoff for augmentation   2000.0
 for species   4 augmentation radius   1.508 (default was   1.206)
       energy cutoff for augmentation   2000.0

 real space projection operators:
  total allocation   :       2643.55 KBytes
  max/ min on nodes  :        140.74         39.23

 Maximum index for augmentation-charges in exchange          193
  SETUP_FOCK is finished

 total amount of memory used by VASP MPI-rank0   165529. kBytes
=======================================================================

   base      :      30000. kBytes
   nonl-proj :       5316. kBytes
   fftplans  :      14250. kBytes
   grid      :      36827. kBytes
   one-center:         62. kBytes
   HF        :         23. kBytes
   nonlr-proj:       2707. kBytes
   wavefun   :      76344. kBytes
 
     INWAV:  cpu time    3.4904: real time    3.4907
 Broyden mixing: mesh for mixing (old mesh)
   NGX = 47   NGY = 45   NGZ = 73
  (NGX  =192   NGY  =192   NGZ  =300)
  gives a total of 154395 points

 charge density for first step will be calculated from the start-wavefunctions


--------------------------------------------------------------------------------------------------------


 Maximum index for augmentation-charges         1058 (set IRDMAX)


--------------------------------------------------------------------------------------------------------


 initial charge from wavefunction
 First call to EWALD:  gamma=   0.121
 Maximum number of real-space cells 3x 3x 2
 Maximum number of reciprocal cells 2x 2x 4

    FEWALD:  cpu time    0.0032: real time    0.0032


--------------------------------------- Iteration      1(   1)  ---------------------------------------


    POTLOK:  cpu time    1.3772: real time    1.3777
    SETDIJ:  cpu time    2.0914: real time    2.0920
    TRIAL :  cpu time  509.9682: real time  510.0079
    CORREC:  cpu time    0.0020: real time    0.0022
    CHARGE:  cpu time    1.6567: real time    1.6568
    --------------------------------------------
      LOOP:  cpu time  515.1112: real time  515.1556

 eigenvalue-minimisations  :     0
 total energy-change (2. order) :-0.6099562E+03  (-0.4549012E+00)
 number of electron     240.9999997 magnetization       1.0000001
 augmentation part       11.5069867 magnetization       0.9888065

 DIPCOR: dipole corrections for dipol
 direction  3 min pos     1,
 dipolmoment           0.000000     -0.000000      0.001588 electrons x Angstroem
 Tr[quadrupol]     -6526.703909

 energy correction for charged system         0.000000 eV
 dipol+quadrupol energy correction            0.000000 eV
 added-field ion interaction          0.000000 eV  (added to PSCEN)


 Free energy of the ion-electron system (eV)
  ---------------------------------------------------
  alpha Z        PSCENC =        98.80808572
  Ewald energy   TEWEN  =     37849.40629941
  -Hartree energ DENC   =    -45916.37340660
  -exchange      EXHF   =       540.54998678
  -V(xc)+E(xc)   XCENC  =       576.46965703
  PAW double counting   =     25757.42536586   -25756.91397051
  entropy T*S    EENTRO =        -0.00008824
  eigenvalues    EBANDS =     -3122.35631711
  atomic energy  EATOM  =      9363.02833311
  ---------------------------------------------------
  free energy    TOTEN  =      -609.95619203 eV

  energy without entropy =     -609.95610379  energy(sigma->0) =     -609.95614791
  exchange ACFDT corr.  =        -0.00021534  see jH, gK, PRB 81, 115126


--------------------------------------------------------------------------------------------------------




--------------------------------------- Iteration      1(   2)  ---------------------------------------


    POTLOK:  cpu time    1.3986: real time    1.3986
    SETDIJ:  cpu time    2.0892: real time    2.0891
    TRIAL :  cpu time  511.6314: real time  511.6587
    CORREC:  cpu time    0.0019: real time    0.0021
    CHARGE:  cpu time    1.6505: real time    1.6504
    --------------------------------------------
      LOOP:  cpu time  516.7761: real time  516.8043

 eigenvalue-minimisations  :     0
 total energy-change (2. order) :-0.3664316E+00  (-0.3802882E+00)
 number of electron     240.9999997 magnetization       1.0000001
 augmentation part       11.4609240 magnetization       1.0289784

 DIPCOR: dipole corrections for dipol
 direction  3 min pos     1,
 dipolmoment           0.000000     -0.000000      0.001764 electrons x Angstroem
 Tr[quadrupol]     -6526.483176

 energy correction for charged system         0.000000 eV
 dipol+quadrupol energy correction            0.000000 eV
 added-field ion interaction          0.000000 eV  (added to PSCEN)


 Free energy of the ion-electron system (eV)
  ---------------------------------------------------
  alpha Z        PSCENC =        98.80808573
  Ewald energy   TEWEN  =     37849.40629941
  -Hartree energ DENC   =    -45897.57267423
  -exchange      EXHF   =       540.39895531
  -V(xc)+E(xc)   XCENC  =       576.11423314
  PAW double counting   =     25883.69741427   -25882.46239260
  entropy T*S    EENTRO =        -0.00002512
  eigenvalues    EBANDS =     -3141.74078953
  atomic energy  EATOM  =      9363.02833311
  ---------------------------------------------------
  free energy    TOTEN  =      -610.32262362 eV

  energy without entropy =     -610.32259850  energy(sigma->0) =     -610.32261106
  exchange ACFDT corr.  =        -0.00007746  see jH, gK, PRB 81, 115126


--------------------------------------------------------------------------------------------------------




--------------------------------------- Iteration      1(   3)  ---------------------------------------


    POTLOK:  cpu time    1.4069: real time    1.4068
    SETDIJ:  cpu time    2.0861: real time    2.0862
    TRIAL :  cpu time  508.3111: real time  508.3380
    CORREC:  cpu time    0.0018: real time    0.0020
    CHARGE:  cpu time    1.6501: real time    1.6502
    --------------------------------------------
      LOOP:  cpu time  513.4583: real time  513.4879

 eigenvalue-minimisations  :     0
 total energy-change (2. order) :-0.2941806E+00  (-0.2367502E+00)
 number of electron     240.9999998 magnetization       1.0000001
 augmentation part       11.4617043 magnetization       1.0558490

 DIPCOR: dipole corrections for dipol
 direction  3 min pos     1,
 dipolmoment           0.000000     -0.000000      0.001843 electrons x Angstroem
 Tr[quadrupol]     -6526.283580

 energy correction for charged system         0.000000 eV
 dipol+quadrupol energy correction            0.000000 eV
 added-field ion interaction          0.000000 eV  (added to PSCEN)


 Free energy of the ion-electron system (eV)
  ---------------------------------------------------
  alpha Z        PSCENC =        98.80808574
  Ewald energy   TEWEN  =     37849.40629941
  -Hartree energ DENC   =    -45880.54694633
  -exchange      EXHF   =       540.30367464
  -V(xc)+E(xc)   XCENC  =       575.76754583
  PAW double counting   =     26044.98616968   -26043.53490830
  entropy T*S    EENTRO =        -0.00000611
  eigenvalues    EBANDS =     -3158.83503289
  atomic energy  EATOM  =      9363.02833311
  ---------------------------------------------------
  free energy    TOTEN  =      -610.61680425 eV

  energy without entropy =     -610.61679814  energy(sigma->0) =     -610.61680120
  exchange ACFDT corr.  =        -0.00001999  see jH, gK, PRB 81, 115126


--------------------------------------------------------------------------------------------------------




--------------------------------------- Iteration      1(   4)  ---------------------------------------


    POTLOK:  cpu time    1.4086: real time    1.4085
    SETDIJ:  cpu time    2.0868: real time    2.0869
    TRIAL :  cpu time  509.5866: real time  509.6110
    CORREC:  cpu time    0.0016: real time    0.0019
    CHARGE:  cpu time    1.6483: real time    1.6485
    --------------------------------------------
      LOOP:  cpu time  514.7358: real time  514.7628

 eigenvalue-minimisations  :     0
 total energy-change (2. order) :-0.1835589E+00  (-0.1413628E+00)
 number of electron     240.9999998 magnetization       1.0000001
 augmentation part       11.4725607 magnetization       1.0721163

 DIPCOR: dipole corrections for dipol
 direction  3 min pos     1,
 dipolmoment           0.000000     -0.000000      0.001915 electrons x Angstroem
 Tr[quadrupol]     -6526.216536

 energy correction for charged system         0.000000 eV
 dipol+quadrupol energy correction            0.000000 eV
 added-field ion interaction          0.000000 eV  (added to PSCEN)


 Free energy of the ion-electron system (eV)
  ---------------------------------------------------
  alpha Z        PSCENC =        98.80808575
  Ewald energy   TEWEN  =     37849.40629941
  -Hartree energ DENC   =    -45873.34181541
  -exchange      EXHF   =       540.39819309
  -V(xc)+E(xc)   XCENC  =       575.61987284
  PAW double counting   =     26179.30187875   -26178.03479536
  entropy T*S    EENTRO =        -0.00000138
  eigenvalues    EBANDS =     -3165.98640920
  atomic energy  EATOM  =      9363.02833311
  ---------------------------------------------------
  free energy    TOTEN  =      -610.80036312 eV

  energy without entropy =     -610.80036174  energy(sigma->0) =     -610.80036243
  exchange ACFDT corr.  =        -0.00000442  see jH, gK, PRB 81, 115126


--------------------------------------------------------------------------------------------------------




--------------------------------------- Iteration      1(   5)  ---------------------------------------


    POTLOK:  cpu time    1.4041: real time    1.4043
    SETDIJ:  cpu time    2.0882: real time    2.0882
    TRIAL :  cpu time  507.7063: real time  507.7292
    CORREC:  cpu time    0.0015: real time    0.0018
    CHARGE:  cpu time    1.6498: real time    1.6498
    --------------------------------------------
      LOOP:  cpu time  512.8525: real time  512.8780

 eigenvalue-minimisations  :     0
 total energy-change (2. order) :-0.1129710E+00  (-0.9225566E-01)
 number of electron     240.9999998 magnetization       1.0000001
 augmentation part       11.4748899 magnetization       1.0836061

 DIPCOR: dipole corrections for dipol
 direction  3 min pos     1,
 dipolmoment           0.000000     -0.000000      0.002025 electrons x Angstroem
 Tr[quadrupol]     -6526.251173

 energy correction for charged system         0.000000 eV
 dipol+quadrupol energy correction            0.000000 eV
 added-field ion interaction          0.000000 eV  (added to PSCEN)


 Free energy of the ion-electron system (eV)
  ---------------------------------------------------
  alpha Z        PSCENC =        98.80808576
  Ewald energy   TEWEN  =     37849.40629941
  -Hartree energ DENC   =    -45874.07508591
  -exchange      EXHF   =       540.65324359
  -V(xc)+E(xc)   XCENC  =       575.67553206
  PAW double counting   =     26274.50983553   -26273.41417673
  entropy T*S    EENTRO =        -0.00000033
  eigenvalues    EBANDS =     -3165.50539952
  atomic energy  EATOM  =      9363.02833311
  ---------------------------------------------------
  free energy    TOTEN  =      -610.91333409 eV

  energy without entropy =     -610.91333376  energy(sigma->0) =     -610.91333393
  exchange ACFDT corr.  =        -0.00000091  see jH, gK, PRB 81, 115126


--------------------------------------------------------------------------------------------------------




--------------------------------------- Iteration      1(   6)  ---------------------------------------


    POTLOK:  cpu time    1.4074: real time    1.4074
    SETDIJ:  cpu time    2.0758: real time    2.0804
    TRIAL :  cpu time  506.9433: real time  506.9740
    CORREC:  cpu time    0.0015: real time    0.0018
    CHARGE:  cpu time    1.6574: real time    1.6576
    --------------------------------------------
      LOOP:  cpu time  512.0880: real time  512.1238

 eigenvalue-minimisations  :     0
 total energy-change (2. order) :-0.7734821E-01  (-0.6349473E-01)
 number of electron     240.9999998 magnetization       1.0000001
 augmentation part       11.4729115 magnetization       1.0923533

 DIPCOR: dipole corrections for dipol
 direction  3 min pos     1,
 dipolmoment           0.000000     -0.000000      0.002159 electrons x Angstroem
 Tr[quadrupol]     -6526.316267

 energy correction for charged system         0.000000 eV
 dipol+quadrupol energy correction            0.000000 eV
 added-field ion interaction          0.000000 eV  (added to PSCEN)


 Free energy of the ion-electron system (eV)
  ---------------------------------------------------
  alpha Z        PSCENC =        98.80808578
  Ewald energy   TEWEN  =     37849.40629941
  -Hartree energ DENC   =    -45877.92942599
  -exchange      EXHF   =       540.95569091
  -V(xc)+E(xc)   XCENC  =       575.83313713
  PAW double counting   =     26337.34746675   -26336.29414135
  entropy T*S    EENTRO =        -0.00000009
  eigenvalues    EBANDS =     -3162.14612772
  atomic energy  EATOM  =      9363.02833311
  ---------------------------------------------------
  free energy    TOTEN  =      -610.99068230 eV

  energy without entropy =     -610.99068221  energy(sigma->0) =     -610.99068226
  exchange ACFDT corr.  =        -0.00000020  see jH, gK, PRB 81, 115126


--------------------------------------------------------------------------------------------------------




--------------------------------------- Iteration      1(   7)  ---------------------------------------


    POTLOK:  cpu time    1.4031: real time    1.4031
    SETDIJ:  cpu time    2.0829: real time    2.0828
    TRIAL :  cpu time  507.6185: real time  507.6298
    CORREC:  cpu time    0.0014: real time    0.0017
    CHARGE:  cpu time    1.6504: real time    1.6503
    --------------------------------------------
      LOOP:  cpu time  512.7589: real time  512.7704

 eigenvalue-minimisations  :     0
 total energy-change (2. order) :-0.5403756E-01  (-0.4307549E-01)
 number of electron     240.9999998 magnetization       1.0000001
 augmentation part       11.4738948 magnetization       1.0984297

 DIPCOR: dipole corrections for dipol
 direction  3 min pos     1,
 dipolmoment           0.000000     -0.000000      0.002260 electrons x Angstroem
 Tr[quadrupol]     -6526.369910

 energy correction for charged system         0.000000 eV
 dipol+quadrupol energy correction            0.000000 eV
 added-field ion interaction          0.000000 eV  (added to PSCEN)


 Free energy of the ion-electron system (eV)
  ---------------------------------------------------
  alpha Z        PSCENC =        98.80808579
  Ewald energy   TEWEN  =     37849.40629941
  -Hartree energ DENC   =    -45881.59074081
  -exchange      EXHF   =       541.21405109
  -V(xc)+E(xc)   XCENC  =       575.99306725
  PAW double counting   =     26376.38884564   -26375.32738957
  entropy T*S    EENTRO =        -0.00000003
  eigenvalues    EBANDS =     -3158.96527168
  atomic energy  EATOM  =      9363.02833311
  ---------------------------------------------------
  free energy    TOTEN  =      -611.04471986 eV

  energy without entropy =     -611.04471983  energy(sigma->0) =     -611.04471984
  exchange ACFDT corr.  =        -0.00000005  see jH, gK, PRB 81, 115126


--------------------------------------------------------------------------------------------------------




--------------------------------------- Iteration      1(   8)  ---------------------------------------


    POTLOK:  cpu time    1.4052: real time    1.4053
    SETDIJ:  cpu time    2.0833: real time    2.0833
    TRIAL :  cpu time  507.4814: real time  507.5268
    CORREC:  cpu time    0.0013: real time    0.0013
    CHARGE:  cpu time    1.6475: real time    1.6478
    --------------------------------------------
      LOOP:  cpu time  512.6210: real time  512.6669

 eigenvalue-minimisations  :     0
 total energy-change (2. order) :-0.3761117E-01  (-0.3093708E-01)
 number of electron     240.9999998 magnetization       1.0000001
 augmentation part       11.4786980 magnetization       1.1025854

 DIPCOR: dipole corrections for dipol
 direction  3 min pos     1,
 dipolmoment           0.000000     -0.000000      0.002302 electrons x Angstroem
 Tr[quadrupol]     -6526.401564

 energy correction for charged system         0.000000 eV
 dipol+quadrupol energy correction            0.000000 eV
 added-field ion interaction          0.000000 eV  (added to PSCEN)


 Free energy of the ion-electron system (eV)
  ---------------------------------------------------
  alpha Z        PSCENC =        98.80808580
  Ewald energy   TEWEN  =     37849.40629941
  -Hartree energ DENC   =    -45883.86004177
  -exchange      EXHF   =       541.39473770
  -V(xc)+E(xc)   XCENC  =       576.10754684
  PAW double counting   =     26398.79651825   -26397.75188191
  entropy T*S    EENTRO =        -0.00000001
  eigenvalues    EBANDS =     -3157.01192843
  atomic energy  EATOM  =      9363.02833311
  ---------------------------------------------------
  free energy    TOTEN  =      -611.08233103 eV

  energy without entropy =     -611.08233102  energy(sigma->0) =     -611.08233102
  exchange ACFDT corr.  =        -0.00000001  see jH, gK, PRB 81, 115126


--------------------------------------------------------------------------------------------------------




--------------------------------------- Iteration      1(   9)  ---------------------------------------


    POTLOK:  cpu time    1.4310: real time    1.4310
    SETDIJ:  cpu time    2.0838: real time    2.0838
    TRIAL :  cpu time  507.2842: real time  507.3022
    CORREC:  cpu time    0.0013: real time    0.0016
    CHARGE:  cpu time    1.6455: real time    1.6455
    --------------------------------------------
      LOOP:  cpu time  512.4481: real time  512.4685

 eigenvalue-minimisations  :     0
 total energy-change (2. order) :-0.2761194E-01  (-0.2285795E-01)
 number of electron     240.9999998 magnetization       1.0000001
 augmentation part       11.4842681 magnetization       1.1059933

 DIPCOR: dipole corrections for dipol
 direction  3 min pos     1,
 dipolmoment           0.000000     -0.000000      0.002305 electrons x Angstroem
 Tr[quadrupol]     -6526.415854

 energy correction for charged system         0.000000 eV
 dipol+quadrupol energy correction            0.000000 eV
 added-field ion interaction          0.000000 eV  (added to PSCEN)


 Free energy of the ion-electron system (eV)
  ---------------------------------------------------
  alpha Z        PSCENC =        98.80808580
  Ewald energy   TEWEN  =     37849.40629941
  -Hartree energ DENC   =    -45884.85529608
  -exchange      EXHF   =       541.50830248
  -V(xc)+E(xc)   XCENC  =       576.17586902
  PAW double counting   =     26410.71657941   -26409.72404325
  entropy T*S    EENTRO =        -0.00000000
  eigenvalues    EBANDS =     -3156.17407285
  atomic energy  EATOM  =      9363.02833311
  ---------------------------------------------------
  free energy    TOTEN  =      -611.10994297 eV

  energy without entropy =     -611.10994296  energy(sigma->0) =     -611.10994297
  exchange ACFDT corr.  =        -0.00000000  see jH, gK, PRB 81, 115126


--------------------------------------------------------------------------------------------------------




--------------------------------------- Iteration      1(  10)  ---------------------------------------


    POTLOK:  cpu time    1.3964: real time    1.3966
    SETDIJ:  cpu time    2.0919: real time    2.0919
    TRIAL :  cpu time  507.3810: real time  507.4084
    CORREC:  cpu time    0.0012: real time    0.0015
    CHARGE:  cpu time    1.6528: real time    1.6528
    --------------------------------------------
      LOOP:  cpu time  512.5263: real time  512.6051

 eigenvalue-minimisations  :     0
 total energy-change (2. order) :-0.2063971E-01  (-0.1711005E-01)
 number of electron     240.9999998 magnetization       1.0000001
 augmentation part       11.4881574 magnetization       1.1093760

 DIPCOR: dipole corrections for dipol
 direction  3 min pos     1,
 dipolmoment           0.000000     -0.000000      0.002304 electrons x Angstroem
 Tr[quadrupol]     -6526.420892

 energy correction for charged system         0.000000 eV
 dipol+quadrupol energy correction            0.000000 eV
 added-field ion interaction          0.000000 eV  (added to PSCEN)


 Free energy of the ion-electron system (eV)
  ---------------------------------------------------
  alpha Z        PSCENC =        98.80808580
  Ewald energy   TEWEN  =     37849.40629941
  -Hartree energ DENC   =    -45885.13948246
  -exchange      EXHF   =       541.58163880
  -V(xc)+E(xc)   XCENC  =       576.21729365
  PAW double counting   =     26416.72161744   -26415.79112361
  entropy T*S    EENTRO =        -0.00000000
  eigenvalues    EBANDS =     -3155.96324481
  atomic energy  EATOM  =      9363.02833311
  ---------------------------------------------------
  free energy    TOTEN  =      -611.13058268 eV

  energy without entropy =     -611.13058268  energy(sigma->0) =     -611.13058268
  exchange ACFDT corr.  =        -0.00000000  see jH, gK, PRB 81, 115126


--------------------------------------------------------------------------------------------------------




--------------------------------------- Iteration      1(  11)  ---------------------------------------


    POTLOK:  cpu time    1.3948: real time    1.3948
    SETDIJ:  cpu time    2.0909: real time    2.0910
    TRIAL :  cpu time  507.4155: real time  507.4247
    CORREC:  cpu time    0.0013: real time    0.0015
    CHARGE:  cpu time    1.6445: real time    1.6444
    --------------------------------------------
      LOOP:  cpu time  512.5498: real time  512.5593

 eigenvalue-minimisations  :     0
 total energy-change (2. order) :-0.1567549E-01  (-0.1323190E-01)
 number of electron     240.9999998 magnetization       1.0000001
 augmentation part       11.4900875 magnetization       1.1127898

 DIPCOR: dipole corrections for dipol
 direction  3 min pos     1,
 dipolmoment           0.000000     -0.000000      0.002315 electrons x Angstroem
 Tr[quadrupol]     -6526.422749

 energy correction for charged system         0.000000 eV
 dipol+quadrupol energy correction            0.000000 eV
 added-field ion interaction          0.000000 eV  (added to PSCEN)


 Free energy of the ion-electron system (eV)
  ---------------------------------------------------
  alpha Z        PSCENC =        98.80808580
  Ewald energy   TEWEN  =     37849.40629941
  -Hartree energ DENC   =    -45885.18141983
  -exchange      EXHF   =       541.63698527
  -V(xc)+E(xc)   XCENC  =       576.24892764
  PAW double counting   =     26419.75784736   -26418.87645277
  entropy T*S    EENTRO =        -0.00000000
  eigenvalues    EBANDS =     -3155.97486415
  atomic energy  EATOM  =      9363.02833311
  ---------------------------------------------------
  free energy    TOTEN  =      -611.14625817 eV

  energy without entropy =     -611.14625816  energy(sigma->0) =     -611.14625816
  exchange ACFDT corr.  =        -0.00000000  see jH, gK, PRB 81, 115126


--------------------------------------------------------------------------------------------------------




--------------------------------------- Iteration      1(  12)  ---------------------------------------


    POTLOK:  cpu time    1.3944: real time    1.3945
    SETDIJ:  cpu time    2.0874: real time    2.0874
    TRIAL :  cpu time  507.1674: real time  507.1971
    CORREC:  cpu time    0.0010: real time    0.0013
    CHARGE:  cpu time    1.6472: real time    1.6473
    --------------------------------------------
      LOOP:  cpu time  512.2999: real time  512.3300

 eigenvalue-minimisations  :     0
 total energy-change (2. order) :-0.1227320E-01  (-0.1049957E-01)
 number of electron     240.9999998 magnetization       1.0000001
 augmentation part       11.4910463 magnetization       1.1159589

 DIPCOR: dipole corrections for dipol
 direction  3 min pos     1,
 dipolmoment           0.000000     -0.000000      0.002335 electrons x Angstroem
 Tr[quadrupol]     -6526.424111

 energy correction for charged system         0.000000 eV
 dipol+quadrupol energy correction            0.000000 eV
 added-field ion interaction          0.000000 eV  (added to PSCEN)


 Free energy of the ion-electron system (eV)
  ---------------------------------------------------
  alpha Z        PSCENC =        98.80808580
  Ewald energy   TEWEN  =     37849.40629941
  -Hartree energ DENC   =    -45885.18794828
  -exchange      EXHF   =       541.68481049
  -V(xc)+E(xc)   XCENC  =       576.27793560
  PAW double counting   =     26421.65061764   -26420.79987262
  entropy T*S    EENTRO =        -0.00000000
  eigenvalues    EBANDS =     -3156.02679253
  atomic energy  EATOM  =      9363.02833311
  ---------------------------------------------------
  free energy    TOTEN  =      -611.15853137 eV

  energy without entropy =     -611.15853137  energy(sigma->0) =     -611.15853137
  exchange ACFDT corr.  =        -0.00000000  see jH, gK, PRB 81, 115126


--------------------------------------------------------------------------------------------------------




--------------------------------------- Iteration      1(  13)  ---------------------------------------


    POTLOK:  cpu time    1.3876: real time    1.3877
    SETDIJ:  cpu time    2.0843: real time    2.0844
    TRIAL :  cpu time  507.6558: real time  507.6886
    CORREC:  cpu time    0.0011: real time    0.0014
    CHARGE:  cpu time    1.6475: real time    1.6474
    --------------------------------------------
      LOOP:  cpu time  512.7789: real time  512.8143

 eigenvalue-minimisations  :     0
 total energy-change (2. order) :-0.9824483E-02  (-0.8498413E-02)
 number of electron     240.9999998 magnetization       1.0000001
 augmentation part       11.4920014 magnetization       1.1186340

 DIPCOR: dipole corrections for dipol
 direction  3 min pos     1,
 dipolmoment           0.000000     -0.000000      0.002354 electrons x Angstroem
 Tr[quadrupol]     -6526.425663

 energy correction for charged system         0.000000 eV
 dipol+quadrupol energy correction            0.000000 eV
 added-field ion interaction          0.000000 eV  (added to PSCEN)


 Free energy of the ion-electron system (eV)
  ---------------------------------------------------
  alpha Z        PSCENC =        98.80808580
  Ewald energy   TEWEN  =     37849.40629941
  -Hartree energ DENC   =    -45885.20293304
  -exchange      EXHF   =       541.72739353
  -V(xc)+E(xc)   XCENC  =       576.30484680
  PAW double counting   =     26423.29494306   -26422.46399532
  entropy T*S    EENTRO =        -0.00000000
  eigenvalues    EBANDS =     -3156.07132920
  atomic energy  EATOM  =      9363.02833311
  ---------------------------------------------------
  free energy    TOTEN  =      -611.16835585 eV

  energy without entropy =     -611.16835585  energy(sigma->0) =     -611.16835585
  exchange ACFDT corr.  =        -0.00000000  see jH, gK, PRB 81, 115126


--------------------------------------------------------------------------------------------------------




--------------------------------------- Iteration      1(  14)  ---------------------------------------


    POTLOK:  cpu time    1.3828: real time    1.3829
    SETDIJ:  cpu time    2.0802: real time    2.0802
    TRIAL :  cpu time  507.5193: real time  507.5343
    CORREC:  cpu time    0.0011: real time    0.0014
    CHARGE:  cpu time    1.6470: real time    1.6469
    --------------------------------------------
      LOOP:  cpu time  512.6326: real time  512.6479

 eigenvalue-minimisations  :     0
 total energy-change (2. order) :-0.8017240E-02  (-0.7024551E-02)
 number of electron     240.9999998 magnetization       1.0000001
 augmentation part       11.4932430 magnetization       1.1207974

 DIPCOR: dipole corrections for dipol
 direction  3 min pos     1,
 dipolmoment           0.000000     -0.000000      0.002368 electrons x Angstroem
 Tr[quadrupol]     -6526.427410

 energy correction for charged system         0.000000 eV
 dipol+quadrupol energy correction            0.000000 eV
 added-field ion interaction          0.000000 eV  (added to PSCEN)


 Free energy of the ion-electron system (eV)
  ---------------------------------------------------
  alpha Z        PSCENC =        98.80808581
  Ewald energy   TEWEN  =     37849.40629941
  -Hartree energ DENC   =    -45885.22781215
  -exchange      EXHF   =       541.76478137
  -V(xc)+E(xc)   XCENC  =       576.32881704
  PAW double counting   =     26425.06162028   -26424.24942519
  entropy T*S    EENTRO =        -0.00000000
  eigenvalues    EBANDS =     -3156.09707276
  atomic energy  EATOM  =      9363.02833311
  ---------------------------------------------------
  free energy    TOTEN  =      -611.17637309 eV

  energy without entropy =     -611.17637309  energy(sigma->0) =     -611.17637309
  exchange ACFDT corr.  =        -0.00000000  see jH, gK, PRB 81, 115126


--------------------------------------------------------------------------------------------------------




--------------------------------------- Iteration      1(  15)  ---------------------------------------


    POTLOK:  cpu time    1.3814: real time    1.3814
    SETDIJ:  cpu time    2.0836: real time    2.0837
    TRIAL :  cpu time  506.4440: real time  506.4703
    CORREC:  cpu time    0.0010: real time    0.0013
    CHARGE:  cpu time    1.6455: real time    1.6455
    --------------------------------------------
      LOOP:  cpu time  511.5584: real time  511.5850

 eigenvalue-minimisations  :     0
 total energy-change (2. order) :-0.6673657E-02  (-0.5912867E-02)
 number of electron     240.9999998 magnetization       1.0000001
 augmentation part       11.4945366 magnetization       1.1225959

 DIPCOR: dipole corrections for dipol
 direction  3 min pos     1,
 dipolmoment           0.000000     -0.000000      0.002376 electrons x Angstroem
 Tr[quadrupol]     -6526.429139

 energy correction for charged system         0.000000 eV
 dipol+quadrupol energy correction            0.000000 eV
 added-field ion interaction          0.000000 eV  (added to PSCEN)


 Free energy of the ion-electron system (eV)
  ---------------------------------------------------
  alpha Z        PSCENC =        98.80808581
  Ewald energy   TEWEN  =     37849.40629941
  -Hartree energ DENC   =    -45885.25703018
  -exchange      EXHF   =       541.79742691
  -V(xc)+E(xc)   XCENC  =       576.34980525
  PAW double counting   =     26427.10235398   -26426.31202331
  entropy T*S    EENTRO =        -0.00000000
  eigenvalues    EBANDS =     -3156.10629773
  atomic energy  EATOM  =      9363.02833311
  ---------------------------------------------------
  free energy    TOTEN  =      -611.18304675 eV

  energy without entropy =     -611.18304675  energy(sigma->0) =     -611.18304675
  exchange ACFDT corr.  =        -0.00000000  see jH, gK, PRB 81, 115126


--------------------------------------------------------------------------------------------------------




--------------------------------------- Iteration      1(  16)  ---------------------------------------


    POTLOK:  cpu time    1.3769: real time    1.3770
    SETDIJ:  cpu time    2.0872: real time    2.0872
    TRIAL :  cpu time  505.1295: real time  505.1465
    CORREC:  cpu time    0.0010: real time    0.0013
    CHARGE:  cpu time    1.6435: real time    1.6435
    --------------------------------------------
      LOOP:  cpu time  510.2407: real time  510.2580

 eigenvalue-minimisations  :     0
 total energy-change (2. order) :-0.5649245E-02  (-0.5058266E-02)
 number of electron     240.9999998 magnetization       1.0000001
 augmentation part       11.4956044 magnetization       1.1241812

 DIPCOR: dipole corrections for dipol
 direction  3 min pos     1,
 dipolmoment           0.000000     -0.000000      0.002380 electrons x Angstroem
 Tr[quadrupol]     -6526.430654

 energy correction for charged system         0.000000 eV
 dipol+quadrupol energy correction            0.000000 eV
 added-field ion interaction          0.000000 eV  (added to PSCEN)


 Free energy of the ion-electron system (eV)
  ---------------------------------------------------
  alpha Z        PSCENC =        98.80808581
  Ewald energy   TEWEN  =     37849.40629941
  -Hartree energ DENC   =    -45885.28535783
  -exchange      EXHF   =       541.82645132
  -V(xc)+E(xc)   XCENC  =       576.36854652
  PAW double counting   =     26429.36048663   -26428.59313877
  entropy T*S    EENTRO =        -0.00000000
  eigenvalues    EBANDS =     -3156.10840219
  atomic energy  EATOM  =      9363.02833311
  ---------------------------------------------------
  free energy    TOTEN  =      -611.18869599 eV

  energy without entropy =     -611.18869599  energy(sigma->0) =     -611.18869599
  exchange ACFDT corr.  =        -0.00000000  see jH, gK, PRB 81, 115126


--------------------------------------------------------------------------------------------------------




--------------------------------------- Iteration      1(  17)  ---------------------------------------


    POTLOK:  cpu time    1.3786: real time    1.3788
    SETDIJ:  cpu time    2.0846: real time    2.0846
    TRIAL :  cpu time  507.4108: real time  507.4313
    CORREC:  cpu time    0.0011: real time    0.0014
    CHARGE:  cpu time    1.6473: real time    1.6474
    --------------------------------------------
      LOOP:  cpu time  512.5253: real time  512.5463

 eigenvalue-minimisations  :     0
 total energy-change (2. order) :-0.4855788E-02  (-0.4391756E-02)
 number of electron     240.9999998 magnetization       1.0000001
 augmentation part       11.4963878 magnetization       1.1256179

 DIPCOR: dipole corrections for dipol
 direction  3 min pos     1,
 dipolmoment           0.000000     -0.000000      0.002381 electrons x Angstroem
 Tr[quadrupol]     -6526.431796

 energy correction for charged system         0.000000 eV
 dipol+quadrupol energy correction            0.000000 eV
 added-field ion interaction          0.000000 eV  (added to PSCEN)


 Free energy of the ion-electron system (eV)
  ---------------------------------------------------
  alpha Z        PSCENC =        98.80808581
  Ewald energy   TEWEN  =     37849.40629941
  -Hartree energ DENC   =    -45885.30410090
  -exchange      EXHF   =       541.85279023
  -V(xc)+E(xc)   XCENC  =       576.38570105
  PAW double counting   =     26431.64946227   -26430.90273138
  entropy T*S    EENTRO =        -0.00000000
  eigenvalues    EBANDS =     -3156.11739139
  atomic energy  EATOM  =      9363.02833311
  ---------------------------------------------------
  free energy    TOTEN  =      -611.19355178 eV

  energy without entropy =     -611.19355178  energy(sigma->0) =     -611.19355178
  exchange ACFDT corr.  =        -0.00000000  see jH, gK, PRB 81, 115126


--------------------------------------------------------------------------------------------------------




--------------------------------------- Iteration      1(  18)  ---------------------------------------


    POTLOK:  cpu time    1.3745: real time    1.3744
    SETDIJ:  cpu time    2.0814: real time    2.0814
    TRIAL :  cpu time  504.9276: real time  504.9506
    CORREC:  cpu time    0.0011: real time    0.0013
    CHARGE:  cpu time    1.6530: real time    1.6531
    --------------------------------------------
      LOOP:  cpu time  510.0398: real time  510.0631

 eigenvalue-minimisations  :     0
 total energy-change (2. order) :-0.4232595E-02  (-0.3861573E-02)
 number of electron     240.9999998 magnetization       1.0000001
 augmentation part       11.4969986 magnetization       1.1268956

 DIPCOR: dipole corrections for dipol
 direction  3 min pos     1,
 dipolmoment           0.000000     -0.000000      0.002381 electrons x Angstroem
 Tr[quadrupol]     -6526.432485

 energy correction for charged system         0.000000 eV
 dipol+quadrupol energy correction            0.000000 eV
 added-field ion interaction          0.000000 eV  (added to PSCEN)


 Free energy of the ion-electron system (eV)
  ---------------------------------------------------
  alpha Z        PSCENC =        98.80808581
  Ewald energy   TEWEN  =     37849.40629941
  -Hartree energ DENC   =    -45885.30627136
  -exchange      EXHF   =       541.87686823
  -V(xc)+E(xc)   XCENC  =       576.40152849
  PAW double counting   =     26433.78430469   -26433.05459892
  entropy T*S    EENTRO =        -0.00000000
[...]
  augment    37.31224    39.64949    36.10113    -0.00058    -0.04236    -0.00103
  Kinetic  3540.48130  3597.46314  4046.02840    -0.00598    -0.03574    -0.00425
  Fock     -291.42970  -293.14343  -267.38371     0.00044     0.03405     0.00039
  -------------------------------------------------------------------------------------
  Total     -45.53974   -40.54776    -0.36874     0.00174    -0.00179     0.00027
  in kB     -22.96688   -20.44930    -0.18596     0.00088    -0.00090     0.00014
  external pressure =      -14.53 kB  Pullay stress =        0.00 kB


 VOLUME and BASIS-vectors are now :
 -----------------------------------------------------------------------------
  energy-cutoff  :      500.00
  volume of cell :     3176.87
      direct lattice vectors                 reciprocal lattice vectors
    12.767274557  0.000526005  0.000003333     0.078325252  0.000003606 -0.000014628
    -0.000576643 12.524360539 -0.000104978    -0.000003290  0.079844396  0.000016547
     0.003710631 -0.004117299 19.867594254    -0.000000013  0.000000422  0.050333220

  length of vectors
    12.767274567 12.524360552 19.867595027     0.078325254  0.079844398  0.050333220


 FORCES acting on ions:
    Electron-Ion                     Ewald-Force                    Non-Local-Force
 -----------------------------------------------------------------------------------------------
   0.137E+01 -.198E+01 -.183E+00   -.158E+01 0.237E+01 0.184E+00   0.106E+00 -.424E+00 -.691E-03
   -.299E+01 -.252E+01 -.111E+00   0.294E+01 0.278E+01 0.111E+00   0.267E-03 -.184E+00 -.500E-03
   0.833E+01 -.171E+01 -.341E-01   -.832E+01 0.177E+01 0.336E-01   0.105E+00 -.752E-01 0.104E-02
   0.951E+01 -.279E+01 -.248E+00   -.942E+01 0.331E+01 0.246E+00   -.180E-01 -.400E+00 0.934E-03
   0.236E+01 -.750E+01 -.186E+00   -.195E+01 0.810E+01 0.187E+00   -.357E+00 -.654E+00 -.143E-02
   -.283E+01 -.386E+01 -.301E+00   0.272E+01 0.390E+01 0.301E+00   -.186E-02 -.942E-01 -.217E-03
   0.392E+01 -.345E+01 -.216E+00   -.369E+01 0.360E+01 0.216E+00   -.235E+00 -.131E+00 -.366E-03
   0.714E+01 -.712E+01 0.104E+00   -.540E+01 0.722E+01 -.110E+00   -.146E+01 -.139E+00 0.462E-02
   0.121E+01 0.582E+01 -.256E-01   -.830E+00 -.621E+01 0.238E-01   -.552E+00 0.523E+00 0.146E-02
   0.308E+00 0.154E+01 -.339E+00   -.406E+00 -.149E+01 0.337E+00   0.124E+00 0.171E-01 0.199E-02
   0.677E+01 -.237E+00 -.313E+00   -.641E+01 0.433E+00 0.315E+00   -.223E+00 -.139E+00 -.215E-02
   0.397E+02 0.241E+00 0.144E+00   -.431E+02 -.638E+00 -.129E+00   0.324E+01 0.277E+00 -.162E-01
   0.331E+01 -.192E+01 -.309E+00   -.329E+01 0.120E+01 0.307E+00   0.543E-01 0.582E+00 -.305E-03
   -.625E+00 0.367E+01 -.309E+00   0.497E+00 -.398E+01 0.311E+00   0.561E-01 0.276E+00 -.107E-02
   0.250E+01 0.278E+01 -.414E+00   -.252E+01 -.307E+01 0.414E+00   -.320E-01 0.193E+00 -.132E-02
   0.292E+02 0.151E+02 -.372E+00   -.328E+02 -.157E+02 0.371E+00   0.369E+01 0.599E+00 -.336E-03
   0.909E+01 0.468E+01 -.295E+00   -.954E+01 -.459E+01 0.297E+00   0.405E+00 -.152E-01 -.947E-03
   -.168E+01 0.924E+00 0.193E-01   0.168E+01 -.984E+00 -.185E-01   0.166E-01 0.200E-01 0.590E-03
   0.482E+01 0.302E+01 -.128E+00   -.515E+01 -.316E+01 0.128E+00   0.334E+00 0.184E+00 0.132E-02
   0.896E+01 -.343E+01 -.234E+00   -.927E+01 0.369E+01 0.232E+00   0.301E+00 -.282E+00 0.216E-02
   -.308E+01 -.281E+01 -.302E+00   0.289E+01 0.336E+01 0.301E+00   0.140E+00 -.564E+00 0.153E-02
   0.567E+01 0.131E+01 -.331E+00   -.557E+01 -.699E+00 0.333E+00   -.174E+00 -.565E+00 -.273E-02
   0.308E+01 -.281E+01 -.375E+00   -.289E+01 0.336E+01 0.375E+00   -.140E+00 -.564E+00 -.216E-03
   -.567E+01 0.131E+01 -.287E+00   0.557E+01 -.702E+00 0.288E+00   0.174E+00 -.565E+00 -.212E-02
   -.277E+01 -.918E+00 -.176E+00   0.317E+01 0.262E+01 0.178E+00   -.195E+00 -.147E+01 -.350E-02
   0.277E+01 -.919E+00 -.882E-01   -.317E+01 0.262E+01 0.886E-01   0.194E+00 -.147E+01 -.171E-02
   0.143E+02 -.104E+02 -.607E+00   -.156E+02 0.134E+02 0.615E+00   0.130E+01 -.297E+01 -.789E-02
   0.593E+01 -.706E+01 -.430E+00   -.579E+01 0.774E+01 0.432E+00   -.896E-01 -.669E+00 -.908E-03
   -.143E+02 -.104E+02 -.614E+00   0.156E+02 0.134E+02 0.621E+00   -.130E+01 -.297E+01 -.749E-02
   -.593E+01 -.706E+01 -.347E+00   0.580E+01 0.774E+01 0.348E+00   0.901E-01 -.669E+00 -.294E-03
   -.833E+01 -.173E+01 -.337E-04   0.832E+01 0.179E+01 0.179E-03   -.104E+00 -.748E-01 0.570E-03
   -.951E+01 -.279E+01 -.205E+00   0.942E+01 0.332E+01 0.203E+00   0.181E-01 -.400E+00 0.140E-02
   -.137E+01 -.196E+01 -.926E-01   0.158E+01 0.235E+01 0.933E-01   -.105E+00 -.423E+00 0.161E-03
   0.299E+01 -.250E+01 -.891E-01   -.294E+01 0.276E+01 0.895E-01   -.428E-03 -.184E+00 0.790E-04
   -.392E+01 -.346E+01 -.231E+00   0.370E+01 0.361E+01 0.230E+00   0.235E+00 -.131E+00 0.297E-03
   -.713E+01 -.711E+01 -.163E+00   0.540E+01 0.722E+01 0.156E+00   0.146E+01 -.138E+00 0.418E-02
   -.236E+01 -.748E+01 -.271E+00   0.195E+01 0.809E+01 0.272E+00   0.357E+00 -.653E+00 -.169E-02
   0.283E+01 -.385E+01 -.356E+00   -.272E+01 0.389E+01 0.356E+00   0.789E-03 -.939E-01 -.942E-03
   -.678E+01 -.239E+00 -.429E+00   0.642E+01 0.435E+00 0.431E+00   0.222E+00 -.138E+00 -.239E-02
   -.397E+02 0.254E+00 0.163E+00   0.431E+02 -.651E+00 -.145E+00   -.324E+01 0.278E+00 -.184E-01
   -.122E+01 0.581E+01 -.234E+00   0.832E+00 -.620E+01 0.233E+00   0.550E+00 0.524E+00 -.573E-03
   -.309E+00 0.154E+01 -.375E+00   0.408E+00 -.148E+01 0.372E+00   -.124E+00 0.171E-01 0.229E-02
   -.249E+01 0.278E+01 -.453E+00   0.251E+01 -.307E+01 0.454E+00   0.326E-01 0.193E+00 -.180E-02
   -.292E+02 0.151E+02 -.376E+00   0.328E+02 -.157E+02 0.373E+00   -.369E+01 0.599E+00 0.479E-03
   -.331E+01 -.194E+01 -.313E+00   0.329E+01 0.123E+01 0.311E+00   -.536E-01 0.583E+00 -.470E-03
   0.626E+00 0.368E+01 -.326E+00   -.498E+00 -.398E+01 0.327E+00   -.554E-01 0.276E+00 -.110E-02
   -.482E+01 0.302E+01 -.139E+00   0.515E+01 -.316E+01 0.139E+00   -.333E+00 0.184E+00 0.112E-02
   -.896E+01 -.343E+01 -.166E+00   0.927E+01 0.369E+01 0.165E+00   -.300E+00 -.281E+00 0.197E-02
   -.909E+01 0.468E+01 -.292E+00   0.954E+01 -.459E+01 0.293E+00   -.404E+00 -.144E-01 -.135E-02
   0.168E+01 0.941E+00 0.241E-01   -.168E+01 -.100E+01 -.234E-01   -.160E-01 0.205E-01 0.505E-03
   0.317E+01 -.282E+02 0.364E+00   0.337E+00 0.338E+02 -.372E+00   -.384E+01 -.588E+01 0.131E-01
   -.316E+01 -.282E+02 0.296E-01   -.347E+00 0.338E+02 -.376E-01   0.384E+01 -.588E+01 0.100E-01
   -.982E+01 -.210E+02 0.248E+01   0.234E+02 0.237E+02 -.259E+01   -.127E+02 -.217E+01 0.987E-01
   0.982E+01 -.210E+02 0.298E+01   -.234E+02 0.237E+02 -.310E+01   0.127E+02 -.217E+01 0.122E+00
   -.298E+02 0.673E+02 -.449E+00   0.404E+02 -.861E+02 0.430E+00   -.101E+02 0.177E+02 0.126E-01
   0.297E+02 0.673E+02 -.534E+00   -.404E+02 -.860E+02 0.521E+00   0.101E+02 0.177E+02 0.692E-02
   0.163E-01 0.382E+02 0.324E+01   -.159E-01 -.458E+02 -.318E+01   -.100E-02 0.588E+01 -.620E-01
   0.961E-02 -.504E+02 0.339E+01   -.935E-02 0.529E+02 -.335E+01   -.673E-03 -.437E+00 -.479E-01
 -----------------------------------------------------------------------------------------------
   0.507E-02 -.140E+02 -.116E+00   -.359E-12 -.995E-13 0.533E-14   -.469E-02 0.126E+02 0.101E+00
 
 
 POSITION                                       TOTAL-FORCE (eV/Angst)
 -----------------------------------------------------------------------------------
      2.81629     12.52003      9.93410        -0.107004     -0.057069      0.000020
      0.70298      1.25455      9.93397        -0.058646      0.064344      0.000170
      1.39970     12.51809      9.93377         0.130257     -0.014668      0.000677
      3.52759      1.24159      9.93400         0.086326      0.101167     -0.000980
      2.84680      2.50187      9.93344         0.028835     -0.084712     -0.000850
      0.70458      3.75787      9.93427        -0.123359     -0.055344     -0.000130
      1.41683      2.50568      9.93401        -0.015897      0.015612     -0.000561
      3.59607      3.74444      9.93164         0.212795     -0.044542     -0.000293
      2.85496      4.99966      9.93194        -0.204514      0.170960     -0.000355
      0.71155      6.27012      9.93434         0.029441      0.072139     -0.000085
      1.43015      5.01223      9.93383         0.135306      0.049674     -0.000659
      3.57193      6.25656      9.93002         0.081137     -0.105996     -0.001931
      2.87733      7.52722      9.93306         0.066338     -0.112828     -0.002742
      0.70618      8.75994      9.93451        -0.071377     -0.012856      0.000172
      1.43797      7.51928      9.93434        -0.054966     -0.084746     -0.001228
      3.60205      8.79311      9.93368         0.337414      0.020959     -0.001983
      2.84422     10.02329      9.93427        -0.018222      0.077787      0.000553
      0.70331     11.26066      9.93369         0.003936     -0.038497      0.001470
      1.41457     10.01134      9.93408         0.023427      0.055190      0.001122
      3.52820     11.27781      9.93435         0.010498     -0.040304      0.000876
      7.08214     12.51295      9.93437        -0.042663     -0.041083      0.000826
      4.94640      1.21540      9.93398        -0.082612      0.024802     -0.001154
      5.66755     12.51293      9.93453         0.042977     -0.040809      0.000155
      7.80442      1.21544      9.93393         0.082592      0.025631     -0.000406
      7.09338      2.42965      9.93264         0.191293      0.159456     -0.001708
      5.65741      2.42962      9.93235        -0.191762      0.159698     -0.001358
      7.09688     10.06151      9.93456         0.126344     -0.133368     -0.000826
      4.95552     11.28541      9.93475         0.044560     -0.029697      0.000736
      5.65289     10.06148      9.93458        -0.125217     -0.133151     -0.000959
      7.79421     11.28544      9.93451        -0.043959     -0.028866      0.001383
     11.34998     12.51843      9.93366        -0.129877     -0.014126      0.000766
      9.22323      1.24170      9.93397        -0.086260      0.101361     -0.000038
      9.93340     12.52018      9.93386         0.107183     -0.056296      0.000911
     12.04784      1.25496      9.93395         0.058497      0.064350      0.000446
     11.33395      2.50601      9.93418         0.015434      0.015964      0.000011
      9.15466      3.74452      9.93256        -0.213648     -0.043848     -0.002570
      9.90399      2.50202      9.93384        -0.029436     -0.084222     -0.000778
     12.04613      3.75828      9.93448         0.122446     -0.055164     -0.000261
     11.32042      5.01255      9.93427        -0.135850      0.050030     -0.001167
      9.17845      6.25660      9.92993        -0.081586     -0.104988     -0.001644
      9.89562      4.99980      9.93263         0.203196      0.171811     -0.002125
     12.03882      6.27054      9.93450        -0.029859      0.072191     -0.000289
     11.31217      7.51959      9.93448         0.055352     -0.084337     -0.001389
      9.14787      8.79319      9.93369        -0.336586      0.021405     -0.002074
      9.87280      7.52735      9.93308        -0.065738     -0.111948     -0.002455
     12.04378      8.76035      9.93456         0.072171     -0.012359      0.000071
     11.33525     10.01166      9.93409        -0.023031      0.055536      0.000804
      9.22153     11.27791      9.93412        -0.010201     -0.040080      0.001017
      9.90559     10.02343      9.93422         0.019012      0.078624      0.000177
     12.04643     11.26107      9.93366        -0.003356     -0.038133      0.001212
      5.01814      3.69319      9.93009        -0.529620     -0.675067      0.005067
      7.73260      3.69323      9.93104         0.528260     -0.674437      0.002531
      4.90831      6.26341      9.92443        -0.223630      0.361140      0.003420
      7.84208      6.26344      9.92352         0.223757      0.361511      0.006293
      4.98399      8.84871      9.93309        -0.275592      0.523822     -0.004368
      7.76591      8.84876      9.93322         0.276399      0.524161     -0.005259
      6.37530      5.08982      9.92457        -0.000411     -1.115594      0.004514
      6.37514      7.35644      9.92230        -0.000305      0.769810      0.007223
 -----------------------------------------------------------------------------------
    total drift:                                0.000216     -0.015447     -0.000123


--------------------------------------------------------------------------------------------------------



  FREE ENERGIE OF THE ION-ELECTRON SYSTEM (eV)
  ---------------------------------------------------
  free  energy   TOTEN  =      -611.24380023 eV

  energy  without entropy=     -611.24380023  energy(sigma->0) =     -611.24380023
 


--------------------------------------------------------------------------------------------------------


    POTLOK:  cpu time    3.4429: real time    3.4429


--------------------------------------------------------------------------------------------------------


 stress matrix after NEB project (eV)
    -45.53974      0.00174      0.00027
      0.00174    -40.54776     -0.00177
      0.00027     -0.00179     -0.36874
  FORCES: max atom, RMS     1.115603    0.305195
  FORCE total and by dimension    2.324297    1.115594
  Stress total and by dimension   60.976423   45.539735
 writing wavefunctions
     LOOP+:  cpu time36880.3390: real time36883.7013
    4ORBIT:  cpu time    0.0000: real time    0.0000
 


 total charge     
 
# of ion       s       p       d       tot
------------------------------------------
    1        0.866   1.772   0.000   2.639
    2        0.863   1.756   0.000   2.620
    3        0.865   1.761   0.000   2.626
    4        0.867   1.767   0.000   2.634
    5        0.863   1.749   0.000   2.612
    6        0.862   1.748   0.000   2.610
    7        0.863   1.749   0.000   2.611
    8        0.860   1.728   0.000   2.587
    9        0.862   1.745   0.000   2.606
   10        0.856   1.739   0.000   2.596
   11        0.861   1.738   0.000   2.599
   12        0.862   1.730   0.000   2.593
   13        0.854   1.746   0.000   2.600
   14        0.862   1.753   0.000   2.614
   15        0.859   1.739   0.000   2.597
   16        0.852   1.697   0.000   2.550
   17        0.864   1.762   0.000   2.626
   18        0.864   1.759   0.000   2.623
   19        0.862   1.754   0.000   2.617
   20        0.867   1.761   0.000   2.628
   21        0.870   1.790   0.000   2.660
   22        0.874   1.794   0.000   2.668
   23        0.870   1.790   0.000   2.660
   24        0.874   1.794   0.000   2.668
   25        0.883   1.772   0.000   2.655
   26        0.883   1.772   0.000   2.655
   27        0.863   1.748   0.000   2.611
   28        0.872   1.794   0.000   2.666
   29        0.863   1.748   0.000   2.611
   30        0.872   1.794   0.000   2.666
   31        0.865   1.761   0.000   2.626
   32        0.867   1.767   0.000   2.634
   33        0.866   1.772   0.000   2.639
   34        0.863   1.756   0.000   2.620
   35        0.863   1.749   0.000   2.611
   36        0.860   1.728   0.000   2.587
   37        0.863   1.749   0.000   2.612
   38        0.862   1.748   0.000   2.610
   39        0.861   1.738   0.000   2.600
   40        0.862   1.730   0.000   2.593
   41        0.862   1.745   0.000   2.606
   42        0.856   1.739   0.000   2.596
   43        0.859   1.739   0.000   2.597
   44        0.852   1.697   0.000   2.550
   45        0.854   1.746   0.000   2.600
   46        0.862   1.753   0.000   2.614
   47        0.862   1.754   0.000   2.617
   48        0.867   1.761   0.000   2.628
   49        0.864   1.762   0.000   2.626
   50        0.864   1.759   0.000   2.623
   51        0.873   1.671   0.000   2.544
   52        0.873   1.671   0.000   2.544
   53        1.254   2.620   0.000   3.875
   54        1.254   2.620   0.000   3.875
   55        1.234   2.661   0.000   3.895
   56        1.234   2.661   0.000   3.895
   57        0.529   0.799   6.128   7.456
   58        0.560   0.989   3.761   5.309
--------------------------------------------------
tot         51.003 103.396   9.888 164.287
 


 magnetization (x)
 
# of ion       s       p       d       tot
------------------------------------------
    1        0.000   0.000   0.000   0.000
    2        0.000   0.001   0.000   0.001
    3       -0.000  -0.004   0.000  -0.004
    4        0.001   0.009   0.000   0.009
    5       -0.001  -0.004   0.000  -0.005
    6        0.000   0.001   0.000   0.001
    7       -0.000  -0.006   0.000  -0.006
    8        0.000   0.006   0.000   0.006
    9        0.002   0.015   0.000   0.017
   10        0.000   0.006   0.000   0.006
   11       -0.000  -0.002   0.000  -0.003
   12       -0.003  -0.027   0.000  -0.030
   13        0.001   0.008   0.000   0.009
   14       -0.000  -0.001   0.000  -0.002
   15       -0.000  -0.001   0.000  -0.001
   16       -0.002  -0.025   0.000  -0.027
   17        0.001   0.006   0.000   0.007
   18        0.000   0.000   0.000   0.000
   19        0.000   0.001   0.000   0.001
   20       -0.001  -0.011   0.000  -0.012
   21       -0.000   0.000   0.000   0.000
   22       -0.001  -0.006   0.000  -0.007
   23       -0.000   0.000   0.000   0.000
   24       -0.001  -0.006   0.000  -0.007
   25        0.001   0.018   0.000   0.019
   26        0.001   0.018   0.000   0.019
   27       -0.001  -0.018   0.000  -0.019
   28        0.001   0.005   0.000   0.006
   29       -0.001  -0.018   0.000  -0.019
   30        0.001   0.005   0.000   0.006
   31       -0.000  -0.004   0.000  -0.004
   32        0.001   0.009   0.000   0.009
   33        0.000   0.000   0.000   0.000
   34        0.000   0.001   0.000   0.001
   35       -0.000  -0.006   0.000  -0.006
   36        0.000   0.006   0.000   0.006
   37       -0.001  -0.004   0.000  -0.005
   38        0.000   0.001   0.000   0.001
   39       -0.000  -0.002   0.000  -0.003
   40       -0.003  -0.027   0.000  -0.030
   41        0.002   0.015   0.000   0.017
   42        0.000   0.006   0.000   0.006
   43       -0.000  -0.001   0.000  -0.001
   44       -0.002  -0.025   0.000  -0.027
   45        0.001   0.008   0.000   0.009
   46       -0.000  -0.001   0.000  -0.002
   47        0.000   0.001   0.000   0.001
   48       -0.001  -0.011   0.000  -0.012
   49        0.001   0.006   0.000   0.007
   50        0.000   0.000   0.000   0.000
   51       -0.013  -0.055   0.000  -0.067
   52       -0.013  -0.055   0.000  -0.067
   53        0.006   0.079   0.000   0.085
   54        0.006   0.079   0.000   0.085
   55        0.004   0.014   0.000   0.019
   56        0.004   0.014   0.000   0.019
   57        0.058   0.024   2.752   2.834
   58       -0.080  -0.036  -1.621  -1.737
--------------------------------------------------
tot         -0.034   0.009   1.132   1.107
 

 total amount of memory used by VASP MPI-rank0   188344. kBytes
=======================================================================

   base      :      30000. kBytes
   nonl-proj :       5316. kBytes
   fftplans  :      14250. kBytes
   grid      :      36827. kBytes
   one-center:         62. kBytes
   HF        :         23. kBytes
   nonlr-proj:      25522. kBytes
   wavefun   :      76344. kBytes
 
  
  
 General timing and accounting informations for this job:
 ========================================================
  
                  Total CPU time used (sec):    36973.844
                            User time (sec):    36918.785
                          System time (sec):       55.060
                         Elapsed time (sec):    36978.629
  
                   Maximum memory used (kb):      429052.
                   Average memory used (kb):           0.
  
                          Minor page faults:       282048
                          Major page faults:            0
                 Voluntary context switches:         1149
