 vasp.5.4.4.18Apr17-6-g9f103f2a35 (build Feb 25 2019 10:51:38) complex          
  
 executed on             LinuxIFC date 2021.06.16  07:49:20
 running on   80 total cores
 distrk:  each k-point on   40 cores,    2 groups
 distr:  one band on NCORES_PER_BAND=  40 cores,    1 groups


--------------------------------------------------------------------------------------------------------


 INCAR:
 POTCAR:    PAW_PBE C 08Apr2002                   
 POTCAR:    PAW_PBE N 08Apr2002                   
 POTCAR:    PAW_PBE Fe 06Sep2000                  
 POTCAR:    PAW_PBE Sc_sv 07Sep2000               

 ----------------------------------------------------------------------------- 
|                                                                             |
|           W    W    AA    RRRRR   N    N  II  N    N   GGGG   !!!           |
|           W    W   A  A   R    R  NN   N  II  NN   N  G    G  !!!           |
|           W    W  A    A  R    R  N N  N  II  N N  N  G       !!!           |
|           W WW W  AAAAAA  RRRRR   N  N N  II  N  N N  G  GGG   !            |
|           WW  WW  A    A  R   R   N   NN  II  N   NN  G    G                |
|           W    W  A    A  R    R  N    N  II  N    N   GGGG   !!!           |
|                                                                             |
|      For optimal performance we recommend to set                            |
|        NCORE= 4 - approx SQRT( number of cores)                             |
|      NCORE specifies how many cores store one orbital (NPAR=cpu/NCORE).     |
|      This setting can  greatly improve the performance of VASP for DFT.     |
|      The default,   NCORE=1            might be grossly inefficient         |
|      on modern multi-core architectures or massively parallel machines.     |
|      Do your own testing !!!!                                               |
|      Unfortunately you need to use the default for GW and RPA calculations. |
|      (for HF NCORE is supported but not extensively tested yet)             |
|                                                                             |
 ----------------------------------------------------------------------------- 


 ----------------------------------------------------------------------------- 
|                                                                             |
|           W    W    AA    RRRRR   N    N  II  N    N   GGGG   !!!           |
|           W    W   A  A   R    R  NN   N  II  NN   N  G    G  !!!           |
|           W    W  A    A  R    R  N N  N  II  N N  N  G       !!!           |
|           W WW W  AAAAAA  RRRRR   N  N N  II  N  N N  G  GGG   !            |
|           WW  WW  A    A  R   R   N   NN  II  N   NN  G    G                |
|           W    W  A    A  R    R  N    N  II  N    N   GGGG   !!!           |
|                                                                             |
|      You have enabled k-point parallelism (KPAR>1).                         |
|      This developmental code was originally  written by Paul Kent at ORNL,  |
|      and carefully double checked in Vienna.                                |
|      GW as well as linear response parallelism added by Martijn Marsman     |
|      and Georg Kresse.                                                      |
|      Carefully verify results versus KPAR=1.                                |
|      Report problems to Paul Kent and Vienna.                               |
|                                                                             |
 ----------------------------------------------------------------------------- 

 POTCAR:    PAW_PBE C 08Apr2002                   
   VRHFIN =C: s2p2                                                              
   LEXCH  = PE                                                                  
   EATOM  =   147.1560 eV,   10.8157 Ry                                         
                                                                                
   TITEL  = PAW_PBE C 08Apr2002                                                 
   LULTRA =        F    use ultrasoft PP ?                                      
   IUNSCR =        1    unscreen: 0-lin 1-nonlin 2-no                           
   RPACOR =    1.200    partial core radius                                     
   POMASS =   12.011; ZVAL   =    4.000    mass and valenz                      
   RCORE  =    1.500    outmost cutoff radius                                   
   RWIGS  =    1.630; RWIGS  =    0.863    wigner-seitz radius (au A)           
   ENMAX  =  400.000; ENMIN  =  300.000 eV                                      
   ICORE  =        2    local potential                                         
   LCOR   =        T    correct aug charges                                     
   LPAW   =        T    paw PP                                                  
   EAUG   =  644.873                                                            
   DEXC   =    0.000                                                            
   RMAX   =    1.529    core radius for proj-oper                               
   RAUG   =    1.300    factor for augmentation sphere                          
   RDEP   =    1.501    radius for radial grids                                 
   RDEPT  =    1.300    core radius for aug-charge                              
                                                                                
   Atomic configuration                                                         
    4 entries                                                                   
     n  l   j            E        occ.                                          
     1  0  0.50      -273.3789   2.0000                                         
     2  0  0.50       -13.7508   2.0000                                         
     2  1  0.50        -5.2854   2.0000                                         
     3  2  1.50        -5.4423   0.0000                                         
   Description                                                                  
     l       E           TYP  RCUT    TYP  RCUT                                 
     0    -13.7508458     23  1.200                                             
     0     -8.2022199     23  1.200                                             
     1     -5.2854383     23  1.500                                             
     1     34.0145650     23  1.500                                             
     2     -5.4423304      7  1.500                                             
  local pseudopotential read in
  partial core-charges read in
  partial kinetic energy density read in
  atomic valenz-charges read in
  non local Contribution for L=           0  read in
    real space projection operators read in
  non local Contribution for L=           0  read in
    real space projection operators read in
  non local Contribution for L=           1  read in
    real space projection operators read in
  non local Contribution for L=           1  read in
    real space projection operators read in
    PAW grid and wavefunctions read in
 
   number of l-projection  operators is LMAX  =           4
   number of lm-projection operators is LMMAX =           8
 
 POTCAR:    PAW_PBE N 08Apr2002                   
   VRHFIN =N: s2p3                                                              
   LEXCH  = PE                                                                  
   EATOM  =   264.5486 eV,   19.4438 Ry                                         
                                                                                
   TITEL  = PAW_PBE N 08Apr2002                                                 
   LULTRA =        F    use ultrasoft PP ?                                      
   IUNSCR =        1    unscreen: 0-lin 1-nonlin 2-no                           
   RPACOR =    1.200    partial core radius                                     
   POMASS =   14.001; ZVAL   =    5.000    mass and valenz                      
   RCORE  =    1.500    outmost cutoff radius                                   
   RWIGS  =    1.400; RWIGS  =    0.741    wigner-seitz radius (au A)           
   ENMAX  =  400.000; ENMIN  =  300.000 eV                                      
   ICORE  =        2    local potential                                         
   LCOR   =        T    correct aug charges                                     
   LPAW   =        T    paw PP                                                  
   EAUG   =  627.112                                                            
   DEXC   =    0.000                                                            
   RMAX   =    1.529    core radius for proj-oper                               
   RAUG   =    1.300    factor for augmentation sphere                          
   RDEP   =    1.514    radius for radial grids                                 
   RDEPT  =    1.338    core radius for aug-charge                              
                                                                                
   Atomic configuration                                                         
    4 entries                                                                   
     n  l   j            E        occ.                                          
     1  0  0.50      -384.7179   2.0000                                         
     2  0  0.50       -18.5828   2.0000                                         
     2  1  0.50        -7.0898   3.0000                                         
     3  2  1.50        -6.8029   0.0000                                         
   Description                                                                  
     l       E           TYP  RCUT    TYP  RCUT                                 
     0    -18.5828119     23  1.200                                             
     0    -13.5018863     23  1.200                                             
     1     -7.0897853     23  1.500                                             
     1      9.5240782     23  1.500                                             
     2     -6.8029130      7  1.500                                             
  local pseudopotential read in
  partial core-charges read in
  partial kinetic energy density read in
  atomic valenz-charges read in
  non local Contribution for L=           0  read in
    real space projection operators read in
  non local Contribution for L=           0  read in
    real space projection operators read in
  non local Contribution for L=           1  read in
    real space projection operators read in
  non local Contribution for L=           1  read in
    real space projection operators read in
    PAW grid and wavefunctions read in
 
   number of l-projection  operators is LMAX  =           4
   number of lm-projection operators is LMMAX =           8
 
 POTCAR:    PAW_PBE Fe 06Sep2000                  
   VRHFIN =Fe:  d7 s1                                                           
   LEXCH  = PE                                                                  
   EATOM  =   594.3153 eV,   43.6809 Ry                                         
                                                                                
   TITEL  = PAW_PBE Fe 06Sep2000                                                
   LULTRA =        F    use ultrasoft PP ?                                      
   IUNSCR =        1    unscreen: 0-lin 1-nonlin 2-no                           
   RPACOR =    2.000    partial core radius                                     
   POMASS =   55.847; ZVAL   =    8.000    mass and valenz                      
   RCORE  =    2.300    outmost cutoff radius                                   
   RWIGS  =    2.460; RWIGS  =    1.302    wigner-seitz radius (au A)           
   ENMAX  =  267.882; ENMIN  =  200.911 eV                                      
   RCLOC  =    1.701    cutoff for local pot                                    
   LCOR   =        T    correct aug charges                                     
   LPAW   =        T    paw PP                                                  
   EAUG   =  511.368                                                            
   DEXC   =    0.000                                                            
   RMAX   =    2.356    core radius for proj-oper                               
   RAUG   =    1.300    factor for augmentation sphere                          
   RDEP   =    2.442    radius for radial grids                                 
   RDEPT  =    1.890    core radius for aug-charge                              
                                                                                
   Atomic configuration                                                         
    9 entries                                                                   
     n  l   j            E        occ.                                          
     1  0  0.50     -6993.8440   2.0000                                         
     2  0  0.50      -814.6047   2.0000                                         
     2  1  1.50      -693.3689   6.0000                                         
     3  0  0.50       -89.4732   2.0000                                         
     3  1  1.50       -55.6373   6.0000                                         
     3  2  2.50        -3.8151   7.0000                                         
     4  0  0.50        -4.2551   1.0000                                         
     4  1  1.50        -3.4015   0.0000                                         
     4  3  2.50        -1.3606   0.0000                                         
   Description                                                                  
     l       E           TYP  RCUT    TYP  RCUT                                 
     2     -3.8151135     23  2.300                                             
     2     -5.1756961     23  2.300                                             
     0     -4.2550963     23  2.300                                             
     0      7.2035603     23  2.300                                             
     1     -2.7211652     23  2.300                                             
     1     18.4316424     23  2.300                                             
  local pseudopotential read in
  partial core-charges read in
  partial kinetic energy density read in
  atomic valenz-charges read in
  non local Contribution for L=           2  read in
    real space projection operators read in
  non local Contribution for L=           2  read in
    real space projection operators read in
  non local Contribution for L=           0  read in
    real space projection operators read in
  non local Contribution for L=           0  read in
    real space projection operators read in
  non local Contribution for L=           1  read in
    real space projection operators read in
  non local Contribution for L=           1  read in
    real space projection operators read in
    PAW grid and wavefunctions read in
 
   number of l-projection  operators is LMAX  =           6
   number of lm-projection operators is LMMAX =          18
 
 POTCAR:    PAW_PBE Sc_sv 07Sep2000               
   VRHFIN =Sc: 3p4s3d                                                           
   LEXCH  = PE                                                                  
   EATOM  =  1273.2868 eV,   93.5839 Ry                                         
                                                                                
   TITEL  = PAW_PBE Sc_sv 07Sep2000                                             
   LULTRA =        F    use ultrasoft PP ?                                      
   IUNSCR =        1    unscreen: 0-lin 1-nonlin 2-no                           
   RPACOR =    2.200    partial core radius                                     
   POMASS =   44.956; ZVAL   =   11.000    mass and valenz                      
   RCORE  =    2.500    outmost cutoff radius                                   
   RWIGS  =    2.700; RWIGS  =    1.429    wigner-seitz radius (au A)           
   ENMAX  =  222.660; ENMIN  =  166.995 eV                                      
   RCLOC  =    1.805    cutoff for local pot                                    
   LCOR   =        T    correct aug charges                                     
   LPAW   =        T    paw PP                                                  
   EAUG   =  443.063                                                            
   RMAX   =    2.551    core radius for proj-oper                               
   RAUG   =    1.300    factor for augmentation sphere                          
   RDEP   =    2.650    radius for radial grids                                 
   RDEPT  =    2.038    core radius for aug-charge                              
                                                                                
   Atomic configuration                                                         
    8 entries                                                                   
     n  l   j            E        occ.                                          
     1  0  0.50     -4394.2533   2.0000                                         
     2  0  0.50      -471.0040   2.0000                                         
     2  1  1.50      -384.9788   6.0000                                         
     3  0  0.50       -52.1410   2.0000                                         
     4  0  0.50        -3.5584   1.0000                                         
     3  1  1.50       -30.8841   6.0000                                         
     3  2  2.50        -1.3655   2.0000                                         
     4  3  2.50        -1.3606   0.0000                                         
   Description                                                                  
     l       E           TYP  RCUT    TYP  RCUT                                 
     0    -52.1409870     23  1.800                                             
     0     -3.5583698     23  2.500                                             
     1    -30.8840697     23  2.300                                             
     1      4.0817478     23  2.300                                             
     2     -1.3655397     23  2.500                                             
     2      0.3564476     23  2.500                                             
  local pseudopotential read in
  partial core-charges read in
  partial kinetic energy density read in
  atomic valenz-charges read in
  non local Contribution for L=           0  read in
    real space projection operators read in
  non local Contribution for L=           0  read in
    real space projection operators read in
  non local Contribution for L=           1  read in
    real space projection operators read in
  non local Contribution for L=           1  read in
    real space projection operators read in
  non local Contribution for L=           2  read in
    real space projection operators read in
  non local Contribution for L=           2  read in
    real space projection operators read in
    PAW grid and wavefunctions read in
 
   number of l-projection  operators is LMAX  =           6
   number of lm-projection operators is LMMAX =          18
 

 ----------------------------------------------------------------------------- 
|                                                                             |
|  ADVICE TO THIS USER RUNNING 'VASP/VAMP'   (HEAR YOUR MASTER'S VOICE ...):  |
|                                                                             |
|      You have a (more or less) 'large supercell' and for larger cells       |
|      it might be more efficient to use real space projection opertators     |
|      So try LREAL= Auto  in the INCAR   file.                               |
|      Mind:          For very  accurate calculation you might also keep the  |
|      reciprocal projection scheme          (i.e. LREAL=.FALSE.)             |
|                                                                             |
 ----------------------------------------------------------------------------- 

  PAW_PBE C 08Apr2002                   :
 energy of atom  1       EATOM= -147.1560
 kinetic energy error for atom=    0.0076 (will be added to EATOM!!)
  PAW_PBE N 08Apr2002                   :
 energy of atom  2       EATOM= -264.5486
 kinetic energy error for atom=    0.0138 (will be added to EATOM!!)
  PAW_PBE Fe 06Sep2000                  :
 energy of atom  3       EATOM= -594.3153
 kinetic energy error for atom=    0.0026 (will be added to EATOM!!)
  PAW_PBE Sc_sv 07Sep2000               :
 energy of atom  4       EATOM=-1273.2868
 kinetic energy error for atom=    0.0031 (will be added to EATOM!!)
 
 
 POSCAR:  C  N Fe Sc                             
  positions in cartesian coordinates
  No initial velocities read in
 exchange correlation table for  LEXCH =        8
   RHO(1)=    0.500       N(1)  =     2000
   RHO(2)=  100.500       N(2)  =     4000

 VTST: version 3.2, (02/03/18)

 CHAIN: initializing optimizer
 
 OPT: Using VASP Conjugate-Gradient optimizer
 CHAIN: Read ICHAIN            0
 
 POSCAR:  C  N Fe Sc                             
  positions in cartesian coordinates
  No initial velocities read in
 


--------------------------------------------------------------------------------------------------------


 ion  position               nearest neighbor table
   1  0.227  0.002  0.500-   3 1.46   4 1.46  18 1.46
   2  0.058  0.101  0.501-   7 1.42   3 1.43  33 1.45
   3  0.115  0.001  0.501-   2 1.43  16 1.44   1 1.46
   4  0.283  0.106  0.501-  20 1.46   5 1.46   1 1.46
   5  0.223  0.207  0.501-  50 1.38   7 1.45   4 1.46
   6  0.051  0.299  0.501-  10 1.41  37 1.42   7 1.43
   7  0.112  0.202  0.501-   2 1.42   6 1.43   5 1.45
   8  0.210  0.402  0.502-  50 1.39  10 1.40  11 1.41
   9  0.048  0.501  0.501-  41 1.41  14 1.42  10 1.42
  10  0.103  0.401  0.501-   8 1.40   6 1.41   9 1.42
  11  0.264  0.501  0.501-  54 1.36   8 1.41  12 1.43  58 2.65
  12  0.210  0.602  0.500-  51 1.39  14 1.40  11 1.43
  13  0.051  0.702  0.501-  14 1.41  45 1.42  17 1.44
  14  0.102  0.601  0.501-  12 1.40  13 1.41   9 1.42
  15  0.221  0.797  0.499-  51 1.37  17 1.44  18 1.46
  16  0.057  0.902  0.501-  17 1.42   3 1.44  49 1.45
  17  0.110  0.801  0.501-  16 1.42  13 1.44  15 1.44
  18  0.282  0.898  0.499-  15 1.46  28 1.46   1 1.46
  19  0.558  0.999  0.501-  22 1.43  29 1.43  21 1.44
  20  0.395  0.105  0.501-  52 1.40  21 1.45   4 1.46
  21  0.448  0.001  0.500-  19 1.44  28 1.45  20 1.45
  22  0.615  0.099  0.501-  23 1.42  19 1.43  31 1.43
  23  0.560  0.198  0.500-  52 1.39  22 1.42  24 1.44
  24  0.615  0.300  0.500-  53 1.41  35 1.41  23 1.44
  25  0.611  0.497  0.499-  55 1.39  53 1.39  39 1.44
  26  0.613  0.697  0.499-  55 1.41  43 1.42  27 1.46
  27  0.557  0.799  0.499-  56 1.40  29 1.43  26 1.46
  28  0.394  0.897  0.499-  56 1.40  21 1.45  18 1.46
  29  0.614  0.899  0.501-  27 1.43  19 1.43  47 1.43
  30  0.891  0.000  0.501-  49 1.42  33 1.42  32 1.44
  31  0.725  0.099  0.501-  36 1.41  32 1.42  22 1.43
  32  0.780  1.000  0.501-  31 1.42  47 1.42  30 1.44
  33  0.947  0.100  0.501-  30 1.42  34 1.43   2 1.45
  34  0.889  0.199  0.500-  37 1.41  33 1.43  36 1.43
  35  0.723  0.298  0.500-  24 1.41  40 1.42  36 1.43
  36  0.779  0.198  0.500-  31 1.41  35 1.43  34 1.43
  37  0.943  0.299  0.501-  34 1.41   6 1.42  38 1.43
  38  0.886  0.399  0.501-  41 1.42  40 1.42  37 1.43
  39  0.721  0.498  0.501-  40 1.42  44 1.43  25 1.44
  40  0.777  0.399  0.501-  38 1.42  35 1.42  39 1.42
  41  0.940  0.500  0.501-   9 1.41  38 1.42  42 1.42
  42  0.885  0.600  0.501-  41 1.42  44 1.42  45 1.43
  43  0.722  0.700  0.501-  26 1.42  44 1.43  48 1.43
  44  0.776  0.599  0.501-  42 1.42  43 1.43  39 1.43
  45  0.942  0.701  0.502-  46 1.42  13 1.42  42 1.43
  46  0.888  0.801  0.502-  45 1.42  49 1.43  48 1.43
  47  0.724  0.900  0.501-  48 1.41  32 1.42  29 1.43
  48  0.778  0.800  0.501-  47 1.41  43 1.43  46 1.43
  49  0.946  0.901  0.502-  30 1.42  46 1.43  16 1.45
  50  0.270  0.308  0.502-   5 1.38   8 1.39  57 1.92
  51  0.267  0.698  0.497-  15 1.37  12 1.39  58 2.13
  52  0.453  0.201  0.501-  23 1.39  20 1.40  57 1.93
  53  0.558  0.398  0.499-  25 1.39  24 1.41  57 1.99
  54  0.369  0.496  0.502-  11 1.36  57 1.87  58 1.99
  55  0.560  0.596  0.495-  25 1.39  26 1.41  58 2.13
  56  0.450  0.801  0.496-  27 1.40  28 1.40  58 2.18
  57  0.412  0.351  0.502-  54 1.87  50 1.92  52 1.93  53 1.99
  58  0.411  0.638  0.461-  54 1.99  55 2.13  51 2.13  56 2.18  11 2.65
 
  LATTYP: Found a triclinic cell.
 ALAT       =    13.0231000000
 B/A-ratio  =     1.8255770381
 C/A-ratio  =     0.9425943132
 COS(alpha) =     0.0024769069
 COS(beta)  =     0.0054139849
 COS(gamma) =     0.5489245174
  
  Lattice vectors:
  
 A1 = (  13.0231000000,   0.0000000000,   0.0000000000)
 A2 = (  13.0505005331,   0.0117677350,  19.8725776257)
 A3 = (   0.0664593715, -12.2753200937,   0.0000000000)


Analysis of symmetry for initial positions (statically):
=====================================================================
 Subroutine PRICEL returns:
 Original cell was already a primitive cell.
 

 Routine SETGRP: Setting up the symmetry group for a 
 triclinic supercell.


 Subroutine GETGRP returns: Found  1 space group operations
 (whereof  1 operations were pure point group operations)
 out of a pool of  2 trial point group operations.


The static configuration has the point symmetry C_1 .


Analysis of symmetry for dynamics (positions and initial velocities):
=====================================================================
 Subroutine PRICEL returns:
 Original cell was already a primitive cell.
 

 Routine SETGRP: Setting up the symmetry group for a 
 triclinic supercell.


 Subroutine GETGRP returns: Found  1 space group operations
 (whereof  1 operations were pure point group operations)
 out of a pool of  2 trial point group operations.


The dynamic configuration has the point symmetry C_1 .


Analysis of structural, dynamic, and magnetic symmetry:
=====================================================================
 Subroutine PRICEL returns:
 Original cell was already a primitive cell.
 

 Routine SETGRP: Setting up the symmetry group for a 
 triclinic supercell.


 Subroutine GETGRP returns: Found  1 space group operations
 (whereof  1 operations were pure point group operations)
 out of a pool of  2 trial point group operations.


The magnetic configuration has the point symmetry C_1 .


 Subroutine INISYM returns: Found  1 space group operations
 (whereof  1 operations are pure point group operations),
 and found     1 'primitive' translations

 
 
 KPOINTS: KPOINTS created by Atomic Simulation Env

Automatic generation of k-mesh.
Space group operators:
 irot       det(A)        alpha          n_x          n_y          n_z        tau_x        tau_y        tau_z
    1     1.000000     0.000001     1.000000     0.000000     0.000000     0.000000     0.000000     0.000000
 
 Subroutine IBZKPT returns following result:
 ===========================================
 
 Found      2 irreducible k-points:
 
 Following reciprocal coordinates:
            Coordinates               Weight
  0.250000  0.250000 -0.000000      2.000000
 -0.250000  0.250000  0.000000      2.000000
 
 Following cartesian coordinates:
            Coordinates               Weight
  0.019197  0.020470 -0.000039      2.000000
 -0.019197  0.020262  0.000014      2.000000
 
 
 Subroutine IBZKPT_HF returns following result:
 ==============================================
 
 Found      4 k-points in 1st BZ
 the following      4 k-points will be used (e.g. in the exchange kernel)
 Following reciprocal coordinates:   # in IRBZ
  0.250000  0.250000 -0.000000    0.25000000   1 t-inv F
 -0.250000  0.250000  0.000000    0.25000000   2 t-inv F
 -0.250000 -0.250000  0.000000    0.25000000   1 t-inv T
  0.250000 -0.250000 -0.000000    0.25000000   2 t-inv T


--------------------------------------------------------------------------------------------------------




 Dimension of arrays:
   k-points           NKPTS =      2   k-points in BZ     NKDIM =      4   number of bands    NBANDS=    159
   number of dos      NEDOS =    301   number of ions     NIONS =     58
   non local maximal  LDIM  =      6   non local SUM 2l+1 LMDIM =     18
   total plane-waves  NPLWV = ******
   max r-space proj   IRMAX =      1   max aug-charges    IRDMAX=  18216
   dimension x,y,z NGX =    96 NGY =   90 NGZ =  150
   dimension x,y,z NGXF=   192 NGYF=  180 NGZF=  300
   support grid    NGXF=   192 NGYF=  180 NGZF=  300
   ions per type =              49   7   1   1
   NGX,Y,Z   is equivalent  to a cutoff of  12.25, 12.19, 12.55 a.u.
   NGXF,Y,Z  is equivalent  to a cutoff of  24.51, 24.38, 25.10 a.u.

 SYSTEM =  unknown system                          
 POSCAR =   C  N Fe Sc                             

 Startparameter for this run:
   NWRITE =      2    write-flag & timer
   PREC   = accura    normal or accurate (medium, high low for compatibility)
   ISTART =      0    job   : 0-new  1-cont  2-samecut
   ICHARG =      2    charge: 1-file 2-atom 10-const
   ISPIN  =      2    spin polarized calculation?
   LNONCOLLINEAR =      F non collinear calculations
   LSORBIT =      F    spin-orbit coupling
   INIWAV =      1    electr: 0-lowe 1-rand  2-diag
   LASPH  =      T    aspherical Exc in radial PAW
   METAGGA=      F    non-selfconsistent MetaGGA calc.

 Electronic Relaxation 1
   ENCUT  =  500.0 eV  36.75 Ry    6.06 a.u.  23.74 22.38 36.23*2*pi/ulx,y,z
   ENINI  =  500.0     initial cutoff
   ENAUG  =  644.9 eV  augmentation charge cutoff
   NELM   =    250;   NELMIN=  2; NELMDL=  0     # of ELM steps 
   EDIFF  = 0.1E-03   stopping-criterion for ELM
   LREAL  =      F    real-space projection
   NLSPLINE    = F    spline interpolate recip. space projectors
   LCOMPAT=      F    compatible to vasp.4.4
   GGA_COMPAT  = T    GGA compatible to vasp.4.4-vasp.4.6
   LMAXPAW     = -100 max onsite density
   LMAXMIX     =    2 max onsite mixed and CHGCAR
   VOSKOWN=      0    Vosko Wilk Nusair interpolation
   ROPT   =    0.00000   0.00000   0.00000   0.00000
 Ionic relaxation
   EDIFFG = -.3E-01   stopping-criterion for IOM
   NSW    =      0    number of steps for IOM
   NBLOCK =      1;   KBLOCK =      1    inner block; outer block 
   IBRION =     -1    ionic relax: 0-MD 1-quasi-New 2-CG
   NFREE  =      1    steps in history (QN), initial steepest desc. (CG)
   ISIF   =      2    stress and relaxation
   IWAVPR =     10    prediction:  0-non 1-charg 2-wave 3-comb
   ISYM   =      3    0-nonsym 1-usesym 2-fastsym
   LCORR  =      T    Harris-Foulkes like correction to forces

   POTIM  = 0.5000    time-step for ionic-motion
   TEIN   =    0.0    initial temperature
   TEBEG  =    0.0;   TEEND  =   0.0 temperature during run
   SMASS  =  -3.00    Nose mass-parameter (am)
   estimated Nose-frequenzy (Omega)   =  0.10E-29 period in steps =****** mass=  -0.388E-26a.u.
   SCALEE = 1.0000    scale energy and forces
   NPACO  =    256;   APACO  = 16.0  distance and # of slots for P.C.
   PSTRESS=    0.0 pullay stress

  Mass of Ions in am
   POMASS =  12.01 14.00 55.85 44.96
  Ionic Valenz
   ZVAL   =   4.00  5.00  8.00 11.00
  Atomic Wigner-Seitz radii
   RWIGS  =  -1.00 -1.00 -1.00 -1.00
  virtual crystal weights 
   VCA    =   1.00  1.00  1.00  1.00
   NELECT =     250.0000    total number of electrons
   NUPDOWN=      -1.0000    fix difference up-down

 DOS related values:
   EMIN   =  10.00;   EMAX   =-10.00  energy-range for DOS
   EFERMI =   0.00
   ISMEAR =     0;   SIGMA  =   0.10  broadening in eV -4-tet -1-fermi 0-gaus

 Electronic relaxation 2 (details)
   IALGO  =     53    algorithm
   LDIAG  =      T    sub-space diagonalisation (order eigenvalues)
   LSUBROT=      F    optimize rotation matrix (better conditioning)
   TURBO    =      0    0=normal 1=particle mesh
   IRESTART =      0    0=no restart 2=restart with 2 vectors
   NREBOOT  =      0    no. of reboots
   NMIN     =      0    reboot dimension
   EREF     =   0.00    reference energy to select bands
   IMIX   =      4    mixing-type and parameters
     AMIX     =   0.40;   BMIX     =  1.00
     AMIX_MAG =   1.60;   BMIX_MAG =  1.00
     AMIN     =   0.10
     WC   =   100.;   INIMIX=   1;  MIXPRE=   1;  MAXMIX= -45

 Intra band minimization:
   WEIMIN = 0.0000     energy-eigenvalue tresh-hold
   EBREAK =  0.16E-06  absolut break condition
   DEPER  =   0.30     relativ break condition  

   TIME   =   0.20     timestep for ELM

  volume/ion in A,a.u.               =      54.77       369.63
  Fermi-wavevector in a.u.,A,eV,Ry     =   0.701543  1.325724  6.696281  0.492163
  Thomas-Fermi vector in A             =   1.785998
 
 Write flags
   LWAVE        =      T    write WAVECAR
   LDOWNSAMPLE  =      F    k-point downsampling of WAVECAR
   LCHARG       =      T    write CHGCAR
   LVTOT        =      F    write LOCPOT, total local potential
   LVHAR        =      F    write LOCPOT, Hartree potential only
   LELF         =      F    write electronic localiz. function (ELF)
   LORBIT       =     11    0 simple, 1 ext, 2 COOP (PROOUT), +10 PAW based schemes


 Dipole corrections
   LMONO  =      F    monopole corrections only (constant potential shift)
   LDIPOL =      T    correct potential (dipole corrections)
   IDIPOL =      3    1-x, 2-y, 3-z, 4-all directions 
   EPSILON=  1.0000000 bulk dielectric constant

 Exchange correlation treatment:
   GGA     =    PE    GGA type
   LEXCH   =     8    internal setting for exchange type
   VOSKOWN=      0    Vosko Wilk Nusair interpolation
   EXXOEP  =     0    0=HF, 1=EXX-LHF (local Hartree Fock) 2=EXX OEP
   LHFCALC =     T    Hartree Fock is set to
   LSYMGRAD=     F    symmetrize gradient (conserves proper symmetry)
   PRECFOCK=normal    Normal, Fast or Accurate (Low or Medium for compatibility)
   LRHFCALC=     F    long range Hartree Fock
   LRSCOR  =     F    long range correlation only (use DFT for short range part)
   LTHOMAS =     F    Thomas Fermi screening in HF
   LMODELHF=     F    short range full HF, long range fraction AEXX
   ENCUT4O =  -1.0   cutoff for four orbital integrals eV
   LMAXFOCK=     4    L truncation for augmentation on plane wave grid
   LMAXFOCKAE=  -1    L truncation for all-electron charge restoration on plane wave grid
   NMAXFOCKAE=   1    number of basis functions for all-electron charge restoration
   LFOCKAEDFT=     F  apply the AE augmentation even for DFT
   NKREDX  =     1    reduce k-point grid by
   NKREDY  =     1    reduce k-point grid by
   NKREDZ  =     1    reduce k-point grid by
   SHIFTRED=     F    shift reduced grid of Gamma
   HFKIDENT=     F    idential grid for each k-point
   ODDONLY =     F    use only odd q-grid points
   EVENONLY=     F    use only even q-grid points
   HFALPHA =   -1.0000 decay constant for conv. correction
   MCALPHA =    0.0000 extent of test-charge in conv. correction in multipole expansion
   AEXX    =    0.2500 exact exchange contribution
   HFSCREEN=    0.2000 screening length (either q_TF or 0.3 A-1)
   HFSCREENC=   0.2000 screening length for correlation (either q_TF or 0.3 A-1)
   HFRCUT  =    0.0000 spherical cutoff for potential kernel
   ALDAX   =    0.7500 LDA exchange part
   AGGAX   =    0.7500 GGA exchange part
   ALDAC   =    1.0000 LDA correlation
   AGGAC   =    1.0000 GGA correlation
   ENCUTFOCK=  -1.0 apply spherical cutoff to Coloumb kernel
   NBANDSGWLOW=     1    first orbital included in HF term
   NBLOCK_FOCK=    64    blocking factor in FOCK_ACC
 Linear response parameters
   LEPSILON=     F    determine dielectric tensor
   LRPA    =     F    only Hartree local field effects (RPA)
   LNABLA  =     F    use nabla operator in PAW spheres
   LVEL    =     F    velocity operator in full k-point grid
   LINTERFAST=   F  fast interpolation
   KINTER  =     0    interpolate to denser k-point grid
   CSHIFT  =0.1000    complex shift for real part using Kramers Kronig
   OMEGAMAX=  -1.0    maximum frequency
   DEG_THRESHOLD= 0.2000000E-02 threshold for treating states as degnerate
   RTIME   =   -0.100 relaxation time in fs
  (WPLASMAI=    0.000 imaginary part of plasma frequency in eV, 0.658/RTIME)
   DFIELD  = 0.0000000 0.0000000 0.0000000 field for delta impulse in time
 
 Orbital magnetization related:
   ORBITALMAG=     F  switch on orbital magnetization
   LCHIMAG   =     F  perturbation theory with respect to B field
   DQ        =  0.001000  dq finite difference perturbation B field
   LLRAUG    =     F  two centre corrections for induced B field



--------------------------------------------------------------------------------------------------------


 Static calculation
 charge density and potential will be updated during run
 spin polarized calculation
 Conjugate gradient for all bands (Freysoldt, et al. PRB 79, 241103 (2009))
 perform sub-space diagonalisation
    before iterative eigenvector-optimisation
 modified Broyden-mixing scheme, WC =      100.0
 initial mixing is a Kerker type mixing with AMIX =  0.4000 and BMIX =      1.0000
 Hartree-type preconditioning will be used
 using additional bands           34
 reciprocal scheme for non local part
 use partial core corrections
 no Harris-corrections to forces 
 use gradient corrections 
 use of overlap-Matrix (Vanderbilt PP)
 Gauss-broadening in eV      SIGMA  =   0.10


--------------------------------------------------------------------------------------------------------


  energy-cutoff  :      500.00
  volume of cell :     3176.88
      direct lattice vectors                 reciprocal lattice vectors
    13.023100000  0.000000000  0.000000000     0.076786633  0.000415728 -0.000106120
    -0.066459372 12.275320094  0.000000000     0.000000000  0.081464271 -0.000048240
     0.027400533  0.011767735 19.872577626     0.000000000  0.000000000  0.050320599

  length of vectors
    13.023100000 12.275500000 19.872600000     0.076787832  0.081464285  0.050320599


 
 k-points in units of 2pi/SCALE and weight: KPOINTS created by Atomic Simulation Env
   0.01919666  0.02047000 -0.00003859       0.500
  -0.01919666  0.02026214  0.00001447       0.500
 
 k-points in reciprocal lattice and weights: KPOINTS created by Atomic Simulation Env
   0.25000000  0.25000000 -0.00000000       0.500
  -0.25000000  0.25000000  0.00000000       0.500
 
 position of ions in fractional coordinates (direct lattice) 
   0.22731491  0.00184975  0.50029143
   0.05814956  0.10066154  0.50062455
   0.11541116  0.00125816  0.50076081
   0.28267794  0.10599956  0.50093837
   0.22311851  0.20676374  0.50140059
   0.05147860  0.29941105  0.50084584
   0.11162706  0.20193165  0.50075328
   0.20975763  0.40152216  0.50157158
   0.04810950  0.50080567  0.50133505
   0.10260099  0.40090792  0.50115543
   0.26438173  0.50141098  0.50142599
   0.21023710  0.60209149  0.50027734
   0.05069388  0.70179358  0.50139941
   0.10240156  0.60097021  0.50115200
   0.22064691  0.79745637  0.49940649
   0.05729308  0.90159438  0.50136063
   0.10993519  0.80078325  0.50127970
   0.28152533  0.89763874  0.49905820
   0.55804515  0.99911857  0.50063904
   0.39482556  0.10470064  0.50089679
   0.44758111  0.00072533  0.50047768
   0.61470004  0.09891498  0.50061843
   0.55969012  0.19833953  0.50031704
   0.61472453  0.30009476  0.49991867
   0.61088761  0.49679512  0.49905899
   0.61305999  0.69664875  0.49854354
   0.55716395  0.79933586  0.49885791
   0.39386000  0.89732098  0.49878952
   0.61377416  0.89910877  0.50060750
   0.89066281  0.00013952  0.50111243
   0.72467378  0.09870126  0.50059289
   0.78036475  0.99950359  0.50111927
   0.94685568  0.10004365  0.50061526
   0.88927658  0.19862748  0.50038786
   0.72332929  0.29812450  0.50019282
   0.77931435  0.19834248  0.50027514
   0.94254692  0.29917115  0.50063338
   0.88634394  0.39925767  0.50100259
   0.72135203  0.49823610  0.50080085
   0.77743718  0.39893910  0.50085212
   0.93967001  0.50022737  0.50138237
   0.88538552  0.60032521  0.50145254
   0.72196566  0.70007698  0.50056779
   0.77625220  0.59932017  0.50094184
   0.94168750  0.70102616  0.50165084
   0.88849701  0.80126053  0.50178090
   0.72395696  0.89984862  0.50129742
   0.77837027  0.80045085  0.50148922
   0.94614458  0.90073126  0.50157146
   0.26985836  0.30820780  0.50239987
   0.26740524  0.69757500  0.49718395
   0.45297798  0.20054905  0.50055736
   0.55845917  0.39757958  0.49944509
   0.36896769  0.49619447  0.50194890
   0.56011722  0.59604895  0.49527571
   0.45011451  0.80097316  0.49618261
   0.41191667  0.35140558  0.50225186
   0.41083329  0.63801929  0.46122384
 
 position of ions in cartesian coordinates  (Angst):
   2.97393014  0.02859360  9.94208036
   0.76431504  1.24154378  9.94870013
   1.51664854  0.02133709  9.95140813
   3.68802439  1.30707349  9.95493659
   2.90569196  2.54399149  9.96412222
   0.66423566  3.68126025  9.95309788
   1.45403098  2.48466832  9.95125841
   2.71875304  4.93471543  9.96752007
   0.60698841  6.15344944  9.96281968
   1.32327076  4.92717045  9.95925025
   3.42348565  6.16088092  9.96462690
   2.71163200  7.39675294  9.94180020
   0.62728929  8.62064111  9.96409879
   1.30737748  7.38299915  9.95918203
   2.83419229  9.79490904  9.92449422
   0.69995169 11.07325952  9.96332796
   1.39221279  9.83576965  9.96171965
   3.62035054 11.02467560  9.91757282
   7.21479481 12.27039164  9.94898823
   5.14861921  1.29112834  9.95411031
   5.84255869  0.01479321  9.94578154
   8.01244350  1.22010419  9.94857859
   7.28942777  2.44056885  9.94258914
   7.99937300  3.68964214  9.93467251
   7.93630816  6.10419191  9.91758849
   7.95130307  8.55745311  9.90734513
   7.21654748  9.81797398  9.91359260
   5.08330986 11.02077192  9.91223344
   7.94720493 11.04273897  9.94836140
  11.61291234  0.00760959  9.95839575
   9.44465596  1.21748046  9.94807116
  10.11007270 12.27512354  9.95853157
  12.33806449  1.23395896  9.94851565
  11.58164806  2.44410432  9.94399663
   9.41388203  3.66545978  9.94012064
  10.14961483  2.44060453  9.94175647
  12.26871769  3.67831289  9.94887572
  11.53013903  4.90691133  9.95621293
   9.37484941  6.12190087  9.95220374
  10.11185248  4.90299901  9.95322271
  12.21790989  6.14635121  9.96376016
  11.50430695  7.37508504  9.96515455
   9.36942013  8.59955954  9.94757217
  10.08310566  7.36274191  9.95500565
  12.23084618  8.61122383  9.96909524
  11.53148323  9.84163431  9.97167985
   9.38209637 11.05182902  9.96207197
  10.09733744  9.83169179  9.96588345
  12.27561681 11.06266692  9.96751785
   3.50767516  3.78926147  9.98398048
   3.44970792  8.56880708  9.88032656
   5.89956471  2.46769421  9.94736499
   7.26013181  4.88629397  9.92526135
   4.78587996  6.09685270  9.97501856
   7.26842036  7.32251990  9.84240504
   5.82224982  9.83804089  9.86042741
   5.35483974  4.31952628  9.98103916
   5.32055845  7.83731862  9.16570665
 


--------------------------------------------------------------------------------------------------------


 k-point  1 :   0.2500 0.2500-0.0000  plane waves:   80624
 k-point  2 :  -0.2500 0.2500 0.0000  plane waves:   80658

 maximum and minimum number of plane-waves per node :      2047     1991

 maximum number of plane-waves:     80658
 maximum index in each direction: 
   IXMAX=   23   IYMAX=   22   IZMAX=   36
   IXMIN=  -23   IYMIN=  -22   IZMIN=  -36


 parallel 3D FFT for wavefunctions:
    minimum data exchange during FFTs selected (reduces bandwidth)
 parallel 3D FFT for charge:
    minimum data exchange during FFTs selected (reduces bandwidth)


 FFT grid for exact exchange (Hartree Fock) 
  NGX = 72; NGY = 70; NGZ =112

 
 Radii for the augmentation spheres in the non-local exchange
 for species   1 augmentation radius   0.874 (default was   0.699)
       energy cutoff for augmentation   2000.0
 for species   2 augmentation radius   0.886 (default was   0.709)
       energy cutoff for augmentation   2000.0
 for species   3 augmentation radius   1.263 (default was   1.010)
       energy cutoff for augmentation   2000.0
 for species   4 augmentation radius   1.357 (default was   1.085)
       energy cutoff for augmentation   2000.0

 real space projection operators:
  total allocation   :       2593.12 KBytes
  max/ min on nodes  :        117.52         18.15

 Maximum index for augmentation-charges in exchange           80
  SETUP_FOCK is finished

 total amount of memory used by VASP MPI-rank0   140339. kBytes
=======================================================================

   base      :      30000. kBytes
   nonl-proj :       4274. kBytes
   fftplans  :      11188. kBytes
   grid      :      29312. kBytes
   one-center:         62. kBytes
   HF        :         23. kBytes
   nonlr-proj:       1952. kBytes
   wavefun   :      63528. kBytes
 
     INWAV:  cpu time    0.0000: real time    0.0003
 Broyden mixing: mesh for mixing (old mesh)
   NGX = 47   NGY = 45   NGZ = 73
  (NGX  =192   NGY  =180   NGZ  =300)
  gives a total of 154395 points

 initial charge density was supplied:
 charge density of overlapping atoms calculated
 number of electron     250.0000000 magnetization       7.0000000
 charge density for first step will be calculated from the start-wavefunctions


--------------------------------------------------------------------------------------------------------


 Maximum index for augmentation-charges          811 (set IRDMAX)


--------------------------------------------------------------------------------------------------------


 First call to EWALD:  gamma=   0.121
 Maximum number of real-space cells 3x 3x 2
 Maximum number of reciprocal cells 2x 2x 4

    FEWALD:  cpu time    0.0021: real time    0.0021


--------------------------------------- Iteration      1(   1)  ---------------------------------------


    POTLOK:  cpu time    1.0626: real time    1.0822
    SETDIJ:  cpu time    1.1804: real time    1.1843
    TRIAL :  cpu time    4.2720: real time    4.3149
    CORREC:  cpu time    0.0009: real time    0.0009
    --------------------------------------------
      LOOP:  cpu time    6.5376: real time    6.6058

 eigenvalue-minimisations  :  1892
 total energy-change (2. order) : 0.4364178E+04  (-0.7311683E+04)
 number of electron     250.0000000 magnetization       7.0000000
 augmentation part      250.0000000 magnetization       7.0000000

 DIPCOR: dipole corrections for dipol
 direction  3 min pos     1,
 dipolmoment           0.000000      0.000000      0.000028 electrons x Angstroem
 Tr[quadrupol]     -6782.634250

 energy correction for charged system         0.000000 eV
 dipol+quadrupol energy correction            0.000000 eV
 added-field ion interaction          0.000000 eV  (added to PSCEN)


 Free energy of the ion-electron system (eV)
  ---------------------------------------------------
  alpha Z        PSCENC =       108.49088586
  Ewald energy   TEWEN  =     40276.32219353
  -Hartree energ DENC   =    -48602.02542671
  -exchange      EXHF   =         0.00000000
  -V(xc)+E(xc)   XCENC  =       645.43074622
  PAW double counting   =      8450.19742547    -8469.84694782
  entropy T*S    EENTRO =        -0.05755418
  eigenvalues    EBANDS =      1138.53408487
  atomic energy  EATOM  =     10817.13260163
  ---------------------------------------------------
  free energy    TOTEN  =      4364.17800886 eV

  energy without entropy =     4364.23556305  energy(sigma->0) =     4364.20678596
  exchange ACFDT corr.  =         0.00000000  see jH, gK, PRB 81, 115126


--------------------------------------------------------------------------------------------------------




--------------------------------------- Iteration      1(   2)  ---------------------------------------


    TRIAL :  cpu time    5.3967: real time    5.4149
    CORREC:  cpu time    0.0009: real time    0.0009
    --------------------------------------------
      LOOP:  cpu time    5.3979: real time    5.4161

 eigenvalue-minimisations  :  2530
 total energy-change (2. order) :-0.2257577E+04  (-0.2100246E+04)
 number of electron     250.0000000 magnetization       7.0000000
 augmentation part      250.0000000 magnetization       7.0000000

 DIPCOR: dipole corrections for dipol
 direction  3 min pos     1,
 dipolmoment           0.000000      0.000000      0.000028 electrons x Angstroem
 Tr[quadrupol]     -6782.634250

 energy correction for charged system         0.000000 eV
 dipol+quadrupol energy correction            0.000000 eV
 added-field ion interaction          0.000000 eV  (added to PSCEN)


 Free energy of the ion-electron system (eV)
  ---------------------------------------------------
  alpha Z        PSCENC =       108.49088586
  Ewald energy   TEWEN  =     40276.32219353
  -Hartree energ DENC   =    -48602.02542671
  -exchange      EXHF   =         0.00000000
  -V(xc)+E(xc)   XCENC  =       645.43074622
  PAW double counting   =      8450.19742547    -8469.84694782
  entropy T*S    EENTRO =        -0.10016686
  eigenvalues    EBANDS =     -1119.00058808
  atomic energy  EATOM  =     10817.13260163
  ---------------------------------------------------
  free energy    TOTEN  =      2106.60072323 eV

  energy without entropy =     2106.70089009  energy(sigma->0) =     2106.65080666
  exchange ACFDT corr.  =         0.00000000  see jH, gK, PRB 81, 115126


--------------------------------------------------------------------------------------------------------




--------------------------------------- Iteration      1(   3)  ---------------------------------------


    TRIAL :  cpu time    5.3300: real time    5.3480
    CORREC:  cpu time    0.0008: real time    0.0008
    --------------------------------------------
      LOOP:  cpu time    5.3315: real time    5.3500

 eigenvalue-minimisations  :  2512
 total energy-change (2. order) :-0.1174706E+04  (-0.1099176E+04)
 number of electron     250.0000000 magnetization       7.0000000
 augmentation part      250.0000000 magnetization       7.0000000

 DIPCOR: dipole corrections for dipol
 direction  3 min pos     1,
 dipolmoment           0.000000      0.000000      0.000028 electrons x Angstroem
 Tr[quadrupol]     -6782.634250

 energy correction for charged system         0.000000 eV
 dipol+quadrupol energy correction            0.000000 eV
 added-field ion interaction          0.000000 eV  (added to PSCEN)


 Free energy of the ion-electron system (eV)
  ---------------------------------------------------
  alpha Z        PSCENC =       108.49088586
  Ewald energy   TEWEN  =     40276.32219353
  -Hartree energ DENC   =    -48602.02542671
  -exchange      EXHF   =         0.00000000
  -V(xc)+E(xc)   XCENC  =       645.43074622
  PAW double counting   =      8450.19742547    -8469.84694782
  entropy T*S    EENTRO =        -0.09544323
  eigenvalues    EBANDS =     -2293.71101930
  atomic energy  EATOM  =     10817.13260163
  ---------------------------------------------------
  free energy    TOTEN  =       931.89501564 eV

  energy without entropy =      931.99045887  energy(sigma->0) =      931.94273726
  exchange ACFDT corr.  =         0.00000000  see jH, gK, PRB 81, 115126


--------------------------------------------------------------------------------------------------------




--------------------------------------- Iteration      1(   4)  ---------------------------------------


    TRIAL :  cpu time    5.4070: real time    5.4344
    CORREC:  cpu time    0.0009: real time    0.0009
    --------------------------------------------
      LOOP:  cpu time    5.4081: real time    5.4369

 eigenvalue-minimisations  :  2544
 total energy-change (2. order) :-0.5353301E+03  (-0.5052625E+03)
 number of electron     250.0000000 magnetization       7.0000000
 augmentation part      250.0000000 magnetization       7.0000000

 DIPCOR: dipole corrections for dipol
 direction  3 min pos     1,
 dipolmoment           0.000000      0.000000      0.000028 electrons x Angstroem
 Tr[quadrupol]     -6782.634250

 energy correction for charged system         0.000000 eV
 dipol+quadrupol energy correction            0.000000 eV
 added-field ion interaction          0.000000 eV  (added to PSCEN)


 Free energy of the ion-electron system (eV)
  ---------------------------------------------------
  alpha Z        PSCENC =       108.49088586
  Ewald energy   TEWEN  =     40276.32219353
  -Hartree energ DENC   =    -48602.02542671
  -exchange      EXHF   =         0.00000000
  -V(xc)+E(xc)   XCENC  =       645.43074622
  PAW double counting   =      8450.19742547    -8469.84694782
  entropy T*S    EENTRO =        -0.06482399
  eigenvalues    EBANDS =     -2829.07169577
  atomic energy  EATOM  =     10817.13260163
  ---------------------------------------------------
  free energy    TOTEN  =       396.56495841 eV

  energy without entropy =      396.62978240  energy(sigma->0) =      396.59737041
  exchange ACFDT corr.  =         0.00000000  see jH, gK, PRB 81, 115126


--------------------------------------------------------------------------------------------------------




--------------------------------------- Iteration      1(   5)  ---------------------------------------


    TRIAL :  cpu time    5.3261: real time    5.3431
    CORREC:  cpu time    0.0008: real time    0.0008
    CHARGE:  cpu time    0.9293: real time    0.9329
    --------------------------------------------
      LOOP:  cpu time    6.2565: real time    6.2772

 eigenvalue-minimisations  :  2520
 total energy-change (2. order) :-0.2620001E+03  (-0.2492781E+03)
 number of electron     250.0000010 magnetization       2.8774604
 augmentation part       12.5561275 magnetization       1.7282310

 DIPCOR: dipole corrections for dipol
 direction  3 min pos     1,
 dipolmoment           0.000000      0.000000      0.000028 electrons x Angstroem
 Tr[quadrupol]     -6782.634250

 energy correction for charged system         0.000000 eV
 dipol+quadrupol energy correction            0.000000 eV
 added-field ion interaction          0.000000 eV  (added to PSCEN)


 Free energy of the ion-electron system (eV)
  ---------------------------------------------------
  alpha Z        PSCENC =       108.49088586
  Ewald energy   TEWEN  =     40276.32219353
  -Hartree energ DENC   =    -48602.02542671
  -exchange      EXHF   =         0.00000000
  -V(xc)+E(xc)   XCENC  =       645.43074622
  PAW double counting   =      8450.19742547    -8469.84694782
  entropy T*S    EENTRO =        -0.04693987
  eigenvalues    EBANDS =     -3091.08972176
  atomic energy  EATOM  =     10817.13260163
  ---------------------------------------------------
  free energy    TOTEN  =       134.56481654 eV

  energy without entropy =      134.61175642  energy(sigma->0) =      134.58828648
  exchange ACFDT corr.  =         0.00000000  see jH, gK, PRB 81, 115126


--------------------------------------------------------------------------------------------------------




--------------------------------------- Iteration      1(   6)  ---------------------------------------


    POTLOK:  cpu time    1.0593: real time    1.0666
    SETDIJ:  cpu time    1.1784: real time    1.1850
    TRIAL :  cpu time  201.0823: real time  201.6947
    CORREC:  cpu time    0.0007: real time    0.0007
    CHARGE:  cpu time    0.9167: real time    0.9190
    --------------------------------------------
      LOOP:  cpu time  204.2390: real time  204.8675

 eigenvalue-minimisations  :     0
 total energy-change (2. order) :-0.4658549E+03  (-0.4000156E+03)
 number of electron     250.0000008 magnetization       0.4258580
 augmentation part       14.7869932 magnetization       0.7628757

 DIPCOR: dipole corrections for dipol
 direction  3 min pos     1,
 dipolmoment          -0.001785     -0.000767     -1.294799 electrons x Angstroem
 Tr[quadrupol]     -6493.028100

 energy correction for charged system         0.000000 eV
 dipol+quadrupol energy correction            0.047947 eV
 added-field ion interaction          0.000000 eV  (added to PSCEN)


 Free energy of the ion-electron system (eV)
  ---------------------------------------------------
  alpha Z        PSCENC =       108.53883270
  Ewald energy   TEWEN  =     40276.32219353
  -Hartree energ DENC   =    -45434.00442737
  -exchange      EXHF   =       536.37730361
  -V(xc)+E(xc)   XCENC  =       637.12930813
  PAW double counting   =     27639.76426195   -27662.29226222
  entropy T*S    EENTRO =        -0.03637874
  eigenvalues    EBANDS =     -7250.21092124
  atomic energy  EATOM  =     10817.13260163
  ---------------------------------------------------
  free energy    TOTEN  =      -331.29004915 eV

  energy without entropy =     -331.25367041  energy(sigma->0) =     -331.27185978
  exchange ACFDT corr.  =        -0.04057748  see jH, gK, PRB 81, 115126


--------------------------------------------------------------------------------------------------------




--------------------------------------- Iteration      1(   7)  ---------------------------------------


    POTLOK:  cpu time    1.0730: real time    1.0768
    SETDIJ:  cpu time    1.1848: real time    1.1886
    TRIAL :  cpu time  200.6938: real time  201.2817
    CORREC:  cpu time    0.0008: real time    0.0008
    CHARGE:  cpu time    0.9221: real time    0.9248
    --------------------------------------------
      LOOP:  cpu time  203.8765: real time  204.4794

 eigenvalue-minimisations  :     0
 total energy-change (2. order) :-0.1590092E+03  (-0.1340493E+03)
 number of electron     250.0000010 magnetization       3.7366270
 augmentation part       13.0560800 magnetization       1.8512927

 DIPCOR: dipole corrections for dipol
 direction  3 min pos     1,
 dipolmoment           0.001085      0.000466      0.787153 electrons x Angstroem
 Tr[quadrupol]     -6749.423886

 energy correction for charged system         0.000000 eV
 dipol+quadrupol energy correction            0.017720 eV
 added-field ion interaction          0.000000 eV  (added to PSCEN)


 Free energy of the ion-electron system (eV)
  ---------------------------------------------------
  alpha Z        PSCENC =       108.50860628
  Ewald energy   TEWEN  =     40276.32219353
  -Hartree energ DENC   =    -48970.23036345
  -exchange      EXHF   =       569.50608840
  -V(xc)+E(xc)   XCENC  =       664.46048953
  PAW double counting   =     28497.48226282   -28543.94253895
  entropy T*S    EENTRO =        -0.02936452
  eigenvalues    EBANDS =     -3909.50221054
  atomic energy  EATOM  =     10817.13260163
  ---------------------------------------------------
  free energy    TOTEN  =      -490.29924950 eV

  energy without entropy =     -490.26988498  energy(sigma->0) =     -490.28456724
  exchange ACFDT corr.  =        -1.89516803  see jH, gK, PRB 81, 115126


--------------------------------------------------------------------------------------------------------




--------------------------------------- Iteration      1(   8)  ---------------------------------------


    POTLOK:  cpu time    1.0751: real time    1.0796
    SETDIJ:  cpu time    1.1872: real time    1.1924
    TRIAL :  cpu time  200.8745: real time  201.4739
    CORREC:  cpu time    0.0008: real time    0.0008
    CHARGE:  cpu time    0.9212: real time    0.9235
    --------------------------------------------
      LOOP:  cpu time  204.0614: real time  204.6770

 eigenvalue-minimisations  :     0
 total energy-change (2. order) :-0.4227450E+02  (-0.5401968E+02)
 number of electron     250.0000009 magnetization       2.2695676
 augmentation part       13.6705073 magnetization       1.5237465

 DIPCOR: dipole corrections for dipol
 direction  3 min pos     1,
 dipolmoment           0.000063      0.000027      0.045958 electrons x Angstroem
 Tr[quadrupol]     -6748.341500

 energy correction for charged system         0.000000 eV
 dipol+quadrupol energy correction            0.000060 eV
 added-field ion interaction          0.000000 eV  (added to PSCEN)


 Free energy of the ion-electron system (eV)
  ---------------------------------------------------
  alpha Z        PSCENC =       108.49094627
  Ewald energy   TEWEN  =     40276.32219353
  -Hartree energ DENC   =    -48896.25781394
  -exchange      EXHF   =       572.82186861
  -V(xc)+E(xc)   XCENC  =       664.60577794
  PAW double counting   =     28019.65569610   -28038.91698258
  entropy T*S    EENTRO =        -0.04148187
  eigenvalues    EBANDS =     -4056.39866865
  atomic energy  EATOM  =     10817.13260163
  ---------------------------------------------------
  free energy    TOTEN  =      -532.57374563 eV

  energy without entropy =     -532.53226376  energy(sigma->0) =     -532.55300470
  exchange ACFDT corr.  =        -1.59093567  see jH, gK, PRB 81, 115126


--------------------------------------------------------------------------------------------------------




--------------------------------------- Iteration      1(   9)  ---------------------------------------


    POTLOK:  cpu time    1.0762: real time    1.0799
    SETDIJ:  cpu time    1.1926: real time    1.1960
    TRIAL :  cpu time  201.3935: real time  202.9031
    CORREC:  cpu time    0.0008: real time    0.0008
    CHARGE:  cpu time    0.9179: real time    0.9202
    --------------------------------------------
      LOOP:  cpu time  204.5832: real time  206.1070

 eigenvalue-minimisations  :     0
 total energy-change (2. order) :-0.3441795E+02  (-0.2290473E+02)
 number of electron     250.0000008 magnetization       1.8382265
 augmentation part       13.7886928 magnetization       1.3908496

 DIPCOR: dipole corrections for dipol
 direction  3 min pos     1,
 dipolmoment           0.000834      0.000358      0.604747 electrons x Angstroem
 Tr[quadrupol]     -6759.601724

 energy correction for charged system         0.000000 eV
 dipol+quadrupol energy correction            0.010459 eV
 added-field ion interaction          0.000000 eV  (added to PSCEN)


 Free energy of the ion-electron system (eV)
  ---------------------------------------------------
  alpha Z        PSCENC =       108.50134518
  Ewald energy   TEWEN  =     40276.32219353
  -Hartree energ DENC   =    -49120.46609051
  -exchange      EXHF   =       575.30499157
  -V(xc)+E(xc)   XCENC  =       665.68294215
  PAW double counting   =     28256.51072834   -28288.17357322
  entropy T*S    EENTRO =        -0.03146610
  eigenvalues    EBANDS =     -3857.76534745
  atomic energy  EATOM  =     10817.13260163
  ---------------------------------------------------
  free energy    TOTEN  =      -566.99169066 eV

  energy without entropy =     -566.96022457  energy(sigma->0) =     -566.97595761
  exchange ACFDT corr.  =        -2.36525794  see jH, gK, PRB 81, 115126


--------------------------------------------------------------------------------------------------------




--------------------------------------- Iteration      1(  10)  ---------------------------------------


    POTLOK:  cpu time    1.0805: real time    1.0842
    SETDIJ:  cpu time    1.1988: real time    1.2041
    TRIAL :  cpu time  200.2981: real time  200.8860
    CORREC:  cpu time    0.0008: real time    0.0008
    CHARGE:  cpu time    0.9192: real time    0.9220
    --------------------------------------------
      LOOP:  cpu time  203.5002: real time  204.1039

 eigenvalue-minimisations  :     0
 total energy-change (2. order) :-0.1440217E+02  (-0.2317001E+02)
 number of electron     250.0000009 magnetization       2.7195438
 augmentation part       13.2057210 magnetization       1.7181708

 DIPCOR: dipole corrections for dipol
 direction  3 min pos     1,
 dipolmoment           0.001088      0.000467      0.789259 electrons x Angstroem
 Tr[quadrupol]     -6780.204566

 energy correction for charged system         0.000000 eV
 dipol+quadrupol energy correction            0.017815 eV
 added-field ion interaction          0.000000 eV  (added to PSCEN)


 Free energy of the ion-electron system (eV)
  ---------------------------------------------------
  alpha Z        PSCENC =       108.50870123
  Ewald energy   TEWEN  =     40276.32219353
  -Hartree energ DENC   =    -49353.55049644
  -exchange      EXHF   =       577.63589963
  -V(xc)+E(xc)   XCENC  =       666.47051210
  PAW double counting   =     28455.74921986   -28492.28340726
  entropy T*S    EENTRO =        -0.02862923
  eigenvalues    EBANDS =     -3637.34761678
  atomic energy  EATOM  =     10817.13260163
  ---------------------------------------------------
  free energy    TOTEN  =      -581.39385859 eV

  energy without entropy =     -581.36522937  energy(sigma->0) =     -581.37954398
  exchange ACFDT corr.  =        -1.23932180  see jH, gK, PRB 81, 115126


--------------------------------------------------------------------------------------------------------




--------------------------------------- Iteration      1(  11)  ---------------------------------------


    POTLOK:  cpu time    1.0879: real time    1.0922
    SETDIJ:  cpu time    1.1797: real time    1.1826
    TRIAL :  cpu time  200.2662: real time  200.8626
    CORREC:  cpu time    0.0008: real time    0.0008
    CHARGE:  cpu time    0.9177: real time    0.9201
    --------------------------------------------
      LOOP:  cpu time  203.4541: real time  204.0642

 eigenvalue-minimisations  :     0
 total energy-change (2. order) :-0.1073350E+02  (-0.7270278E+01)
 number of electron     250.0000009 magnetization       2.2976063
 augmentation part       13.2940860 magnetization       1.6098523

 DIPCOR: dipole corrections for dipol
 direction  3 min pos     1,
 dipolmoment           0.000735      0.000316      0.533271 electrons x Angstroem
 Tr[quadrupol]     -6789.102203

 energy correction for charged system         0.000000 eV
 dipol+quadrupol energy correction            0.008133 eV
 added-field ion interaction          0.000000 eV  (added to PSCEN)


 Free energy of the ion-electron system (eV)
  ---------------------------------------------------
  alpha Z        PSCENC =       108.49901888
  Ewald energy   TEWEN  =     40276.32219353
  -Hartree energ DENC   =    -49389.11384202
  -exchange      EXHF   =       578.55529725
  -V(xc)+E(xc)   XCENC  =       666.17735755
  PAW double counting   =     28234.00371129   -28261.17618033
  entropy T*S    EENTRO =        -0.02484937
  eigenvalues    EBANDS =     -3622.49888529
  atomic energy  EATOM  =     10817.13260163
  ---------------------------------------------------
  free energy    TOTEN  =      -592.12735675 eV

  energy without entropy =     -592.10250739  energy(sigma->0) =     -592.11493207
  exchange ACFDT corr.  =        -1.17825722  see jH, gK, PRB 81, 115126


--------------------------------------------------------------------------------------------------------




--------------------------------------- Iteration      1(  12)  ---------------------------------------


    POTLOK:  cpu time    1.0927: real time    1.0980
    SETDIJ:  cpu time    1.1898: real time    1.1932
    TRIAL :  cpu time  200.0857: real time  200.6795
    CORREC:  cpu time    0.0007: real time    0.0007
    CHARGE:  cpu time    0.9144: real time    0.9168
    --------------------------------------------
      LOOP:  cpu time  203.2850: real time  203.8945

 eigenvalue-minimisations  :     0
 total energy-change (2. order) :-0.5444701E+01  (-0.4750876E+01)
 number of electron     250.0000008 magnetization       2.0083513
 augmentation part       13.4248393 magnetization       1.5184700

 DIPCOR: dipole corrections for dipol
 direction  3 min pos     1,
 dipolmoment           0.000875      0.000376      0.634266 electrons x Angstroem
 Tr[quadrupol]     -6792.065258

 energy correction for charged system         0.000000 eV
 dipol+quadrupol energy correction            0.011505 eV
 added-field ion interaction          0.000000 eV  (added to PSCEN)


 Free energy of the ion-electron system (eV)
  ---------------------------------------------------
  alpha Z        PSCENC =       108.50239117
  Ewald energy   TEWEN  =     40276.32219353
  -Hartree energ DENC   =    -49432.72088329
  -exchange      EXHF   =       579.39202739
  -V(xc)+E(xc)   XCENC  =       666.34165975
  PAW double counting   =     28091.01081806   -28119.58309636
  entropy T*S    EENTRO =        -0.00166347
  eigenvalues    EBANDS =     -3583.94491981
  atomic energy  EATOM  =     10817.13260163
  ---------------------------------------------------
  free energy    TOTEN  =      -597.57205730 eV

  energy without entropy =     -597.57039383  energy(sigma->0) =     -597.57122557
  exchange ACFDT corr.  =        -1.11173096  see jH, gK, PRB 81, 115126


--------------------------------------------------------------------------------------------------------




--------------------------------------- Iteration      1(  13)  ---------------------------------------


    POTLOK:  cpu time    1.0926: real time    1.0967
    SETDIJ:  cpu time    1.1636: real time    1.1664
    TRIAL :  cpu time  200.1571: real time  200.7604
    CORREC:  cpu time    0.0007: real time    0.0007
    CHARGE:  cpu time    0.9140: real time    0.9171
    --------------------------------------------
      LOOP:  cpu time  203.3300: real time  203.9479

 eigenvalue-minimisations  :     0
 total energy-change (2. order) :-0.3262899E+01  (-0.3117044E+01)
 number of electron     250.0000008 magnetization       2.0006611
 augmentation part       13.3780271 magnetization       1.5139782

 DIPCOR: dipole corrections for dipol
 direction  3 min pos     1,
 dipolmoment           0.001003      0.000431      0.727419 electrons x Angstroem
 Tr[quadrupol]     -6794.036274

 energy correction for charged system         0.000000 eV
 dipol+quadrupol energy correction            0.015133 eV
 added-field ion interaction          0.000000 eV  (added to PSCEN)


 Free energy of the ion-electron system (eV)
  ---------------------------------------------------
  alpha Z        PSCENC =       108.50601885
  Ewald energy   TEWEN  =     40276.32219353
  -Hartree energ DENC   =    -49478.05774471
  -exchange      EXHF   =       580.48240085
  -V(xc)+E(xc)   XCENC  =       666.84257094
  PAW double counting   =     28037.02406285   -28067.83926387
  entropy T*S    EENTRO =        -0.00016732
  eigenvalues    EBANDS =     -3541.24613323
  atomic energy  EATOM  =     10817.13260163
  ---------------------------------------------------
  free energy    TOTEN  =      -600.83495663 eV

  energy without entropy =     -600.83478931  energy(sigma->0) =     -600.83487297
  exchange ACFDT corr.  =        -0.81227362  see jH, gK, PRB 81, 115126


--------------------------------------------------------------------------------------------------------




--------------------------------------- Iteration      1(  14)  ---------------------------------------


    POTLOK:  cpu time    1.1021: real time    1.1068
    SETDIJ:  cpu time    1.1823: real time    1.1852
    TRIAL :  cpu time  199.6859: real time  200.2811
    CORREC:  cpu time    0.0006: real time    0.0006
    CHARGE:  cpu time    0.9545: real time    0.9571
    --------------------------------------------
      LOOP:  cpu time  202.9271: real time  203.5375

 eigenvalue-minimisations  :     0
 total energy-change (2. order) :-0.2630441E+01  (-0.2204695E+01)
 number of electron     250.0000008 magnetization       2.0000502
 augmentation part       13.3261575 magnetization       1.5048510

 DIPCOR: dipole corrections for dipol
 direction  3 min pos     1,
 dipolmoment           0.001000      0.000430      0.725481 electrons x Angstroem
 Tr[quadrupol]     -6795.743615

 energy correction for charged system         0.000000 eV
 dipol+quadrupol energy correction            0.015052 eV
 added-field ion interaction          0.000000 eV  (added to PSCEN)


 Free energy of the ion-electron system (eV)
  ---------------------------------------------------
  alpha Z        PSCENC =       108.50593831
  Ewald energy   TEWEN  =     40276.32219353
  -Hartree energ DENC   =    -49506.06136550
  -exchange      EXHF   =       581.32839072
  -V(xc)+E(xc)   XCENC  =       667.27117725
  PAW double counting   =     28014.40768930   -28044.40171762
  entropy T*S    EENTRO =        -0.00001477
  eigenvalues    EBANDS =     -3517.97013793
  atomic energy  EATOM  =     10817.13260163
  ---------------------------------------------------
  free energy    TOTEN  =      -603.46539765 eV

  energy without entropy =     -603.46538288  energy(sigma->0) =     -603.46539026
  exchange ACFDT corr.  =        -0.66980350  see jH, gK, PRB 81, 115126


--------------------------------------------------------------------------------------------------------




--------------------------------------- Iteration      1(  15)  ---------------------------------------


    POTLOK:  cpu time    1.1105: real time    1.1184
    SETDIJ:  cpu time    1.1799: real time    1.1849
    TRIAL :  cpu time  199.7561: real time  200.3443
    CORREC:  cpu time    0.0006: real time    0.0006
    CHARGE:  cpu time    0.9132: real time    0.9156
    --------------------------------------------
      LOOP:  cpu time  202.9620: real time  203.5699

 eigenvalue-minimisations  :     0
 total energy-change (2. order) :-0.1835525E+01  (-0.1425038E+01)
 number of electron     250.0000008 magnetization       2.0000001
 augmentation part       13.3379872 magnetization       1.4956358

 DIPCOR: dipole corrections for dipol
 direction  3 min pos     1,
 dipolmoment           0.000987      0.000424      0.715539 electrons x Angstroem
 Tr[quadrupol]     -6796.914403

 energy correction for charged system         0.000000 eV
 dipol+quadrupol energy correction            0.014643 eV
 added-field ion interaction          0.000000 eV  (added to PSCEN)


 Free energy of the ion-electron system (eV)
  ---------------------------------------------------
  alpha Z        PSCENC =       108.50552859
  Ewald energy   TEWEN  =     40276.32219353
  -Hartree energ DENC   =    -49525.03610168
  -exchange      EXHF   =       581.95738708
  -V(xc)+E(xc)   XCENC  =       667.59443831
  PAW double counting   =     28012.63634180   -28041.66443588
  entropy T*S    EENTRO =        -0.00000009
  eigenvalues    EBANDS =     -3502.74886084
  atomic energy  EATOM  =     10817.13260163
  ---------------------------------------------------
  free energy    TOTEN  =      -605.30092224 eV

  energy without entropy =     -605.30092215  energy(sigma->0) =     -605.30092219
  exchange ACFDT corr.  =        -0.66874290  see jH, gK, PRB 81, 115126


--------------------------------------------------------------------------------------------------------




--------------------------------------- Iteration      1(  16)  ---------------------------------------


    POTLOK:  cpu time    1.1075: real time    1.1129
    SETDIJ:  cpu time    1.1630: real time    1.1659
    TRIAL :  cpu time  199.7169: real time  200.3028
    CORREC:  cpu time    0.0004: real time    0.0004
    CHARGE:  cpu time    0.9110: real time    0.9136
    --------------------------------------------
      LOOP:  cpu time  202.9007: real time  203.5017

 eigenvalue-minimisations  :     0
 total energy-change (2. order) :-0.1249532E+01  (-0.1006234E+01)
 number of electron     250.0000008 magnetization       2.0000000
 augmentation part       13.3761995 magnetization       1.4894170

 DIPCOR: dipole corrections for dipol
 direction  3 min pos     1,
 dipolmoment           0.000986      0.000424      0.715378 electrons x Angstroem
 Tr[quadrupol]     -6797.578855

 energy correction for charged system         0.000000 eV
 dipol+quadrupol energy correction            0.014636 eV
 added-field ion interaction          0.000000 eV  (added to PSCEN)


 Free energy of the ion-electron system (eV)
  ---------------------------------------------------
  alpha Z        PSCENC =       108.50552203
  Ewald energy   TEWEN  =     40276.32219353
  -Hartree energ DENC   =    -49539.74323601
  -exchange      EXHF   =       582.42042886
  -V(xc)+E(xc)   XCENC  =       667.85829977
  PAW double counting   =     28016.78827644   -28045.91763630
  entropy T*S    EENTRO =        -0.00000000
  eigenvalues    EBANDS =     -3489.91690420
  atomic energy  EATOM  =     10817.13260163
  ---------------------------------------------------
  free energy    TOTEN  =      -606.55045435 eV

  energy without entropy =     -606.55045435  energy(sigma->0) =     -606.55045435
  exchange ACFDT corr.  =        -0.72824134  see jH, gK, PRB 81, 115126


--------------------------------------------------------------------------------------------------------




--------------------------------------- Iteration      1(  17)  ---------------------------------------


    POTLOK:  cpu time    1.1031: real time    1.1070
    SETDIJ:  cpu time    1.2000: real time    1.2039
    TRIAL :  cpu time  199.5986: real time  200.1962
    CORREC:  cpu time    0.0004: real time    0.0004
    CHARGE:  cpu time    0.9118: real time    0.9141
    --------------------------------------------
      LOOP:  cpu time  202.8162: real time  203.4280

 eigenvalue-minimisations  :     0
 total energy-change (2. order) :-0.8920951E+00  (-0.7051347E+00)
 number of electron     250.0000008 magnetization       2.0000000
 augmentation part       13.3972258 magnetization       1.4837986

 DIPCOR: dipole corrections for dipol
 direction  3 min pos     1,
 dipolmoment           0.000995      0.000427      0.721709 electrons x Angstroem
 Tr[quadrupol]     -6797.927558

 energy correction for charged system         0.000000 eV
 dipol+quadrupol energy correction            0.014896 eV
 added-field ion interaction          0.000000 eV  (added to PSCEN)


 Free energy of the ion-electron system (eV)
  ---------------------------------------------------
  alpha Z        PSCENC =       108.50578221
  Ewald energy   TEWEN  =     40276.32219353
  -Hartree energ DENC   =    -49549.30420384
  -exchange      EXHF   =       582.71849068
  -V(xc)+E(xc)   XCENC  =       668.02635978
  PAW double counting   =     28014.35358939   -28044.04921808
  entropy T*S    EENTRO =        -0.00000000
  eigenvalues    EBANDS =     -3481.14814470
  atomic energy  EATOM  =     10817.13260163
  ---------------------------------------------------
  free energy    TOTEN  =      -607.44254941 eV

  energy without entropy =     -607.44254941  energy(sigma->0) =     -607.44254941
  exchange ACFDT corr.  =        -0.72555136  see jH, gK, PRB 81, 115126


--------------------------------------------------------------------------------------------------------




--------------------------------------- Iteration      1(  18)  ---------------------------------------


    POTLOK:  cpu time    1.0925: real time    1.1009
    SETDIJ:  cpu time    1.1690: real time    1.1719
    TRIAL :  cpu time  198.6355: real time  199.2212
    CORREC:  cpu time    0.0004: real time    0.0004
    CHARGE:  cpu time    0.9138: real time    0.9160
    --------------------------------------------
      LOOP:  cpu time  201.8141: real time  202.4170

 eigenvalue-minimisations  :     0
 total energy-change (2. order) :-0.6387340E+00  (-0.5212483E+00)
 number of electron     250.0000008 magnetization       2.0000000
 augmentation part       13.3915434 magnetization       1.4758883

 DIPCOR: dipole corrections for dipol
 direction  3 min pos     1,
 dipolmoment           0.001004      0.000431      0.728076 electrons x Angstroem
 Tr[quadrupol]     -6798.095438

 energy correction for charged system         0.000000 eV
 dipol+quadrupol energy correction            0.015160 eV
 added-field ion interaction          0.000000 eV  (added to PSCEN)


 Free energy of the ion-electron system (eV)
  ---------------------------------------------------
[...]
  augment    45.95301    46.16038    50.09694     0.31353    -0.22876    -0.02600
  Kinetic  3787.99724  3759.39817  4296.04906     4.64825    -1.02654    -1.11771
  Fock     -353.18157  -353.76569  -329.16734    -0.16277     0.49850     0.01304
  -------------------------------------------------------------------------------------
  Total     -44.47238   -45.48065    -1.01515     0.42453     0.38965    -0.03758
  in kB     -22.42846   -22.93696    -0.51196     0.21410     0.19651    -0.01895
  external pressure =      -15.29 kB  Pullay stress =        0.00 kB


 VOLUME and BASIS-vectors are now :
 -----------------------------------------------------------------------------
  energy-cutoff  :      500.00
  volume of cell :     3176.88
      direct lattice vectors                 reciprocal lattice vectors
    13.023100000  0.000000000  0.000000000     0.076786633  0.000415728 -0.000106120
    -0.066459372 12.275320094  0.000000000     0.000000000  0.081464271 -0.000048240
     0.027400533  0.011767735 19.872577626     0.000000000  0.000000000  0.050320599

  length of vectors
    13.023100000 12.275500000 19.872600000     0.076787832  0.081464285  0.050320599


 FORCES acting on ions:
    Electron-Ion                     Ewald-Force                    Non-Local-Force
 -----------------------------------------------------------------------------------------------
   0.164E+01 -.228E+01 -.375E+01   -.165E+01 0.247E+01 0.380E+01   0.240E-01 -.139E+00 -.491E-01
   0.448E+01 0.905E+01 -.116E+01   -.424E+01 -.931E+01 0.119E+01   -.165E+00 0.243E+00 -.157E-01
   -.626E+01 -.104E+01 -.379E+01   0.635E+01 0.110E+01 0.382E+01   -.125E+00 -.489E-01 -.245E-01
   0.716E+01 0.112E+02 -.565E+01   -.736E+01 -.112E+02 0.567E+01   0.129E+00 -.119E+00 -.309E-01
   0.129E+02 0.526E+02 -.604E+01   -.141E+02 -.552E+02 0.600E+01   0.123E+01 0.308E+01 0.556E-01
   0.116E+02 0.170E+02 -.246E+01   -.119E+02 -.172E+02 0.251E+01   0.256E+00 0.211E+00 -.458E-01
   0.275E+01 0.156E+02 -.127E+01   -.292E+01 -.160E+02 0.127E+01   0.132E+00 0.212E+00 0.236E-01
   0.378E+02 -.234E+01 -.112E+02   -.393E+02 0.528E+01 0.111E+02   0.155E+01 -.309E+01 0.644E-01
   0.136E+02 0.158E+01 -.745E+01   -.137E+02 -.161E+01 0.748E+01   0.983E-01 0.528E-01 -.228E-01
   0.247E+02 0.350E+01 -.526E+01   -.250E+02 -.313E+01 0.527E+01   0.338E+00 -.296E+00 0.531E-02
   0.527E+02 -.502E+00 -.307E+02   -.534E+02 -.121E+00 0.316E+02   0.101E+01 0.627E+00 -.848E+00
   0.397E+02 0.104E+02 -.240E+02   -.419E+02 -.138E+02 0.250E+02   0.202E+01 0.314E+01 -.909E+00
   0.138E+02 -.155E+02 -.913E+01   -.141E+02 0.156E+02 0.910E+01   0.275E+00 -.975E-01 0.243E-01
   0.248E+02 -.202E+01 -.109E+02   -.252E+02 0.149E+01 0.110E+02   0.412E+00 0.447E+00 -.467E-01
   0.162E+02 -.560E+02 -.122E+02   -.177E+02 0.592E+02 0.126E+02   0.161E+01 -.339E+01 -.368E+00
   0.578E+01 -.118E+02 -.775E+01   -.562E+01 0.121E+02 0.778E+01   -.118E+00 -.381E+00 -.305E-01
   0.794E+01 -.156E+02 -.127E+02   -.835E+01 0.160E+02 0.128E+02   0.310E+00 -.317E+00 -.118E+00
   0.679E+01 -.172E+02 -.354E+01   -.698E+01 0.174E+02 0.363E+01   0.207E+00 -.134E+00 -.759E-01
   -.214E+01 0.147E+00 -.787E+01   0.222E+01 -.295E-01 0.786E+01   -.920E-01 0.221E-01 0.603E-02
   0.303E+02 0.303E+02 -.728E+01   -.325E+02 -.324E+02 0.732E+01   0.238E+01 0.245E+01 -.732E-01
   0.118E+02 -.344E+01 -.975E+01   -.122E+02 0.353E+01 0.981E+01   0.352E+00 -.166E+00 -.683E-01
   -.130E+02 0.101E+02 -.446E+01   0.137E+02 -.101E+02 0.451E+01   -.629E+00 -.895E-01 -.441E-01
   -.342E+02 0.156E+02 -.224E+01   0.371E+02 -.156E+02 0.221E+01   -.316E+01 -.725E-01 0.226E-01
   -.262E+02 0.243E+02 -.154E+01   0.280E+02 -.264E+02 0.157E+01   -.158E+01 0.234E+01 -.272E-01
   -.263E+02 0.327E+01 -.126E+02   0.295E+02 -.391E+01 0.130E+02   -.348E+01 0.422E+00 -.441E+00
   -.259E+02 -.298E+02 -.162E+02   0.282E+02 0.323E+02 0.170E+02   -.211E+01 -.242E+01 -.767E+00
   -.376E+02 -.123E+02 -.186E+02   0.410E+02 0.128E+02 0.194E+02   -.328E+01 -.415E+00 -.735E+00
   0.294E+02 -.326E+02 -.102E+02   -.317E+02 0.355E+02 0.105E+02   0.228E+01 -.283E+01 -.354E+00
   -.142E+02 -.996E+01 -.115E+02   0.149E+02 0.990E+01 0.116E+02   -.706E+00 -.564E-01 -.586E-01
   -.569E+00 -.697E+00 -.398E+01   0.621E+00 0.746E+00 0.400E+01   -.746E-01 -.395E-01 -.149E-01
   -.327E+01 0.631E+01 -.240E+01   0.374E+01 -.627E+01 0.240E+01   -.374E+00 0.119E-01 0.362E-02
   -.935E+01 0.687E+00 -.547E+01   0.952E+01 -.634E+00 0.550E+01   -.142E+00 -.511E-01 -.316E-01
   -.825E+01 0.348E+01 -.879E+00   0.836E+01 -.350E+01 0.899E+00   -.150E+00 0.120E-02 -.103E-01
   0.533E+00 0.893E+01 0.124E+00   -.427E+00 -.895E+01 -.943E-01   -.761E-01 0.295E-01 -.121E-01
   -.160E+02 0.106E+02 -.116E+01   0.161E+02 -.111E+02 0.117E+01   -.277E+00 0.347E+00 0.106E-01
   -.101E+02 0.208E+01 -.116E+00   0.102E+02 -.243E+01 0.135E+00   -.132E+00 0.230E+00 -.456E-02
   0.306E+01 0.257E+01 -.121E+01   -.313E+01 -.261E+01 0.122E+01   0.129E+00 0.707E-02 -.377E-02
   -.141E+01 0.652E+01 -.444E+01   0.161E+01 -.661E+01 0.447E+01   -.225E+00 0.155E+00 -.264E-01
   -.163E+02 -.289E+00 -.118E+02   0.172E+02 0.253E+00 0.119E+02   -.574E+00 0.627E-01 -.961E-01
   -.108E+02 0.195E+01 -.637E+01   0.112E+02 -.195E+01 0.645E+01   -.378E+00 0.136E+00 -.803E-01
   0.675E+01 -.595E+00 -.661E+01   -.665E+01 0.577E+00 0.664E+01   -.125E+00 0.573E-02 -.306E-01
   -.363E+00 -.590E+01 -.740E+01   0.478E+00 0.596E+01 0.744E+01   -.160E+00 -.913E-01 -.349E-01
   -.172E+02 -.109E+02 -.104E+02   0.175E+02 0.114E+02 0.104E+02   -.414E+00 -.338E+00 0.187E-01
   -.104E+02 -.296E+01 -.817E+01   0.108E+02 0.289E+01 0.812E+01   -.324E+00 -.472E-01 0.460E-01
   0.437E+01 -.276E+01 -.792E+01   -.450E+01 0.274E+01 0.794E+01   0.152E+00 0.440E-01 -.188E-01
   0.124E+01 -.873E+01 -.885E+01   -.104E+01 0.877E+01 0.888E+01   -.127E+00 -.347E-01 -.346E-01
   -.327E+01 -.606E+01 -.942E+01   0.375E+01 0.613E+01 0.944E+01   -.423E+00 -.821E-01 -.291E-01
   -.998E+01 -.210E+01 -.103E+02   0.101E+02 0.244E+01 0.103E+02   -.209E+00 -.295E+00 -.200E-01
   -.682E+01 -.280E+01 -.707E+01   0.689E+01 0.284E+01 0.711E+01   -.984E-01 -.824E-01 -.356E-01
   -.152E+02 0.457E+02 -.207E+02   0.351E+02 -.441E+02 0.214E+02   -.193E+02 -.189E+01 -.690E+00
   -.169E+02 -.464E+02 -.292E+02   0.394E+02 0.458E+02 0.298E+02   -.212E+02 0.781E+00 -.637E+00
   0.314E+02 0.751E+01 -.308E+01   -.417E+02 0.102E+02 0.293E+01   0.983E+01 -.173E+02 0.179E+00
   0.216E+02 -.844E+01 -.545E+01   -.433E+02 0.790E+01 0.559E+01   0.208E+02 0.764E+00 -.169E+00
   -.656E+02 0.135E+02 -.882E+02   0.870E+02 -.129E+02 0.921E+02   -.204E+02 0.297E+00 -.391E+01
   0.666E+01 0.111E+02 -.143E+02   -.286E+02 -.115E+02 0.144E+02   0.207E+02 0.276E+00 -.899E-01
   0.297E+02 -.627E+01 -.225E+02   -.417E+02 -.129E+02 0.228E+02   0.113E+02 0.181E+02 -.313E+00
   -.266E+02 0.335E+02 -.435E+02   0.253E+02 -.314E+02 0.434E+02   0.167E+01 -.201E+01 0.134E+00
   -.251E+02 -.412E+02 0.626E+03   0.251E+02 0.397E+02 -.613E+03   -.666E-01 0.916E+00 -.112E+02
 -----------------------------------------------------------------------------------------------
   0.159E+01 0.824E+00 0.240E+02   -.497E-13 -.355E-13 -.114E-12   -.152E+01 -.900E+00 -.221E+02
 
 
 POSITION                                       TOTAL-FORCE (eV/Angst)
 -----------------------------------------------------------------------------------
      2.97393      0.02859      9.94208         0.018137      0.041060      0.003007
      0.76432      1.24154      9.94870         0.075051     -0.002156      0.013382
      1.51665      0.02134      9.95141        -0.054467      0.013353      0.001320
      3.68802      1.30707      9.95494        -0.068704     -0.170149     -0.011924
      2.90569      2.54399      9.96412         0.116660      0.662927      0.021445
      0.66424      3.68126      9.95310        -0.040881      0.093136      0.008033
      1.45403      2.48467      9.95126        -0.039040     -0.111376      0.020898
      2.71875      4.93472      9.96752         0.063199     -0.302120      0.018618
      0.60699      6.15345      9.96282        -0.010711      0.030264      0.006742
      1.32327      4.92717      9.95925         0.055989      0.050891      0.018860
      3.42349      6.16088      9.96463         0.394073      0.033107      0.021158
      2.71163      7.39675      9.94180        -0.068066     -0.091877     -0.000039
      0.62729      8.62064      9.96410        -0.036047     -0.028874     -0.003870
      1.30738      7.38300      9.95918         0.034551     -0.046018     -0.001801
      2.83419      9.79491      9.92449         0.150013     -0.393362     -0.028712
      0.69995     11.07326      9.96333         0.050482     -0.044863     -0.004397
      1.39221      9.83577      9.96172        -0.082021      0.035162     -0.009404
      3.62035     11.02468      9.91757         0.023206      0.053034      0.004844
      7.21479     12.27039      9.94899        -0.016495      0.143277     -0.004673
      5.14862      1.29113      9.95411         0.365228      0.459353     -0.037385
      5.84256      0.01479      9.94578         0.030114     -0.085396     -0.015040
      8.01244      1.22010      9.94858         0.006489     -0.042555     -0.001133
      7.28943      2.44057      9.94259        -0.490347     -0.121381      0.001851
      7.99937      3.68964      9.93467         0.105092      0.346059     -0.003107
      7.93631      6.10419      9.91759        -0.466667     -0.198045     -0.037545
      7.95130      8.55745      9.90735         0.105707     -0.045440     -0.013288
      7.21655      9.81797      9.91359        -0.050650      0.093091      0.000744
      5.08331     11.02077      9.91223         0.097147     -0.172117     -0.012965
      7.94720     11.04274      9.94836         0.005220     -0.118945     -0.013146
     11.61291      0.00761      9.95840        -0.018116      0.006454      0.003148
      9.44466      1.21748      9.94807         0.087274      0.051922      0.005561
     10.11007     12.27512      9.95853         0.014232     -0.000645     -0.003342
     12.33806      1.23396      9.94852        -0.064438     -0.018679      0.009680
     11.58165      2.44410      9.94400         0.032371      0.013444      0.017122
      9.41388      3.66546      9.94012        -0.232311     -0.078326      0.017692
     10.14961      2.44060      9.94176        -0.007429     -0.115742      0.014806
     12.26872      3.67831      9.94888         0.071749     -0.034827      0.007392
     11.53014      4.90691      9.95621        -0.040318      0.081925      0.000656
      9.37485      6.12190      9.95220         0.222698      0.029661     -0.004641
     10.11185      4.90300      9.95322        -0.005184      0.142280     -0.003715
     12.21791      6.14635      9.96376        -0.027601     -0.013499     -0.000773
     11.50431      7.37509      9.96515        -0.053526     -0.033228      0.000838
      9.36942      8.59956      9.94757        -0.138339      0.092418     -0.014266
     10.08311      7.36274      9.95501         0.042182     -0.122412      0.001047
     12.23085      8.61122      9.96910         0.033167      0.039797     -0.001510
     11.53148      9.84163      9.97168         0.069902     -0.002031     -0.005694
      9.38210     11.05183      9.96207         0.049324     -0.018230     -0.009548
     10.09734      9.83169      9.96588        -0.059367      0.038783     -0.006773
     12.27562     11.06267      9.96752        -0.040481     -0.039954     -0.002032
      3.50768      3.78926      9.98398        -1.020806     -0.420211     -0.082566
      3.44971      8.56881      9.88033        -0.562945      0.216355     -0.070519
      5.89956      2.46769      9.94736         0.363079     -1.090664      0.046928
      7.26013      4.88629      9.92526         0.875904      0.295468     -0.043002
      4.78588      6.09685      9.97502        -0.698005      0.918209     -0.304518
      7.26842      7.32252      9.84241         0.542617     -0.102838     -0.060505
      5.82225      9.83804      9.86043         0.220809      0.471904     -0.057111
      5.35484      4.31953      9.98104         0.167890      0.125500     -0.077294
      5.32056      7.83732      9.16571        -0.096594     -0.512871      0.680466
 -----------------------------------------------------------------------------------
    total drift:                               -0.003566      0.000443     -0.005326


--------------------------------------------------------------------------------------------------------



  FREE ENERGIE OF THE ION-ELECTRON SYSTEM (eV)
  ---------------------------------------------------
  free  energy   TOTEN  =      -609.88080563 eV

  energy  without entropy=     -609.88080563  energy(sigma->0) =     -609.88080563
 


--------------------------------------------------------------------------------------------------------


    POTLOK:  cpu time    2.3169: real time    2.3250


--------------------------------------------------------------------------------------------------------


 stress matrix after NEB project (eV)
    -44.47238      0.42467     -0.03758
      0.42453    -45.48065      0.38936
     -0.03463      0.38965     -1.01515
  FORCES: max atom, RMS     1.192917    0.391850
  FORCE total and by dimension    2.984238    1.090664
  Stress total and by dimension   63.623730   45.480647
 writing wavefunctions
     LOOP+:  cpu time10393.4079: real time10432.9308
    4ORBIT:  cpu time    0.0000: real time    0.0000
 


 total charge     
 
# of ion       s       p       d       tot
------------------------------------------
    1        0.850   1.689   0.000   2.539
    2        0.863   1.750   0.000   2.614
    3        0.855   1.754   0.000   2.609
    4        0.842   1.728   0.000   2.570
    5        0.851   1.685   0.000   2.537
    6        0.872   1.777   0.000   2.649
    7        0.861   1.767   0.000   2.627
    8        0.872   1.776   0.000   2.648
    9        0.868   1.807   0.000   2.675
   10        0.877   1.815   0.000   2.692
   11        0.873   1.770   0.000   2.643
   12        0.866   1.771   0.000   2.636
   13        0.871   1.773   0.000   2.643
   14        0.875   1.811   0.000   2.686
   15        0.855   1.701   0.000   2.556
   16        0.864   1.753   0.000   2.617
   17        0.863   1.775   0.000   2.638
   18        0.843   1.731   0.000   2.573
   19        0.868   1.749   0.000   2.616
   20        0.849   1.677   0.000   2.525
   21        0.857   1.750   0.000   2.607
   22        0.866   1.784   0.000   2.650
   23        0.863   1.735   0.000   2.597
   24        0.857   1.736   0.000   2.594
   25        0.845   1.668   0.000   2.513
   26        0.848   1.719   0.000   2.567
   27        0.853   1.716   0.000   2.570
   28        0.849   1.678   0.000   2.527
   29        0.864   1.773   0.000   2.637
   30        0.867   1.768   0.000   2.635
   31        0.868   1.784   0.000   2.653
   32        0.865   1.775   0.000   2.640
   33        0.862   1.763   0.000   2.625
   34        0.869   1.773   0.000   2.642
   35        0.870   1.785   0.000   2.655
   36        0.866   1.783   0.000   2.649
   37        0.867   1.792   0.000   2.659
   38        0.868   1.783   0.000   2.651
   39        0.864   1.777   0.000   2.641
   40        0.870   1.782   0.000   2.651
   41        0.874   1.786   0.000   2.659
   42        0.866   1.779   0.000   2.645
   43        0.867   1.774   0.000   2.641
   44        0.867   1.773   0.000   2.640
   45        0.867   1.788   0.000   2.655
   46        0.868   1.768   0.000   2.636
   47        0.867   1.779   0.000   2.646
   48        0.865   1.777   0.000   2.642
   49        0.863   1.764   0.000   2.627
   50        1.231   2.661   0.000   3.892
   51        1.237   2.685   0.000   3.922
   52        1.229   2.655   0.000   3.884
   53        1.224   2.643   0.000   3.867
   54        1.257   2.601   0.000   3.858
   55        1.225   2.671   0.000   3.896
   56        1.230   2.657   0.000   3.887
   57        0.465   0.598   6.268   7.331
   58        2.220   6.207   1.124   9.551
--------------------------------------------------
tot         53.595 111.548   7.392 172.535
 


 magnetization (x)
 
# of ion       s       p       d       tot
------------------------------------------
    1        0.000   0.003   0.000   0.004
    2        0.000   0.006   0.000   0.007
    3       -0.000  -0.002   0.000  -0.003
    4       -0.000  -0.003   0.000  -0.003
    5        0.001   0.015   0.000   0.015
    6        0.001   0.006   0.000   0.007
    7       -0.001  -0.007   0.000  -0.007
    8        0.001   0.009   0.000   0.010
    9        0.000   0.005   0.000   0.005
   10       -0.001  -0.005   0.000  -0.005
   11        0.000   0.002   0.000   0.002
   12       -0.000   0.000   0.000  -0.000
   13        0.000   0.001   0.000   0.001
   14       -0.000  -0.000   0.000  -0.000
   15        0.000   0.004   0.000   0.004
   16        0.000   0.003   0.000   0.003
   17       -0.000  -0.002   0.000  -0.002
   18       -0.000  -0.002   0.000  -0.002
   19        0.001   0.010   0.000   0.011
   20        0.001   0.016   0.000   0.017
   21       -0.001  -0.007   0.000  -0.008
   22       -0.001  -0.005   0.000  -0.005
   23        0.001   0.010   0.000   0.011
   24        0.000   0.003   0.000   0.003
   25        0.000   0.007   0.000   0.007
   26       -0.000  -0.002   0.000  -0.002
   27        0.000   0.006   0.000   0.007
   28        0.000   0.004   0.000   0.005
   29       -0.000  -0.004   0.000  -0.004
   30        0.000   0.003   0.000   0.003
   31        0.000   0.003   0.000   0.003
   32       -0.000  -0.003   0.000  -0.003
   33       -0.000  -0.004   0.000  -0.004
   34        0.000   0.006   0.000   0.006
   35       -0.000   0.001   0.000   0.001
   36       -0.000  -0.002   0.000  -0.002
   37       -0.000  -0.003   0.000  -0.004
   38        0.000   0.003   0.000   0.004
   39        0.000   0.003   0.000   0.003
   40       -0.000  -0.000   0.000  -0.000
   41       -0.000  -0.001   0.000  -0.001
   42        0.000   0.002   0.000   0.002
   43        0.000   0.003   0.000   0.003
   44       -0.000   0.001   0.000   0.001
   45       -0.000  -0.001   0.000  -0.001
   46        0.000   0.003   0.000   0.003
   47        0.000   0.004   0.000   0.004
   48       -0.000  -0.003   0.000  -0.003
   49       -0.000  -0.002   0.000  -0.002
   50       -0.005  -0.034   0.000  -0.040
   51       -0.000  -0.003   0.000  -0.003
   52       -0.004  -0.024   0.000  -0.028
   53       -0.004  -0.024   0.000  -0.028
   54       -0.004  -0.035   0.000  -0.039
   55        0.000   0.006   0.000   0.006
   56        0.000   0.001   0.000   0.001
   57        0.011   0.016   1.887   1.914
   58       -0.001   0.001   0.012   0.012
--------------------------------------------------
tot         -0.005  -0.009   1.899   1.885
 

 total amount of memory used by VASP MPI-rank0   157331. kBytes
=======================================================================

   base      :      30000. kBytes
   nonl-proj :       4274. kBytes
   fftplans  :      11188. kBytes
   grid      :      29312. kBytes
   one-center:         62. kBytes
   HF        :         23. kBytes
   nonlr-proj:      18944. kBytes
   wavefun   :      63528. kBytes
 
  
  
 General timing and accounting informations for this job:
 ========================================================
  
                  Total CPU time used (sec):    10432.810
                            User time (sec):    10400.977
                          System time (sec):       31.833
                         Elapsed time (sec):    10476.318
  
                   Maximum memory used (kb):      391420.
                   Average memory used (kb):           0.
  
                          Minor page faults:       575438
                          Major page faults:          193
                 Voluntary context switches:       136407
