 vasp.5.4.4.18Apr17-6-g9f103f2a35 (build Feb 25 2019 10:51:38) complex          
  
 executed on             LinuxIFC date 2021.06.16  08:11:34
 running on   80 total cores
 distrk:  each k-point on   40 cores,    2 groups
 distr:  one band on NCORES_PER_BAND=  40 cores,    1 groups


--------------------------------------------------------------------------------------------------------


 INCAR:
 POTCAR:    PAW_PBE C 08Apr2002                   
 POTCAR:    PAW_PBE N 08Apr2002                   
 POTCAR:    PAW_PBE Fe 06Sep2000                  
 POTCAR:    PAW_PBE Ti 08Apr2002                  

 ----------------------------------------------------------------------------- 
|                                                                             |
|           W    W    AA    RRRRR   N    N  II  N    N   GGGG   !!!           |
|           W    W   A  A   R    R  NN   N  II  NN   N  G    G  !!!           |
|           W    W  A    A  R    R  N N  N  II  N N  N  G       !!!           |
|           W WW W  AAAAAA  RRRRR   N  N N  II  N  N N  G  GGG   !            |
|           WW  WW  A    A  R   R   N   NN  II  N   NN  G    G                |
|           W    W  A    A  R    R  N    N  II  N    N   GGGG   !!!           |
|                                                                             |
|      For optimal performance we recommend to set                            |
|        NCORE= 4 - approx SQRT( number of cores)                             |
|      NCORE specifies how many cores store one orbital (NPAR=cpu/NCORE).     |
|      This setting can  greatly improve the performance of VASP for DFT.     |
|      The default,   NCORE=1            might be grossly inefficient         |
|      on modern multi-core architectures or massively parallel machines.     |
|      Do your own testing !!!!                                               |
|      Unfortunately you need to use the default for GW and RPA calculations. |
|      (for HF NCORE is supported but not extensively tested yet)             |
|                                                                             |
 ----------------------------------------------------------------------------- 


 ----------------------------------------------------------------------------- 
|                                                                             |
|           W    W    AA    RRRRR   N    N  II  N    N   GGGG   !!!           |
|           W    W   A  A   R    R  NN   N  II  NN   N  G    G  !!!           |
|           W    W  A    A  R    R  N N  N  II  N N  N  G       !!!           |
|           W WW W  AAAAAA  RRRRR   N  N N  II  N  N N  G  GGG   !            |
|           WW  WW  A    A  R   R   N   NN  II  N   NN  G    G                |
|           W    W  A    A  R    R  N    N  II  N    N   GGGG   !!!           |
|                                                                             |
|      You have enabled k-point parallelism (KPAR>1).                         |
|      This developmental code was originally  written by Paul Kent at ORNL,  |
|      and carefully double checked in Vienna.                                |
|      GW as well as linear response parallelism added by Martijn Marsman     |
|      and Georg Kresse.                                                      |
|      Carefully verify results versus KPAR=1.                                |
|      Report problems to Paul Kent and Vienna.                               |
|                                                                             |
 ----------------------------------------------------------------------------- 

 POTCAR:    PAW_PBE C 08Apr2002                   
   VRHFIN =C: s2p2                                                              
   LEXCH  = PE                                                                  
   EATOM  =   147.1560 eV,   10.8157 Ry                                         
                                                                                
   TITEL  = PAW_PBE C 08Apr2002                                                 
   LULTRA =        F    use ultrasoft PP ?                                      
   IUNSCR =        1    unscreen: 0-lin 1-nonlin 2-no                           
   RPACOR =    1.200    partial core radius                                     
   POMASS =   12.011; ZVAL   =    4.000    mass and valenz                      
   RCORE  =    1.500    outmost cutoff radius                                   
   RWIGS  =    1.630; RWIGS  =    0.863    wigner-seitz radius (au A)           
   ENMAX  =  400.000; ENMIN  =  300.000 eV                                      
   ICORE  =        2    local potential                                         
   LCOR   =        T    correct aug charges                                     
   LPAW   =        T    paw PP                                                  
   EAUG   =  644.873                                                            
   DEXC   =    0.000                                                            
   RMAX   =    1.529    core radius for proj-oper                               
   RAUG   =    1.300    factor for augmentation sphere                          
   RDEP   =    1.501    radius for radial grids                                 
   RDEPT  =    1.300    core radius for aug-charge                              
                                                                                
   Atomic configuration                                                         
    4 entries                                                                   
     n  l   j            E        occ.                                          
     1  0  0.50      -273.3789   2.0000                                         
     2  0  0.50       -13.7508   2.0000                                         
     2  1  0.50        -5.2854   2.0000                                         
     3  2  1.50        -5.4423   0.0000                                         
   Description                                                                  
     l       E           TYP  RCUT    TYP  RCUT                                 
     0    -13.7508458     23  1.200                                             
     0     -8.2022199     23  1.200                                             
     1     -5.2854383     23  1.500                                             
     1     34.0145650     23  1.500                                             
     2     -5.4423304      7  1.500                                             
  local pseudopotential read in
  partial core-charges read in
  partial kinetic energy density read in
  atomic valenz-charges read in
  non local Contribution for L=           0  read in
    real space projection operators read in
  non local Contribution for L=           0  read in
    real space projection operators read in
  non local Contribution for L=           1  read in
    real space projection operators read in
  non local Contribution for L=           1  read in
    real space projection operators read in
    PAW grid and wavefunctions read in
 
   number of l-projection  operators is LMAX  =           4
   number of lm-projection operators is LMMAX =           8
 
 POTCAR:    PAW_PBE N 08Apr2002                   
   VRHFIN =N: s2p3                                                              
   LEXCH  = PE                                                                  
   EATOM  =   264.5486 eV,   19.4438 Ry                                         
                                                                                
   TITEL  = PAW_PBE N 08Apr2002                                                 
   LULTRA =        F    use ultrasoft PP ?                                      
   IUNSCR =        1    unscreen: 0-lin 1-nonlin 2-no                           
   RPACOR =    1.200    partial core radius                                     
   POMASS =   14.001; ZVAL   =    5.000    mass and valenz                      
   RCORE  =    1.500    outmost cutoff radius                                   
   RWIGS  =    1.400; RWIGS  =    0.741    wigner-seitz radius (au A)           
   ENMAX  =  400.000; ENMIN  =  300.000 eV                                      
   ICORE  =        2    local potential                                         
   LCOR   =        T    correct aug charges                                     
   LPAW   =        T    paw PP                                                  
   EAUG   =  627.112                                                            
   DEXC   =    0.000                                                            
   RMAX   =    1.529    core radius for proj-oper                               
   RAUG   =    1.300    factor for augmentation sphere                          
   RDEP   =    1.514    radius for radial grids                                 
   RDEPT  =    1.338    core radius for aug-charge                              
                                                                                
   Atomic configuration                                                         
    4 entries                                                                   
     n  l   j            E        occ.                                          
     1  0  0.50      -384.7179   2.0000                                         
     2  0  0.50       -18.5828   2.0000                                         
     2  1  0.50        -7.0898   3.0000                                         
     3  2  1.50        -6.8029   0.0000                                         
   Description                                                                  
     l       E           TYP  RCUT    TYP  RCUT                                 
     0    -18.5828119     23  1.200                                             
     0    -13.5018863     23  1.200                                             
     1     -7.0897853     23  1.500                                             
     1      9.5240782     23  1.500                                             
     2     -6.8029130      7  1.500                                             
  local pseudopotential read in
  partial core-charges read in
  partial kinetic energy density read in
  atomic valenz-charges read in
  non local Contribution for L=           0  read in
    real space projection operators read in
  non local Contribution for L=           0  read in
    real space projection operators read in
  non local Contribution for L=           1  read in
    real space projection operators read in
  non local Contribution for L=           1  read in
    real space projection operators read in
    PAW grid and wavefunctions read in
 
   number of l-projection  operators is LMAX  =           4
   number of lm-projection operators is LMMAX =           8
 
 POTCAR:    PAW_PBE Fe 06Sep2000                  
   VRHFIN =Fe:  d7 s1                                                           
   LEXCH  = PE                                                                  
   EATOM  =   594.3153 eV,   43.6809 Ry                                         
                                                                                
   TITEL  = PAW_PBE Fe 06Sep2000                                                
   LULTRA =        F    use ultrasoft PP ?                                      
   IUNSCR =        1    unscreen: 0-lin 1-nonlin 2-no                           
   RPACOR =    2.000    partial core radius                                     
   POMASS =   55.847; ZVAL   =    8.000    mass and valenz                      
   RCORE  =    2.300    outmost cutoff radius                                   
   RWIGS  =    2.460; RWIGS  =    1.302    wigner-seitz radius (au A)           
   ENMAX  =  267.882; ENMIN  =  200.911 eV                                      
   RCLOC  =    1.701    cutoff for local pot                                    
   LCOR   =        T    correct aug charges                                     
   LPAW   =        T    paw PP                                                  
   EAUG   =  511.368                                                            
   DEXC   =    0.000                                                            
   RMAX   =    2.356    core radius for proj-oper                               
   RAUG   =    1.300    factor for augmentation sphere                          
   RDEP   =    2.442    radius for radial grids                                 
   RDEPT  =    1.890    core radius for aug-charge                              
                                                                                
   Atomic configuration                                                         
    9 entries                                                                   
     n  l   j            E        occ.                                          
     1  0  0.50     -6993.8440   2.0000                                         
     2  0  0.50      -814.6047   2.0000                                         
     2  1  1.50      -693.3689   6.0000                                         
     3  0  0.50       -89.4732   2.0000                                         
     3  1  1.50       -55.6373   6.0000                                         
     3  2  2.50        -3.8151   7.0000                                         
     4  0  0.50        -4.2551   1.0000                                         
     4  1  1.50        -3.4015   0.0000                                         
     4  3  2.50        -1.3606   0.0000                                         
   Description                                                                  
     l       E           TYP  RCUT    TYP  RCUT                                 
     2     -3.8151135     23  2.300                                             
     2     -5.1756961     23  2.300                                             
     0     -4.2550963     23  2.300                                             
     0      7.2035603     23  2.300                                             
     1     -2.7211652     23  2.300                                             
     1     18.4316424     23  2.300                                             
  local pseudopotential read in
  partial core-charges read in
  partial kinetic energy density read in
  atomic valenz-charges read in
  non local Contribution for L=           2  read in
    real space projection operators read in
  non local Contribution for L=           2  read in
    real space projection operators read in
  non local Contribution for L=           0  read in
    real space projection operators read in
  non local Contribution for L=           0  read in
    real space projection operators read in
  non local Contribution for L=           1  read in
    real space projection operators read in
  non local Contribution for L=           1  read in
    real space projection operators read in
    PAW grid and wavefunctions read in
 
   number of l-projection  operators is LMAX  =           6
   number of lm-projection operators is LMMAX =          18
 
 POTCAR:    PAW_PBE Ti 08Apr2002                  
   VRHFIN =Ti: d3 s1                                                            
   LEXCH  = PE                                                                  
   EATOM  =    94.7928 eV,    6.9671 Ry                                         
                                                                                
   TITEL  = PAW_PBE Ti 08Apr2002                                                
   LULTRA =        F    use ultrasoft PP ?                                      
   IUNSCR =        1    unscreen: 0-lin 1-nonlin 2-no                           
   RPACOR =    2.200    partial core radius                                     
   POMASS =   47.880; ZVAL   =    4.000    mass and valenz                      
   RCORE  =    2.800    outmost cutoff radius                                   
   RWIGS  =    2.500; RWIGS  =    1.323    wigner-seitz radius (au A)           
   ENMAX  =  178.330; ENMIN  =  133.747 eV                                      
   RCLOC  =    2.215    cutoff for local pot                                    
   LCOR   =        T    correct aug charges                                     
   LPAW   =        T    paw PP                                                  
   EAUG   =  328.883                                                            
   DEXC   =    0.000                                                            
   RMAX   =    2.868    core radius for proj-oper                               
   RAUG   =    1.300    factor for augmentation sphere                          
   RDEP   =    2.885    radius for radial grids                                 
   RDEPT  =    2.320    core radius for aug-charge                              
                                                                                
   Atomic configuration                                                         
    9 entries                                                                   
     n  l   j            E        occ.                                          
     1  0  0.50     -4865.3608   2.0000                                         
     2  0  0.50      -533.1367   2.0000                                         
     2  1  1.50      -440.5031   6.0000                                         
     3  0  0.50       -59.3186   2.0000                                         
     3  1  1.50       -35.7012   6.0000                                         
     3  2  2.50        -1.9157   3.0000                                         
     4  0  0.50        -3.7291   1.0000                                         
     4  1  1.50        -4.0817   0.0000                                         
     4  3  2.50        -1.3606   0.0000                                         
   Description                                                                  
     l       E           TYP  RCUT    TYP  RCUT                                 
     2     -1.9156924     23  2.800                                             
     2     -0.4062961     23  2.800                                             
     0     -3.7290832     23  2.800                                             
     0     20.4087390     23  2.800                                             
     1     -5.4423304     23  2.800                                             
  local pseudopotential read in
  partial core-charges read in
  partial kinetic energy density read in
  atomic valenz-charges read in
  non local Contribution for L=           2  read in
    real space projection operators read in
  non local Contribution for L=           2  read in
    real space projection operators read in
  non local Contribution for L=           0  read in
    real space projection operators read in
  non local Contribution for L=           0  read in
    real space projection operators read in
  non local Contribution for L=           1  read in
    real space projection operators read in
    PAW grid and wavefunctions read in
 
   number of l-projection  operators is LMAX  =           5
   number of lm-projection operators is LMMAX =          15
 

 ----------------------------------------------------------------------------- 
|                                                                             |
|  ADVICE TO THIS USER RUNNING 'VASP/VAMP'   (HEAR YOUR MASTER'S VOICE ...):  |
|                                                                             |
|      You have a (more or less) 'large supercell' and for larger cells       |
|      it might be more efficient to use real space projection opertators     |
|      So try LREAL= Auto  in the INCAR   file.                               |
|      Mind:          For very  accurate calculation you might also keep the  |
|      reciprocal projection scheme          (i.e. LREAL=.FALSE.)             |
|                                                                             |
 ----------------------------------------------------------------------------- 

  PAW_PBE C 08Apr2002                   :
 energy of atom  1       EATOM= -147.1560
 kinetic energy error for atom=    0.0076 (will be added to EATOM!!)
  PAW_PBE N 08Apr2002                   :
 energy of atom  2       EATOM= -264.5486
 kinetic energy error for atom=    0.0138 (will be added to EATOM!!)
  PAW_PBE Fe 06Sep2000                  :
 energy of atom  3       EATOM= -594.3153
 kinetic energy error for atom=    0.0026 (will be added to EATOM!!)
  PAW_PBE Ti 08Apr2002                  :
 energy of atom  4       EATOM=  -94.7928
 kinetic energy error for atom=    0.0002 (will be added to EATOM!!)
 
 
 POSCAR:  C  N Fe Ti                             
  positions in cartesian coordinates
  No initial velocities read in
 exchange correlation table for  LEXCH =        8
   RHO(1)=    0.500       N(1)  =     2000
   RHO(2)=  100.500       N(2)  =     4000

 VTST: version 3.2, (02/03/18)

 CHAIN: initializing optimizer
 
 OPT: Using VASP Conjugate-Gradient optimizer
 CHAIN: Read ICHAIN            0
 
 POSCAR:  C  N Fe Ti                             
  positions in cartesian coordinates
  No initial velocities read in
 


--------------------------------------------------------------------------------------------------------


 ion  position               nearest neighbor table
   1  0.228  0.002  0.502-   3 1.45   4 1.46  18 1.46
   2  0.058  0.101  0.501-   7 1.42   3 1.43  33 1.45
   3  0.115  0.002  0.502-   2 1.43  16 1.43   1 1.45
   4  0.283  0.106  0.503-  20 1.45   1 1.46   5 1.46
   5  0.224  0.207  0.504-  50 1.38   7 1.45   4 1.46
   6  0.053  0.300  0.500-  10 1.41  37 1.42   7 1.43
   7  0.112  0.203  0.502-   2 1.42   6 1.43   5 1.45
   8  0.212  0.402  0.508-  50 1.38  10 1.40  11 1.43
   9  0.050  0.501  0.500-  14 1.41  41 1.42  10 1.42
  10  0.104  0.402  0.502-   8 1.40   6 1.41   9 1.42
  11  0.267  0.502  0.518-  54 1.38   8 1.43  12 1.43  58 2.41
  12  0.212  0.603  0.512-  51 1.39  14 1.41  11 1.43  58 2.52
  13  0.051  0.702  0.501-  14 1.41  45 1.42  17 1.43
  14  0.104  0.601  0.503-   9 1.41  13 1.41  12 1.41
  15  0.221  0.799  0.507-  51 1.37  17 1.44  18 1.45
  16  0.057  0.902  0.501-  17 1.42   3 1.43  49 1.44
  17  0.110  0.801  0.503-  16 1.42  13 1.43  15 1.44
  18  0.282  0.898  0.502-  15 1.45  28 1.46   1 1.46
  19  0.558  0.999  0.497-  22 1.43  29 1.43  21 1.43
  20  0.395  0.104  0.501-  52 1.39   4 1.45  21 1.46
  21  0.447  1.000  0.499-  19 1.43  28 1.45  20 1.46
  22  0.614  0.099  0.497-  23 1.42  19 1.43  31 1.43
  23  0.559  0.198  0.499-  52 1.39  22 1.42  24 1.44
  24  0.614  0.300  0.497-  53 1.40  35 1.41  23 1.44
  25  0.610  0.497  0.494-  53 1.39  55 1.39  39 1.44
  26  0.612  0.696  0.492-  55 1.41  43 1.42  27 1.45
  27  0.556  0.799  0.494-  56 1.39  29 1.43  26 1.45
  28  0.394  0.896  0.498-  56 1.40  21 1.45  18 1.46
  29  0.613  0.899  0.496-  19 1.43  27 1.43  47 1.43
  30  0.891  0.000  0.498-  49 1.42  33 1.42  32 1.43
  31  0.725  0.099  0.497-  36 1.41  32 1.42  22 1.43
  32  0.780  0.999  0.497-  31 1.42  47 1.42  30 1.43
  33  0.947  0.100  0.499-  30 1.42  34 1.43   2 1.45
  34  0.890  0.199  0.498-  37 1.41  33 1.43  36 1.43
  35  0.723  0.299  0.496-  24 1.41  40 1.42  36 1.43
  36  0.779  0.199  0.497-  31 1.41  35 1.43  34 1.43
  37  0.943  0.300  0.498-  34 1.41   6 1.42  38 1.43
  38  0.887  0.400  0.496-  41 1.42  40 1.42  37 1.43
  39  0.721  0.499  0.494-  44 1.42  40 1.42  25 1.44
  40  0.777  0.399  0.495-  35 1.42  38 1.42  39 1.42
  41  0.941  0.501  0.497-  38 1.42   9 1.42  42 1.42
  42  0.886  0.600  0.496-  41 1.42  44 1.42  45 1.43
  43  0.721  0.700  0.494-  26 1.42  44 1.43  48 1.43
  44  0.776  0.599  0.494-  39 1.42  42 1.42  43 1.43
  45  0.942  0.701  0.497-  46 1.42  13 1.42  42 1.43
  46  0.888  0.801  0.497-  45 1.42  49 1.43  48 1.43
  47  0.724  0.900  0.496-  48 1.41  32 1.42  29 1.43
  48  0.778  0.800  0.496-  47 1.41  43 1.43  46 1.43
  49  0.946  0.901  0.499-  30 1.42  46 1.43  16 1.44
  50  0.271  0.309  0.508-   8 1.38   5 1.38  57 1.92
  51  0.268  0.700  0.513-  15 1.37  12 1.39  58 2.02
  52  0.453  0.200  0.502-  23 1.39  20 1.39  57 1.93
  53  0.558  0.398  0.497-  25 1.39  24 1.40  57 1.98
  54  0.371  0.495  0.531-  11 1.38  57 1.90  58 1.93
  55  0.558  0.596  0.490-  25 1.39  26 1.41  58 2.10
  56  0.449  0.798  0.494-  27 1.39  28 1.40  58 2.19
  57  0.413  0.352  0.510-  54 1.90  50 1.92  52 1.93  53 1.98
  58  0.399  0.628  0.483-  54 1.93  51 2.02  55 2.10  56 2.19  11 2.41  12 2.52
 
  LATTYP: Found a triclinic cell.
 ALAT       =    12.9771000000
 B/A-ratio  =     1.8384061596
 C/A-ratio  =     0.9443327092
 COS(alpha) =     0.0016212191
 COS(beta)  =     0.0064088051
 COS(gamma) =     0.5466487883
  
  Lattice vectors:
  
 A1 = (  12.9771000000,   0.0000000000,   0.0000000000)
 A2 = (  13.0414988524,   0.0449036311,  19.9770457348)
 A3 = (   0.0785379844, -12.2544483301,   0.0000000000)


Analysis of symmetry for initial positions (statically):
=====================================================================
 Subroutine PRICEL returns:
 Original cell was already a primitive cell.
 

 Routine SETGRP: Setting up the symmetry group for a 
 triclinic supercell.


 Subroutine GETGRP returns: Found  1 space group operations
 (whereof  1 operations were pure point group operations)
 out of a pool of  2 trial point group operations.


The static configuration has the point symmetry C_1 .


Analysis of symmetry for dynamics (positions and initial velocities):
=====================================================================
 Subroutine PRICEL returns:
 Original cell was already a primitive cell.
 

 Routine SETGRP: Setting up the symmetry group for a 
 triclinic supercell.


 Subroutine GETGRP returns: Found  1 space group operations
 (whereof  1 operations were pure point group operations)
 out of a pool of  2 trial point group operations.


The dynamic configuration has the point symmetry C_1 .


Analysis of structural, dynamic, and magnetic symmetry:
=====================================================================
 Subroutine PRICEL returns:
 Original cell was already a primitive cell.
 

 Routine SETGRP: Setting up the symmetry group for a 
 triclinic supercell.


 Subroutine GETGRP returns: Found  1 space group operations
 (whereof  1 operations were pure point group operations)
 out of a pool of  2 trial point group operations.


The magnetic configuration has the point symmetry C_1 .


 Subroutine INISYM returns: Found  1 space group operations
 (whereof  1 operations are pure point group operations),
 and found     1 'primitive' translations

 
 
 KPOINTS: KPOINTS created by Atomic Simulation Env

Automatic generation of k-mesh.
Space group operators:
 irot       det(A)        alpha          n_x          n_y          n_z        tau_x        tau_y        tau_z
    1     1.000000     0.000001     1.000000     0.000000     0.000000     0.000000     0.000000     0.000000
 
 Subroutine IBZKPT returns following result:
 ===========================================
 
 Found      2 irreducible k-points:
 
 Following reciprocal coordinates:
            Coordinates               Weight
  0.250000  0.250000 -0.000000      2.000000
 -0.250000  0.250000  0.000000      2.000000
 
 Following cartesian coordinates:
            Coordinates               Weight
  0.019265  0.020524 -0.000108      2.000000
 -0.019265  0.020277  0.000017      2.000000
 
 
 Subroutine IBZKPT_HF returns following result:
 ==============================================
 
 Found      4 k-points in 1st BZ
 the following      4 k-points will be used (e.g. in the exchange kernel)
 Following reciprocal coordinates:   # in IRBZ
  0.250000  0.250000 -0.000000    0.25000000   1 t-inv F
 -0.250000  0.250000  0.000000    0.25000000   2 t-inv F
 -0.250000 -0.250000  0.000000    0.25000000   1 t-inv T
  0.250000 -0.250000 -0.000000    0.25000000   2 t-inv T


--------------------------------------------------------------------------------------------------------




 Dimension of arrays:
   k-points           NKPTS =      2   k-points in BZ     NKDIM =      4   number of bands    NBANDS=    155
   number of dos      NEDOS =    301   number of ions     NIONS =     58
   non local maximal  LDIM  =      6   non local SUM 2l+1 LMDIM =     18
   total plane-waves  NPLWV = ******
   max r-space proj   IRMAX =      1   max aug-charges    IRDMAX=  28371
   dimension x,y,z NGX =    96 NGY =   90 NGZ =  150
   dimension x,y,z NGXF=   192 NGYF=  180 NGZF=  300
   support grid    NGXF=   192 NGYF=  180 NGZF=  300
   ions per type =              49   7   1   1
   NGX,Y,Z   is equivalent  to a cutoff of  12.30, 12.21, 12.48 a.u.
   NGXF,Y,Z  is equivalent  to a cutoff of  24.60, 24.42, 24.97 a.u.

 SYSTEM =  unknown system                          
 POSCAR =   C  N Fe Ti                             

 Startparameter for this run:
   NWRITE =      2    write-flag & timer
   PREC   = accura    normal or accurate (medium, high low for compatibility)
   ISTART =      1    job   : 0-new  1-cont  2-samecut
   ICHARG =      0    charge: 1-file 2-atom 10-const
   ISPIN  =      2    spin polarized calculation?
   LNONCOLLINEAR =      F non collinear calculations
   LSORBIT =      F    spin-orbit coupling
   INIWAV =      1    electr: 0-lowe 1-rand  2-diag
   LASPH  =      T    aspherical Exc in radial PAW
   METAGGA=      F    non-selfconsistent MetaGGA calc.

 Electronic Relaxation 1
   ENCUT  =  500.0 eV  36.75 Ry    6.06 a.u.  23.66 22.34 36.42*2*pi/ulx,y,z
   ENINI  =  500.0     initial cutoff
   ENAUG  =  644.9 eV  augmentation charge cutoff
   NELM   =    250;   NELMIN=  2; NELMDL=  0     # of ELM steps 
   EDIFF  = 0.1E-03   stopping-criterion for ELM
   LREAL  =      F    real-space projection
   NLSPLINE    = F    spline interpolate recip. space projectors
   LCOMPAT=      F    compatible to vasp.4.4
   GGA_COMPAT  = T    GGA compatible to vasp.4.4-vasp.4.6
   LMAXPAW     = -100 max onsite density
   LMAXMIX     =    2 max onsite mixed and CHGCAR
   VOSKOWN=      0    Vosko Wilk Nusair interpolation
   ROPT   =    0.00000   0.00000   0.00000   0.00000
 Ionic relaxation
   EDIFFG = -.3E-01   stopping-criterion for IOM
   NSW    =      0    number of steps for IOM
   NBLOCK =      1;   KBLOCK =      1    inner block; outer block 
   IBRION =     -1    ionic relax: 0-MD 1-quasi-New 2-CG
   NFREE  =      1    steps in history (QN), initial steepest desc. (CG)
   ISIF   =      2    stress and relaxation
   IWAVPR =     10    prediction:  0-non 1-charg 2-wave 3-comb
   ISYM   =      3    0-nonsym 1-usesym 2-fastsym
   LCORR  =      T    Harris-Foulkes like correction to forces

   POTIM  = 0.5000    time-step for ionic-motion
   TEIN   =    0.0    initial temperature
   TEBEG  =    0.0;   TEEND  =   0.0 temperature during run
   SMASS  =  -3.00    Nose mass-parameter (am)
   estimated Nose-frequenzy (Omega)   =  0.10E-29 period in steps =****** mass=  -0.385E-26a.u.
   SCALEE = 1.0000    scale energy and forces
   NPACO  =    256;   APACO  = 16.0  distance and # of slots for P.C.
   PSTRESS=    0.0 pullay stress

  Mass of Ions in am
   POMASS =  12.01 14.00 55.85 47.88
  Ionic Valenz
   ZVAL   =   4.00  5.00  8.00  4.00
  Atomic Wigner-Seitz radii
   RWIGS  =  -1.00 -1.00 -1.00 -1.00
  virtual crystal weights 
   VCA    =   1.00  1.00  1.00  1.00
   NELECT =     243.0000    total number of electrons
   NUPDOWN=      -1.0000    fix difference up-down

 DOS related values:
   EMIN   =  10.00;   EMAX   =-10.00  energy-range for DOS
   EFERMI =   0.00
   ISMEAR =     0;   SIGMA  =   0.10  broadening in eV -4-tet -1-fermi 0-gaus

 Electronic relaxation 2 (details)
   IALGO  =     53    algorithm
   LDIAG  =      T    sub-space diagonalisation (order eigenvalues)
   LSUBROT=      F    optimize rotation matrix (better conditioning)
   TURBO    =      0    0=normal 1=particle mesh
   IRESTART =      0    0=no restart 2=restart with 2 vectors
   NREBOOT  =      0    no. of reboots
   NMIN     =      0    reboot dimension
   EREF     =   0.00    reference energy to select bands
   IMIX   =      4    mixing-type and parameters
     AMIX     =   0.40;   BMIX     =  1.00
     AMIX_MAG =   1.60;   BMIX_MAG =  1.00
     AMIN     =   0.10
     WC   =   100.;   INIMIX=   1;  MIXPRE=   1;  MAXMIX= -45

 Intra band minimization:
   WEIMIN = 0.0000     energy-eigenvalue tresh-hold
   EBREAK =  0.16E-06  absolut break condition
   DEPER  =   0.30     relativ break condition  

   TIME   =   0.20     timestep for ELM

  volume/ion in A,a.u.               =      54.77       369.63
  Fermi-wavevector in a.u.,A,eV,Ry     =   0.694933  1.313232  6.570680  0.482931
  Thomas-Fermi vector in A             =   1.777564
 
 Write flags
   LWAVE        =      T    write WAVECAR
   LDOWNSAMPLE  =      F    k-point downsampling of WAVECAR
   LCHARG       =      T    write CHGCAR
   LVTOT        =      F    write LOCPOT, total local potential
   LVHAR        =      F    write LOCPOT, Hartree potential only
   LELF         =      F    write electronic localiz. function (ELF)
   LORBIT       =     11    0 simple, 1 ext, 2 COOP (PROOUT), +10 PAW based schemes


 Dipole corrections
   LMONO  =      F    monopole corrections only (constant potential shift)
   LDIPOL =      T    correct potential (dipole corrections)
   IDIPOL =      3    1-x, 2-y, 3-z, 4-all directions 
   EPSILON=  1.0000000 bulk dielectric constant

 Exchange correlation treatment:
   GGA     =    PE    GGA type
   LEXCH   =     8    internal setting for exchange type
   VOSKOWN=      0    Vosko Wilk Nusair interpolation
   EXXOEP  =     0    0=HF, 1=EXX-LHF (local Hartree Fock) 2=EXX OEP
   LHFCALC =     T    Hartree Fock is set to
   LSYMGRAD=     F    symmetrize gradient (conserves proper symmetry)
   PRECFOCK=normal    Normal, Fast or Accurate (Low or Medium for compatibility)
   LRHFCALC=     F    long range Hartree Fock
   LRSCOR  =     F    long range correlation only (use DFT for short range part)
   LTHOMAS =     F    Thomas Fermi screening in HF
   LMODELHF=     F    short range full HF, long range fraction AEXX
   ENCUT4O =  -1.0   cutoff for four orbital integrals eV
   LMAXFOCK=     4    L truncation for augmentation on plane wave grid
   LMAXFOCKAE=  -1    L truncation for all-electron charge restoration on plane wave grid
   NMAXFOCKAE=   1    number of basis functions for all-electron charge restoration
   LFOCKAEDFT=     F  apply the AE augmentation even for DFT
   NKREDX  =     1    reduce k-point grid by
   NKREDY  =     1    reduce k-point grid by
   NKREDZ  =     1    reduce k-point grid by
   SHIFTRED=     F    shift reduced grid of Gamma
   HFKIDENT=     F    idential grid for each k-point
   ODDONLY =     F    use only odd q-grid points
   EVENONLY=     F    use only even q-grid points
   HFALPHA =   -1.0000 decay constant for conv. correction
   MCALPHA =    0.0000 extent of test-charge in conv. correction in multipole expansion
   AEXX    =    0.2500 exact exchange contribution
   HFSCREEN=    0.2000 screening length (either q_TF or 0.3 A-1)
   HFSCREENC=   0.2000 screening length for correlation (either q_TF or 0.3 A-1)
   HFRCUT  =    0.0000 spherical cutoff for potential kernel
   ALDAX   =    0.7500 LDA exchange part
   AGGAX   =    0.7500 GGA exchange part
   ALDAC   =    1.0000 LDA correlation
   AGGAC   =    1.0000 GGA correlation
   ENCUTFOCK=  -1.0 apply spherical cutoff to Coloumb kernel
   NBANDSGWLOW=     1    first orbital included in HF term
   NBLOCK_FOCK=    64    blocking factor in FOCK_ACC
 Linear response parameters
   LEPSILON=     F    determine dielectric tensor
   LRPA    =     F    only Hartree local field effects (RPA)
   LNABLA  =     F    use nabla operator in PAW spheres
   LVEL    =     F    velocity operator in full k-point grid
   LINTERFAST=   F  fast interpolation
   KINTER  =     0    interpolate to denser k-point grid
   CSHIFT  =0.1000    complex shift for real part using Kramers Kronig
   OMEGAMAX=  -1.0    maximum frequency
   DEG_THRESHOLD= 0.2000000E-02 threshold for treating states as degnerate
   RTIME   =   -0.100 relaxation time in fs
  (WPLASMAI=    0.000 imaginary part of plasma frequency in eV, 0.658/RTIME)
   DFIELD  = 0.0000000 0.0000000 0.0000000 field for delta impulse in time
 
 Orbital magnetization related:
   ORBITALMAG=     F  switch on orbital magnetization
   LCHIMAG   =     F  perturbation theory with respect to B field
   DQ        =  0.001000  dq finite difference perturbation B field
   LLRAUG    =     F  two centre corrections for induced B field



--------------------------------------------------------------------------------------------------------


 Static calculation
 charge density and potential will be updated during run
 spin polarized calculation
 Conjugate gradient for all bands (Freysoldt, et al. PRB 79, 241103 (2009))
 perform sub-space diagonalisation
    before iterative eigenvector-optimisation
 modified Broyden-mixing scheme, WC =      100.0
 initial mixing is a Kerker type mixing with AMIX =  0.4000 and BMIX =      1.0000
 Hartree-type preconditioning will be used
 using additional bands           33
 reciprocal scheme for non local part
 use partial core corrections
 no Harris-corrections to forces 
 use gradient corrections 
 use of overlap-Matrix (Vanderbilt PP)
 Gauss-broadening in eV      SIGMA  =   0.10


--------------------------------------------------------------------------------------------------------


  energy-cutoff  :      500.00
  volume of cell :     3176.89
      direct lattice vectors                 reciprocal lattice vectors
    12.977100000  0.000000000  0.000000000     0.077058819  0.000493865 -0.000249520
    -0.078537984 12.254448330  0.000000000     0.000000000  0.081603021 -0.000183424
     0.064398852  0.044903631 19.977045735     0.000000000  0.000000000  0.050057452

  length of vectors
    12.977100000 12.254700000 19.977200000     0.077060806  0.081603227  0.050057452


 
 old parameters found on file WAVECAR:
  energy-cutoff  :      500.00
  volume of cell :     3176.89
      direct lattice vectors                 reciprocal lattice vectors
    12.977100000  0.000000000  0.000000000     0.077058819  0.000493865 -0.000249520
    -0.078537984 12.254448330  0.000000000     0.000000000  0.081603021 -0.000183424
     0.064398852  0.044903631 19.977045735     0.000000000  0.000000000  0.050057452

  length of vectors

 
 k-points in units of 2pi/SCALE and weight: KPOINTS created by Atomic Simulation Env
   0.01926470  0.02052422 -0.00010824       0.500
  -0.01926470  0.02027729  0.00001652       0.500
 
 k-points in reciprocal lattice and weights: KPOINTS created by Atomic Simulation Env
   0.25000000  0.25000000 -0.00000000       0.500
  -0.25000000  0.25000000  0.00000000       0.500
 
 position of ions in fractional coordinates (direct lattice) 
   0.22751323  0.00217149  0.50204861
   0.05840013  0.10109779  0.50079905
   0.11541720  0.00163812  0.50171931
   0.28290900  0.10619782  0.50252181
   0.22376286  0.20717599  0.50408765
   0.05257345  0.30019205  0.50009975
   0.11226047  0.20251906  0.50172971
   0.21170395  0.40215043  0.50789913
   0.04956551  0.50140567  0.49990660
   0.10441932  0.40166287  0.50205414
   0.26657417  0.50202522  0.51790571
   0.21181338  0.60274697  0.51170168
   0.05149805  0.70190457  0.50079591
   0.10390604  0.60131716  0.50252723
   0.22052421  0.79898936  0.50653630
   0.05722042  0.90197615  0.50094668
   0.11010959  0.80134173  0.50318065
   0.28153652  0.89807035  0.50219702
   0.55790187  0.99878187  0.49710143
   0.39494219  0.10428578  0.50128960
   0.44748316  0.99970165  0.49867752
   0.61449850  0.09886881  0.49726053
   0.55945040  0.19840811  0.49854459
   0.61441506  0.30045852  0.49662906
   0.60965868  0.49730309  0.49385218
   0.61210726  0.69636484  0.49233548
   0.55630518  0.79853331  0.49370320
   0.39383957  0.89581268  0.49837097
   0.61310657  0.89854729  0.49563119
   0.89062543  0.00032701  0.49819304
   0.72463029  0.09887987  0.49675924
   0.78011862  0.99947604  0.49704144
   0.94700784  0.10040759  0.49901310
   0.88963986  0.19917979  0.49761361
   0.72328870  0.29850121  0.49572204
   0.77941765  0.19870703  0.49652124
   0.94324348  0.29981643  0.49772743
   0.88684076  0.39981396  0.49619365
   0.72095444  0.49869832  0.49406065
   0.77745295  0.39948146  0.49512396
   0.94056033  0.50068231  0.49674417
   0.88586863  0.60049663  0.49565648
   0.72126910  0.69977292  0.49390358
   0.77619966  0.59940576  0.49400890
   0.94227816  0.70112879  0.49734326
   0.88847093  0.80123075  0.49715297
   0.72364728  0.89962755  0.49614868
   0.77809955  0.80026067  0.49569331
   0.94601901  0.90090090  0.49871402
   0.27084868  0.30862510  0.50772669
   0.26772889  0.69975959  0.51312179
   0.45281820  0.20031212  0.50218712
   0.55801570  0.39791457  0.49698409
   0.37069363  0.49543293  0.53148775
   0.55772540  0.59631892  0.49012044
   0.44923006  0.79833809  0.49377651
   0.41299847  0.35159586  0.51032638
   0.39927236  0.62812905  0.48283174
 
 position of ions in cartesian coordinates  (Angst):
   2.98462271  0.04915427 10.02944811
   0.78217520  1.26138531 10.00448551
   1.52996203  0.04260333 10.02286970
   3.69535961  1.32396072 10.03890119
   2.91998448  2.56146286 10.07018199
   0.69088026  3.70114432  9.99051563
   1.47322077  2.50428888 10.02307738
   2.74842742  4.95093823 10.14632415
   0.63603055  6.16689746  9.98665701
   1.35584591  4.94470094 10.02955850
   3.45328417  6.17529797 10.34622606
   2.73433789  7.40930886 10.22228791
   0.64541980  8.62394089 10.00442277
   1.33353506  7.39137541 10.03900954
   2.83163407  9.81391914 10.11909892
   0.70397614 11.07571444 10.00743471
   1.39837159  9.84259545 10.05206286
   3.61533585 11.02790712 10.03241293
   7.19351885 12.26184251  9.93061806
   5.14929637  1.30047439 10.01428533
   5.76063343 12.27318464  9.96210360
   7.99866655  1.23391150  9.93379642
   7.27656691  2.45376842  9.95944814
   7.98171062  3.70425390  9.92118146
   7.90434797  6.11635073  9.86570751
   7.92039190  8.55567464  9.83540846
   7.18830665  9.80775426  9.86273150
   5.07263467 11.00006890  9.95597965
   7.91769328 11.03345699  9.90124691
  11.58979259  0.02637795  9.95242524
   9.42782465  1.23402460  9.92378212
  10.07718945 12.27034646  9.92941963
  12.31366556  1.25284707  9.96880745
  11.56134794  2.46318311  9.94084980
   9.39467003  3.68022735  9.90306194
  10.13095007  2.45734070  9.91902747
  12.24907107  3.69643477  9.94312368
  11.50917492  4.92178047  9.91248317
   9.34854805  6.13345794  9.86987220
  10.08959557  4.91765782  9.89111402
  12.19841267  6.15789110  9.92348109
  11.48076376  7.38101171  9.90175219
   9.33682937  8.59750911  9.86673432
  10.05755810  7.36756968  9.86883832
  12.20500106  8.61427900  9.93544900
  11.49886520  9.84096478  9.93164768
   9.35213965 11.04671823  9.91158485
  10.06654688  9.82901147  9.90248788
  12.23794495 11.06243762  9.96283280
   3.52328859  3.80482912 10.14287937
   3.45243131  8.59820881 10.25065748
   5.89287521  2.47726459 10.03221506
   7.24217934  4.89853990  9.92827397
   4.80584519  6.09512291 10.61755502
   7.22238775  7.32956755  9.79115837
   5.79880218  9.80536526  9.86419590
   5.36477320  4.33152879 10.19481334
   5.16315915  7.71905590  9.64555173
 


--------------------------------------------------------------------------------------------------------


 k-point  1 :   0.2500 0.2500-0.0000  plane waves:   80632
 k-point  2 :  -0.2500 0.2500 0.0000  plane waves:   80655

 maximum and minimum number of plane-waves per node :      2052     1994

 maximum number of plane-waves:     80655
 maximum index in each direction: 
   IXMAX=   23   IYMAX=   22   IZMAX=   36
   IXMIN=  -23   IYMIN=  -22   IZMIN=  -36


 parallel 3D FFT for wavefunctions:
    minimum data exchange during FFTs selected (reduces bandwidth)
 parallel 3D FFT for charge:
    minimum data exchange during FFTs selected (reduces bandwidth)


 FFT grid for exact exchange (Hartree Fock) 
  NGX = 72; NGY = 70; NGZ =112

 
 Radii for the augmentation spheres in the non-local exchange
 for species   1 augmentation radius   0.874 (default was   0.699)
       energy cutoff for augmentation   2000.0
 for species   2 augmentation radius   0.886 (default was   0.709)
       energy cutoff for augmentation   2000.0
 for species   3 augmentation radius   1.263 (default was   1.010)
       energy cutoff for augmentation   2000.0
 for species   4 augmentation radius   1.575 (default was   1.260)
       energy cutoff for augmentation   2000.0

 real space projection operators:
  total allocation   :       2813.00 KBytes
  max/ min on nodes  :        130.69         22.18

 Maximum index for augmentation-charges in exchange           79
  SETUP_FOCK is finished

 total amount of memory used by VASP MPI-rank0   139957. kBytes
=======================================================================

   base      :      30000. kBytes
   nonl-proj :       4284. kBytes
   fftplans  :      11188. kBytes
   grid      :      29312. kBytes
   one-center:         62. kBytes
   HF        :         23. kBytes
   nonlr-proj:       3009. kBytes
   wavefun   :      62079. kBytes
 
     INWAV:  cpu time    2.6026: real time    5.1354
 Broyden mixing: mesh for mixing (old mesh)
   NGX = 47   NGY = 45   NGZ = 73
  (NGX  =192   NGY  =180   NGZ  =300)
  gives a total of 154395 points

 charge density for first step will be calculated from the start-wavefunctions


--------------------------------------------------------------------------------------------------------


 Maximum index for augmentation-charges         1067 (set IRDMAX)


--------------------------------------------------------------------------------------------------------


 initial charge from wavefunction
 First call to EWALD:  gamma=   0.121
 Maximum number of real-space cells 3x 3x 2
 Maximum number of reciprocal cells 2x 2x 4

    FEWALD:  cpu time    0.0032: real time    0.0032


--------------------------------------- Iteration      1(   1)  ---------------------------------------


    POTLOK:  cpu time    0.8368: real time    0.8418
    SETDIJ:  cpu time    0.9487: real time    0.9510
    TRIAL :  cpu time  161.7518: real time  162.1813
    CORREC:  cpu time    0.0010: real time    0.0010
    CHARGE:  cpu time    0.7357: real time    0.7375
    --------------------------------------------
      LOOP:  cpu time  164.2941: real time  164.7345

 eigenvalue-minimisations  :     0
 total energy-change (2. order) :-0.6096609E+03  (-0.5195695E+00)
 number of electron     243.0000014 magnetization       2.9824645
 augmentation part       11.4198775 magnetization       1.8512668

 DIPCOR: dipole corrections for dipol
 direction  3 min pos     1,
 dipolmoment           0.000774      0.000540      0.240180 electrons x Angstroem
 Tr[quadrupol]     -6432.753094

 energy correction for charged system         0.000000 eV
 dipol+quadrupol energy correction            0.001649 eV
 added-field ion interaction          0.000000 eV  (added to PSCEN)


 Free energy of the ion-electron system (eV)
  ---------------------------------------------------
  alpha Z        PSCENC =       101.85854893
  Ewald energy   TEWEN  =     38925.97907354
  -Hartree energ DENC   =    -47223.29256614
  -exchange      EXHF   =       553.95812577
  -V(xc)+E(xc)   XCENC  =       600.42174397
  PAW double counting   =     26261.74576611   -26268.06059496
  entropy T*S    EENTRO =        -0.00749692
  eigenvalues    EBANDS =     -3200.07118762
  atomic energy  EATOM  =      9637.81491469
  ---------------------------------------------------
  free energy    TOTEN  =      -609.66093800 eV

  energy without entropy =     -609.65344108  energy(sigma->0) =     -609.65718954
  exchange ACFDT corr.  =        -0.02148334  see jH, gK, PRB 81, 115126


--------------------------------------------------------------------------------------------------------




--------------------------------------- Iteration      1(   2)  ---------------------------------------


    POTLOK:  cpu time    0.8442: real time    0.8474
    SETDIJ:  cpu time    0.9474: real time    0.9497
    TRIAL :  cpu time  159.8840: real time  160.2874
    CORREC:  cpu time    0.0013: real time    0.0013
    CHARGE:  cpu time    0.7372: real time    0.7390
    --------------------------------------------
      LOOP:  cpu time  162.4175: real time  162.8298

 eigenvalue-minimisations  :     0
 total energy-change (2. order) :-0.4215262E+00  (-0.4420283E+00)
 number of electron     243.0000014 magnetization       2.9982432
 augmentation part       11.3736995 magnetization       1.8763973

 DIPCOR: dipole corrections for dipol
 direction  3 min pos     1,
 dipolmoment           0.000808      0.000564      0.250699 electrons x Angstroem
 Tr[quadrupol]     -6432.540581

 energy correction for charged system         0.000000 eV
 dipol+quadrupol energy correction            0.001797 eV
 added-field ion interaction          0.000000 eV  (added to PSCEN)


 Free energy of the ion-electron system (eV)
  ---------------------------------------------------
  alpha Z        PSCENC =       101.85869657
  Ewald energy   TEWEN  =     38925.97907354
  -Hartree energ DENC   =    -47208.18251773
  -exchange      EXHF   =       553.90442715
  -V(xc)+E(xc)   XCENC  =       600.08911312
  PAW double counting   =     26400.74020059   -26406.99475579
  entropy T*S    EENTRO =        -0.00209261
  eigenvalues    EBANDS =     -3215.28411946
  atomic energy  EATOM  =      9637.81491469
  ---------------------------------------------------
  free energy    TOTEN  =      -610.08246424 eV

  energy without entropy =     -610.08037163  energy(sigma->0) =     -610.08141793
  exchange ACFDT corr.  =        -0.01817123  see jH, gK, PRB 81, 115126


--------------------------------------------------------------------------------------------------------




--------------------------------------- Iteration      1(   3)  ---------------------------------------


    POTLOK:  cpu time    0.8508: real time    0.8532
    SETDIJ:  cpu time    0.9471: real time    0.9502
    TRIAL :  cpu time  159.3196: real time  159.7260
    CORREC:  cpu time    0.0013: real time    0.0013
    CHARGE:  cpu time    0.7527: real time    0.7546
    --------------------------------------------
      LOOP:  cpu time  161.8734: real time  162.2904

 eigenvalue-minimisations  :     0
 total energy-change (2. order) :-0.3264694E+00  (-0.2356301E+00)
 number of electron     243.0000014 magnetization       2.9999228
 augmentation part       11.3439390 magnetization       1.8976032

 DIPCOR: dipole corrections for dipol
 direction  3 min pos     1,
 dipolmoment           0.000847      0.000590      0.262654 electrons x Angstroem
 Tr[quadrupol]     -6432.345248

 energy correction for charged system         0.000000 eV
 dipol+quadrupol energy correction            0.001973 eV
 added-field ion interaction          0.000000 eV  (added to PSCEN)


 Free energy of the ion-electron system (eV)
  ---------------------------------------------------
  alpha Z        PSCENC =       101.85887205
  Ewald energy   TEWEN  =     38925.97907354
  -Hartree energ DENC   =    -47192.44448648
  -exchange      EXHF   =       553.87915366
  -V(xc)+E(xc)   XCENC  =       599.72841635
  PAW double counting   =     26574.00353763   -26580.03340955
  entropy T*S    EENTRO =        -0.00038857
  eigenvalues    EBANDS =     -3231.19291295
  atomic energy  EATOM  =      9637.81491469
  ---------------------------------------------------
  free energy    TOTEN  =      -610.40893367 eV

  energy without entropy =     -610.40854511  energy(sigma->0) =     -610.40873939
  exchange ACFDT corr.  =        -0.00325442  see jH, gK, PRB 81, 115126


--------------------------------------------------------------------------------------------------------




--------------------------------------- Iteration      1(   4)  ---------------------------------------


    POTLOK:  cpu time    0.8518: real time    0.8569
    SETDIJ:  cpu time    0.9469: real time    0.9492
    TRIAL :  cpu time  159.6030: real time  160.0039
    CORREC:  cpu time    0.0011: real time    0.0011
    CHARGE:  cpu time    0.7347: real time    0.7365
    --------------------------------------------
      LOOP:  cpu time  162.1384: real time  162.5518

 eigenvalue-minimisations  :     0
 total energy-change (2. order) :-0.1758419E+00  (-0.1286682E+00)
 number of electron     243.0000014 magnetization       2.9999968
 augmentation part       11.3398352 magnetization       1.9146102

 DIPCOR: dipole corrections for dipol
 direction  3 min pos     1,
 dipolmoment           0.000868      0.000605      0.269282 electrons x Angstroem
 Tr[quadrupol]     -6432.284344

 energy correction for charged system         0.000000 eV
 dipol+quadrupol energy correction            0.002073 eV
 added-field ion interaction          0.000000 eV  (added to PSCEN)


 Free energy of the ion-electron system (eV)
  ---------------------------------------------------
  alpha Z        PSCENC =       101.85897285
  Ewald energy   TEWEN  =     38925.97907354
  -Hartree energ DENC   =    -47185.02240230
  -exchange      EXHF   =       553.99893390
  -V(xc)+E(xc)   XCENC  =       599.54852183
  PAW double counting   =     26717.47055937   -26723.28575176
  entropy T*S    EENTRO =        -0.00005889
  eigenvalues    EBANDS =     -3238.94720914
  atomic energy  EATOM  =      9637.81491469
  ---------------------------------------------------
  free energy    TOTEN  =      -610.58477559 eV

  energy without entropy =     -610.58471670  energy(sigma->0) =     -610.58474614
  exchange ACFDT corr.  =        -0.00045161  see jH, gK, PRB 81, 115126


--------------------------------------------------------------------------------------------------------




--------------------------------------- Iteration      1(   5)  ---------------------------------------


    POTLOK:  cpu time    0.8510: real time    0.8534
    SETDIJ:  cpu time    0.9468: real time    0.9491
    TRIAL :  cpu time  159.4343: real time  159.8337
    CORREC:  cpu time    0.0011: real time    0.0011
    CHARGE:  cpu time    0.7337: real time    0.7354
    --------------------------------------------
      LOOP:  cpu time  161.9688: real time  162.3778

 eigenvalue-minimisations  :     0
 total energy-change (2. order) :-0.1015547E+00  (-0.7867739E-01)
 number of electron     243.0000014 magnetization       2.9999999
 augmentation part       11.3493410 magnetization       1.9270382

 DIPCOR: dipole corrections for dipol
 direction  3 min pos     1,
 dipolmoment           0.000883      0.000616      0.274032 electrons x Angstroem
 Tr[quadrupol]     -6432.335805

 energy correction for charged system         0.000000 eV
 dipol+quadrupol energy correction            0.002147 eV
 added-field ion interaction          0.000000 eV  (added to PSCEN)


 Free energy of the ion-electron system (eV)
  ---------------------------------------------------
  alpha Z        PSCENC =       101.85904665
  Ewald energy   TEWEN  =     38925.97907354
  -Hartree energ DENC   =    -47186.19585459
  -exchange      EXHF   =       554.25794802
  -V(xc)+E(xc)   XCENC  =       599.57244759
  PAW double counting   =     26815.84979025   -26821.63397214
  entropy T*S    EENTRO =        -0.00000889
  eigenvalues    EBANDS =     -3238.18966537
  atomic energy  EATOM  =      9637.81491469
  ---------------------------------------------------
  free energy    TOTEN  =      -610.68633025 eV

  energy without entropy =     -610.68632136  energy(sigma->0) =     -610.68632581
  exchange ACFDT corr.  =        -0.00005174  see jH, gK, PRB 81, 115126


--------------------------------------------------------------------------------------------------------




--------------------------------------- Iteration      1(   6)  ---------------------------------------


    POTLOK:  cpu time    0.8496: real time    0.8528
    SETDIJ:  cpu time    0.9482: real time    0.9505
    TRIAL :  cpu time  159.2997: real time  159.7009
    CORREC:  cpu time    0.0011: real time    0.0011
    CHARGE:  cpu time    0.7323: real time    0.7341
    --------------------------------------------
      LOOP:  cpu time  161.8322: real time  162.2444

 eigenvalue-minimisations  :     0
 total energy-change (2. order) :-0.6414427E-01  (-0.4879813E-01)
 number of electron     243.0000014 magnetization       3.0000001
 augmentation part       11.3595598 magnetization       1.9354133

 DIPCOR: dipole corrections for dipol
 direction  3 min pos     1,
 dipolmoment           0.000906      0.000632      0.281041 electrons x Angstroem
 Tr[quadrupol]     -6432.423956

 energy correction for charged system         0.000000 eV
 dipol+quadrupol energy correction            0.002258 eV
 added-field ion interaction          0.000000 eV  (added to PSCEN)


 Free energy of the ion-electron system (eV)
  ---------------------------------------------------
  alpha Z        PSCENC =       101.85915788
  Ewald energy   TEWEN  =     38925.97907354
  -Hartree energ DENC   =    -47191.26702180
  -exchange      EXHF   =       554.55604984
  -V(xc)+E(xc)   XCENC  =       599.69981436
  PAW double counting   =     26876.19271815   -26882.06730277
  entropy T*S    EENTRO =        -0.00000154
  eigenvalues    EBANDS =     -3233.51786953
  atomic energy  EATOM  =      9637.81491469
  ---------------------------------------------------
  free energy    TOTEN  =      -610.75047452 eV

  energy without entropy =     -610.75047298  energy(sigma->0) =     -610.75047375
  exchange ACFDT corr.  =        -0.00000614  see jH, gK, PRB 81, 115126


--------------------------------------------------------------------------------------------------------




--------------------------------------- Iteration      1(   7)  ---------------------------------------


    POTLOK:  cpu time    0.8472: real time    0.8496
    SETDIJ:  cpu time    0.9467: real time    0.9498
    TRIAL :  cpu time  159.1931: real time  159.5994
    CORREC:  cpu time    0.0011: real time    0.0011
    CHARGE:  cpu time    0.7319: real time    0.7336
    --------------------------------------------
      LOOP:  cpu time  161.7216: real time  162.1384

 eigenvalue-minimisations  :     0
 total energy-change (2. order) :-0.4054283E-01  (-0.3064804E-01)
 number of electron     243.0000014 magnetization       3.0000001
 augmentation part       11.3658184 magnetization       1.9409501

 DIPCOR: dipole corrections for dipol
 direction  3 min pos     1,
 dipolmoment           0.000934      0.000652      0.289876 electrons x Angstroem
 Tr[quadrupol]     -6432.497218

 energy correction for charged system         0.000000 eV
 dipol+quadrupol energy correction            0.002403 eV
 added-field ion interaction          0.000000 eV  (added to PSCEN)


 Free energy of the ion-electron system (eV)
  ---------------------------------------------------
  alpha Z        PSCENC =       101.85930212
  Ewald energy   TEWEN  =     38925.97907354
  -Hartree energ DENC   =    -47196.17715502
  -exchange      EXHF   =       554.80838611
  -V(xc)+E(xc)   XCENC  =       599.83334091
  PAW double counting   =     26910.15128283   -26916.11793227
  entropy T*S    EENTRO =        -0.00000032
  eigenvalues    EBANDS =     -3228.94222872
  atomic energy  EATOM  =      9637.81491469
  ---------------------------------------------------
  free energy    TOTEN  =      -610.79101735 eV

  energy without entropy =     -610.79101703  energy(sigma->0) =     -610.79101719
  exchange ACFDT corr.  =        -0.00000088  see jH, gK, PRB 81, 115126


--------------------------------------------------------------------------------------------------------




--------------------------------------- Iteration      1(   8)  ---------------------------------------


    POTLOK:  cpu time    0.8473: real time    0.8508
    SETDIJ:  cpu time    0.9478: real time    0.9507
    TRIAL :  cpu time  159.5020: real time  159.9035
    CORREC:  cpu time    0.0007: real time    0.0007
    CHARGE:  cpu time    0.7298: real time    0.7316
    --------------------------------------------
      LOOP:  cpu time  162.0291: real time  162.4424

 eigenvalue-minimisations  :     0
 total energy-change (2. order) :-0.2596544E-01  (-0.1996206E-01)
 number of electron     243.0000014 magnetization       3.0000001
 augmentation part       11.3690617 magnetization       1.9448818

 DIPCOR: dipole corrections for dipol
 direction  3 min pos     1,
 dipolmoment           0.000961      0.000670      0.298141 electrons x Angstroem
 Tr[quadrupol]     -6432.540694

 energy correction for charged system         0.000000 eV
 dipol+quadrupol energy correction            0.002542 eV
 added-field ion interaction          0.000000 eV  (added to PSCEN)


 Free energy of the ion-electron system (eV)
  ---------------------------------------------------
  alpha Z        PSCENC =       101.85944107
  Ewald energy   TEWEN  =     38925.97907354
  -Hartree energ DENC   =    -47199.27714458
  -exchange      EXHF   =       554.98285814
  -V(xc)+E(xc)   XCENC  =       599.92653033
  PAW double counting   =     26927.64063349   -26933.65503768
  entropy T*S    EENTRO =        -0.00000009
  eigenvalues    EBANDS =     -3226.08825147
  atomic energy  EATOM  =      9637.81491469
  ---------------------------------------------------
  free energy    TOTEN  =      -610.81698279 eV

  energy without entropy =     -610.81698271  energy(sigma->0) =     -610.81698275
  exchange ACFDT corr.  =        -0.00000016  see jH, gK, PRB 81, 115126


--------------------------------------------------------------------------------------------------------




--------------------------------------- Iteration      1(   9)  ---------------------------------------


    POTLOK:  cpu time    0.8414: real time    0.8438
    SETDIJ:  cpu time    0.9474: real time    0.9497
    TRIAL :  cpu time  159.4806: real time  159.8840
    CORREC:  cpu time    0.0011: real time    0.0010
    CHARGE:  cpu time    0.7318: real time    0.7336
    --------------------------------------------
      LOOP:  cpu time  162.0037: real time  162.4167

 eigenvalue-minimisations  :     0
 total energy-change (2. order) :-0.1718331E-01  (-0.1335885E-01)
 number of electron     243.0000014 magnetization       3.0000001
 augmentation part       11.3713654 magnetization       1.9482149

 DIPCOR: dipole corrections for dipol
 direction  3 min pos     1,
 dipolmoment           0.000981      0.000684      0.304182 electrons x Angstroem
 Tr[quadrupol]     -6432.560591

 energy correction for charged system         0.000000 eV
 dipol+quadrupol energy correction            0.002646 eV
 added-field ion interaction          0.000000 eV  (added to PSCEN)


 Free energy of the ion-electron system (eV)
  ---------------------------------------------------
  alpha Z        PSCENC =       101.85954511
  Ewald energy   TEWEN  =     38925.97907354
  -Hartree energ DENC   =    -47200.66370373
  -exchange      EXHF   =       555.08739643
  -V(xc)+E(xc)   XCENC  =       599.97530305
  PAW double counting   =     26935.92390233   -26941.95755726
  entropy T*S    EENTRO =        -0.00000003
  eigenvalues    EBANDS =     -3224.85304017
  atomic energy  EATOM  =      9637.81491469
  ---------------------------------------------------
  free energy    TOTEN  =      -610.83416610 eV

  energy without entropy =     -610.83416607  energy(sigma->0) =     -610.83416609
  exchange ACFDT corr.  =        -0.00000004  see jH, gK, PRB 81, 115126


--------------------------------------------------------------------------------------------------------




--------------------------------------- Iteration      1(  10)  ---------------------------------------


    POTLOK:  cpu time    0.8397: real time    0.8434
    SETDIJ:  cpu time    0.9465: real time    0.9489
    TRIAL :  cpu time  158.8947: real time  159.2932
    CORREC:  cpu time    0.0010: real time    0.0010
    CHARGE:  cpu time    0.7315: real time    0.7332
    --------------------------------------------
      LOOP:  cpu time  161.4154: real time  161.8248

 eigenvalue-minimisations  :     0
 total energy-change (2. order) :-0.1163929E-01  (-0.9065809E-02)
 number of electron     243.0000014 magnetization       3.0000001
 augmentation part       11.3736724 magnetization       1.9513286

 DIPCOR: dipole corrections for dipol
 direction  3 min pos     1,
 dipolmoment           0.000992      0.000692      0.307875 electrons x Angstroem
 Tr[quadrupol]     -6432.568887

 energy correction for charged system         0.000000 eV
 dipol+quadrupol energy correction            0.002710 eV
 added-field ion interaction          0.000000 eV  (added to PSCEN)


 Free energy of the ion-electron system (eV)
  ---------------------------------------------------
  alpha Z        PSCENC =       101.85960975
  Ewald energy   TEWEN  =     38925.97907354
  -Hartree energ DENC   =    -47201.07675668
  -exchange      EXHF   =       555.14608174
  -V(xc)+E(xc)   XCENC  =       599.99465384
  PAW double counting   =     26939.63633475   -26945.68891423
  entropy T*S    EENTRO =        -0.00000001
  eigenvalues    EBANDS =     -3224.51080276
  atomic energy  EATOM  =      9637.81491469
  ---------------------------------------------------
  free energy    TOTEN  =      -610.84580539 eV

  energy without entropy =     -610.84580538  energy(sigma->0) =     -610.84580538
  exchange ACFDT corr.  =        -0.00000001  see jH, gK, PRB 81, 115126


--------------------------------------------------------------------------------------------------------




--------------------------------------- Iteration      1(  11)  ---------------------------------------


    POTLOK:  cpu time    0.8377: real time    0.8401
    SETDIJ:  cpu time    0.9355: real time    0.9378
    TRIAL :  cpu time  158.9123: real time  159.3206
    CORREC:  cpu time    0.0009: real time    0.0009
    CHARGE:  cpu time    0.7278: real time    0.7295
    --------------------------------------------
      LOOP:  cpu time  161.4157: real time  161.8339

 eigenvalue-minimisations  :     0
 total energy-change (2. order) :-0.7966893E-02  (-0.6189475E-02)
 number of electron     243.0000014 magnetization       3.0000001
 augmentation part       11.3758626 magnetization       1.9540969

 DIPCOR: dipole corrections for dipol
 direction  3 min pos     1,
 dipolmoment           0.001000      0.000697      0.310187 electrons x Angstroem
 Tr[quadrupol]     -6432.575025

 energy correction for charged system         0.000000 eV
 dipol+quadrupol energy correction            0.002751 eV
 added-field ion interaction          0.000000 eV  (added to PSCEN)


 Free energy of the ion-electron system (eV)
  ---------------------------------------------------
  alpha Z        PSCENC =       101.85965060
  Ewald energy   TEWEN  =     38925.97907354
  -Hartree energ DENC   =    -47201.20640063
  -exchange      EXHF   =       555.18239420
  -V(xc)+E(xc)   XCENC  =       600.00175501
  PAW double counting   =     26941.31919496   -26947.39842370
  entropy T*S    EENTRO =        -0.00000001
  eigenvalues    EBANDS =     -3224.40593094
  atomic energy  EATOM  =      9637.81491469
  ---------------------------------------------------
  free energy    TOTEN  =      -610.85377228 eV

  energy without entropy =     -610.85377228  energy(sigma->0) =     -610.85377228
  exchange ACFDT corr.  =        -0.00000000  see jH, gK, PRB 81, 115126


--------------------------------------------------------------------------------------------------------




--------------------------------------- Iteration      1(  12)  ---------------------------------------


    POTLOK:  cpu time    0.8362: real time    0.8392
    SETDIJ:  cpu time    0.9313: real time    0.9335
    TRIAL :  cpu time  158.5374: real time  158.9378
    CORREC:  cpu time    0.0009: real time    0.0009
    CHARGE:  cpu time    0.7276: real time    0.7293
    --------------------------------------------
      LOOP:  cpu time  161.0351: real time  161.4454

 eigenvalue-minimisations  :     0
 total energy-change (2. order) :-0.5477117E-02  (-0.4269447E-02)
 number of electron     243.0000014 magnetization       3.0000001
 augmentation part       11.3776605 magnetization       1.9563655

 DIPCOR: dipole corrections for dipol
 direction  3 min pos     1,
 dipolmoment           0.001006      0.000702      0.312210 electrons x Angstroem
 Tr[quadrupol]     -6432.582877

 energy correction for charged system         0.000000 eV
 dipol+quadrupol energy correction            0.002787 eV
 added-field ion interaction          0.000000 eV  (added to PSCEN)


 Free energy of the ion-electron system (eV)
  ---------------------------------------------------
  alpha Z        PSCENC =       101.85968660
  Ewald energy   TEWEN  =     38925.97907354
  -Hartree energ DENC   =    -47201.40437813
  -exchange      EXHF   =       555.21094086
  -V(xc)+E(xc)   XCENC  =       600.00732278
  PAW double counting   =     26942.28235109   -26948.38776184
  entropy T*S    EENTRO =        -0.00000000
  eigenvalues    EBANDS =     -3224.22139899
  atomic energy  EATOM  =      9637.81491469
  ---------------------------------------------------
  free energy    TOTEN  =      -610.85924940 eV

  energy without entropy =     -610.85924939  energy(sigma->0) =     -610.85924940
  exchange ACFDT corr.  =        -0.00000000  see jH, gK, PRB 81, 115126


--------------------------------------------------------------------------------------------------------




--------------------------------------- Iteration      1(  13)  ---------------------------------------


    POTLOK:  cpu time    0.8353: real time    0.8377
    SETDIJ:  cpu time    0.9325: real time    0.9351
    TRIAL :  cpu time  158.6943: real time  159.0936
    CORREC:  cpu time    0.0008: real time    0.0008
    CHARGE:  cpu time    0.7269: real time    0.7291
    --------------------------------------------
      LOOP:  cpu time  161.1914: real time  161.6011

 eigenvalue-minimisations  :     0
 total energy-change (2. order) :-0.3800241E-02  (-0.2996420E-02)
 number of electron     243.0000014 magnetization       3.0000001
 augmentation part       11.3790153 magnetization       1.9581430

 DIPCOR: dipole corrections for dipol
 direction  3 min pos     1,
 dipolmoment           0.001014      0.000707      0.314430 electrons x Angstroem
 Tr[quadrupol]     -6432.592046

 energy correction for charged system         0.000000 eV
 dipol+quadrupol energy correction            0.002827 eV
 added-field ion interaction          0.000000 eV  (added to PSCEN)


 Free energy of the ion-electron system (eV)
  ---------------------------------------------------
  alpha Z        PSCENC =       101.85972638
  Ewald energy   TEWEN  =     38925.97907354
  -Hartree energ DENC   =    -47201.71847088
  -exchange      EXHF   =       555.23696065
  -V(xc)+E(xc)   XCENC  =       600.01449682
  PAW double counting   =     26943.23749743   -26949.36143924
  entropy T*S    EENTRO =        -0.00000000
  eigenvalues    EBANDS =     -3223.92580903
  atomic energy  EATOM  =      9637.81491469
  ---------------------------------------------------
  free energy    TOTEN  =      -610.86304964 eV

  energy without entropy =     -610.86304964  energy(sigma->0) =     -610.86304964
  exchange ACFDT corr.  =        -0.00000000  see jH, gK, PRB 81, 115126


--------------------------------------------------------------------------------------------------------




--------------------------------------- Iteration      1(  14)  ---------------------------------------


    POTLOK:  cpu time    0.8390: real time    0.8415
    SETDIJ:  cpu time    0.9344: real time    0.9367
    TRIAL :  cpu time  158.5609: real time  158.9598
    CORREC:  cpu time    0.0011: real time    0.0011
    CHARGE:  cpu time    0.7296: real time    0.7314
    --------------------------------------------
      LOOP:  cpu time  161.0666: real time  161.4755

 eigenvalue-minimisations  :     0
 total energy-change (2. order) :-0.2675317E-02  (-0.2132372E-02)
 number of electron     243.0000014 magnetization       3.0000001
 augmentation part       11.3800805 magnetization       1.9595650

 DIPCOR: dipole corrections for dipol
 direction  3 min pos     1,
 dipolmoment           0.001021      0.000712      0.316689 electrons x Angstroem
 Tr[quadrupol]     -6432.600912

 energy correction for charged system         0.000000 eV
 dipol+quadrupol energy correction            0.002868 eV
 added-field ion interaction          0.000000 eV  (added to PSCEN)


 Free energy of the ion-electron system (eV)
  ---------------------------------------------------
  alpha Z        PSCENC =       101.85976713
  Ewald energy   TEWEN  =     38925.97907354
  -Hartree energ DENC   =    -47202.06943121
  -exchange      EXHF   =       555.26044227
  -V(xc)+E(xc)   XCENC  =       600.02220955
  PAW double counting   =     26944.35157029   -26950.48620711
  entropy T*S    EENTRO =        -0.00000000
  eigenvalues    EBANDS =     -3223.59806411
  atomic energy  EATOM  =      9637.81491469
  ---------------------------------------------------
  free energy    TOTEN  =      -610.86572495 eV

  energy without entropy =     -610.86572495  energy(sigma->0) =     -610.86572495
  exchange ACFDT corr.  =        -0.00000000  see jH, gK, PRB 81, 115126


--------------------------------------------------------------------------------------------------------




--------------------------------------- Iteration      1(  15)  ---------------------------------------


    POTLOK:  cpu time    0.8327: real time    0.8350
    SETDIJ:  cpu time    0.9321: real time    0.9344
    TRIAL :  cpu time  158.7237: real time  159.1306
    CORREC:  cpu time    0.0010: real time    0.0010
    CHARGE:  cpu time    0.7306: real time    0.7324
    --------------------------------------------
      LOOP:  cpu time  161.2219: real time  161.6385

 eigenvalue-minimisations  :     0
 total energy-change (2. order) :-0.1909302E-02  (-0.1538608E-02)
 number of electron     243.0000014 magnetization       3.0000001
 augmentation part       11.3810043 magnetization       1.9607702

 DIPCOR: dipole corrections for dipol
 direction  3 min pos     1,
 dipolmoment           0.001027      0.000716      0.318647 electrons x Angstroem
 Tr[quadrupol]     -6432.608339

 energy correction for charged system         0.000000 eV
 dipol+quadrupol energy correction            0.002903 eV
 added-field ion interaction          0.000000 eV  (added to PSCEN)


 Free energy of the ion-electron system (eV)
  ---------------------------------------------------
  alpha Z        PSCENC =       101.85980271
  Ewald energy   TEWEN  =     38925.97907354
  -Hartree energ DENC   =    -47202.38012453
  -exchange      EXHF   =       555.28035789
  -V(xc)+E(xc)   XCENC  =       600.02879812
  PAW double counting   =     26945.64894301   -26951.79052378
  entropy T*S    EENTRO =        -0.00000000
  eigenvalues    EBANDS =     -3223.30887590
  atomic energy  EATOM  =      9637.81491469
  ---------------------------------------------------
  free energy    TOTEN  =      -610.86763426 eV

  energy without entropy =     -610.86763426  energy(sigma->0) =     -610.86763426
  exchange ACFDT corr.  =        -0.00000000  see jH, gK, PRB 81, 115126


--------------------------------------------------------------------------------------------------------




--------------------------------------- Iteration      1(  16)  ---------------------------------------


    POTLOK:  cpu time    0.8326: real time    0.8348
    SETDIJ:  cpu time    0.9327: real time    0.9350
    TRIAL :  cpu time  158.8689: real time  159.2716
    CORREC:  cpu time    0.0008: real time    0.0008
    CHARGE:  cpu time    0.7275: real time    0.7293
    --------------------------------------------
      LOOP:  cpu time  161.3645: real time  161.7767

 eigenvalue-minimisations  :     0
 total energy-change (2. order) :-0.1384420E-02  (-0.1129527E-02)
 number of electron     243.0000014 magnetization       3.0000001
 augmentation part       11.3818027 magnetization       1.9618136

 DIPCOR: dipole corrections for dipol
 direction  3 min pos     1,
 dipolmoment           0.001032      0.000720      0.320151 electrons x Angstroem
 Tr[quadrupol]     -6432.614167

 energy correction for charged system         0.000000 eV
 dipol+quadrupol energy correction            0.002931 eV
 added-field ion interaction          0.000000 eV  (added to PSCEN)


 Free energy of the ion-electron system (eV)
  ---------------------------------------------------
  alpha Z        PSCENC =       101.85983018
  Ewald energy   TEWEN  =     38925.97907354
  -Hartree energ DENC   =    -47202.62429254
  -exchange      EXHF   =       555.29656607
  -V(xc)+E(xc)   XCENC  =       600.03365137
  PAW double counting   =     26947.10209152   -26953.25027544
  entropy T*S    EENTRO =        -0.00000000
  eigenvalues    EBANDS =     -3223.08057807
  atomic energy  EATOM  =      9637.81491469
  ---------------------------------------------------
  free energy    TOTEN  =      -610.86901868 eV

  energy without entropy =     -610.86901868  energy(sigma->0) =     -610.86901868
  exchange ACFDT corr.  =        -0.00000000  see jH, gK, PRB 81, 115126


--------------------------------------------------------------------------------------------------------




--------------------------------------- Iteration      1(  17)  ---------------------------------------


    POTLOK:  cpu time    0.8322: real time    0.8381
    SETDIJ:  cpu time    0.9321: real time    0.9343
    TRIAL :  cpu time  158.7791: real time  159.1790
    CORREC:  cpu time    0.0009: real time    0.0009
    CHARGE:  cpu time    0.7308: real time    0.7326
    --------------------------------------------
      LOOP:  cpu time  161.2774: real time  161.6902

 eigenvalue-minimisations  :     0
 total energy-change (2. order) :-0.1021545E-02  (-0.8447603E-03)
 number of electron     243.0000014 magnetization       3.0000001
 augmentation part       11.3824330 magnetization       1.9626880

 DIPCOR: dipole corrections for dipol
 direction  3 min pos     1,
 dipolmoment           0.001036      0.000722      0.321303 electrons x Angstroem
 Tr[quadrupol]     -6432.618785

 energy correction for charged system         0.000000 eV
 dipol+quadrupol energy correction            0.002952 eV
 added-field ion interaction          0.000000 eV  (added to PSCEN)


 Free energy of the ion-electron system (eV)
  ---------------------------------------------------
  alpha Z        PSCENC =       101.85985131
  Ewald energy   TEWEN  =     38925.97907354
  -Hartree energ DENC   =    -47202.81267193
  -exchange      EXHF   =       555.30978343
  -V(xc)+E(xc)   XCENC  =       600.03711437
  PAW double counting   =     26948.58607743   -26954.74082997
  entropy T*S    EENTRO =        -0.00000000
  eigenvalues    EBANDS =     -3222.90335309
  atomic energy  EATOM  =      9637.81491469
  ---------------------------------------------------
  free energy    TOTEN  =      -610.87004022 eV

  energy without entropy =     -610.87004022  energy(sigma->0) =     -610.87004022
  exchange ACFDT corr.  =        -0.00000000  see jH, gK, PRB 81, 115126


--------------------------------------------------------------------------------------------------------




--------------------------------------- Iteration      1(  18)  ---------------------------------------


    POTLOK:  cpu time    0.8313: real time    0.8343
    SETDIJ:  cpu time    0.9312: real time    0.9334
[...]
  augment    26.38708    25.40969    30.22378     0.39954    -0.48977     1.05419
  Kinetic  3674.47088  3645.07341  4189.91457     5.04102    -0.22886    -5.82548
  Fock     -295.65428  -295.00068  -273.52390    -0.59878     0.47537    -1.74606
  -------------------------------------------------------------------------------------
  Total     -43.67802   -43.32153    -1.07815    -0.12488     0.35601    -0.67147
  in kB     -22.02778   -21.84800    -0.54374    -0.06298     0.17954    -0.33864
  external pressure =      -14.81 kB  Pullay stress =        0.00 kB


 VOLUME and BASIS-vectors are now :
 -----------------------------------------------------------------------------
  energy-cutoff  :      500.00
  volume of cell :     3176.89
      direct lattice vectors                 reciprocal lattice vectors
    12.977100000  0.000000000  0.000000000     0.077058819  0.000493865 -0.000249520
    -0.078537984 12.254448330  0.000000000     0.000000000  0.081603021 -0.000183424
     0.064398852  0.044903631 19.977045735     0.000000000  0.000000000  0.050057452

  length of vectors
    12.977100000 12.254700000 19.977200000     0.077060806  0.081603227  0.050057452


 FORCES acting on ions:
    Electron-Ion                     Ewald-Force                    Non-Local-Force
 -----------------------------------------------------------------------------------------------
   -.423E+01 0.502E+01 -.290E+01   0.418E+01 -.485E+01 0.288E+01   0.597E-02 -.126E+00 0.165E-01
   0.186E+01 0.874E+01 -.127E+01   -.171E+01 -.901E+01 0.125E+01   -.123E+00 0.294E+00 0.112E-01
   -.105E+02 0.281E+01 -.527E+01   0.106E+02 -.277E+01 0.538E+01   -.108E+00 -.410E-01 -.124E+00
   0.453E+01 0.128E+02 -.364E+01   -.467E+01 -.129E+02 0.367E+01   0.100E+00 -.554E-01 -.316E-01
   0.851E+01 0.475E+02 -.596E+01   -.980E+01 -.505E+02 0.578E+01   0.135E+01 0.327E+01 0.171E+00
   0.832E+01 0.117E+02 0.719E+01   -.869E+01 -.119E+02 -.721E+01   0.297E+00 0.238E+00 0.302E-01
   0.180E+00 0.137E+02 -.945E+00   -.426E+00 -.140E+02 0.977E+00   0.158E+00 0.242E+00 -.314E-01
   0.239E+02 -.222E+02 -.116E+02   -.256E+02 0.252E+02 0.111E+02   0.165E+01 -.304E+01 0.499E+00
   0.537E+01 -.177E+01 0.117E+02   -.549E+01 0.178E+01 -.117E+02   0.162E+00 0.332E-01 -.531E-02
   0.149E+02 -.386E+01 0.651E+01   -.153E+02 0.414E+01 -.656E+01   0.413E+00 -.211E+00 0.567E-01
   0.160E+02 -.313E+02 -.712E+02   -.173E+02 0.301E+02 0.730E+02   0.135E+01 0.118E+01 -.165E+01
   -.217E+01 0.489E+01 -.432E+02   -.750E+00 -.812E+01 0.447E+02   0.274E+01 0.298E+01 -.142E+01
   0.327E+01 -.116E+02 0.380E+01   -.369E+01 0.118E+02 -.376E+01   0.318E+00 -.143E+00 -.233E-01
   0.385E+01 -.412E+01 0.804E+01   -.443E+01 0.368E+01 -.841E+01   0.574E+00 0.334E+00 0.395E+00
   -.864E+01 -.342E+02 -.222E+02   0.696E+01 0.378E+02 0.219E+02   0.173E+01 -.375E+01 0.278E+00
   0.911E+00 -.677E+01 -.641E+00   -.773E+00 0.712E+01 0.555E+00   -.733E-01 -.389E+00 0.892E-01
   -.283E+01 -.760E+01 -.928E+01   0.235E+01 0.800E+01 0.938E+01   0.402E+00 -.310E+00 -.954E-01
   -.752E+01 0.175E+01 -.390E+01   0.740E+01 -.150E+01 0.395E+01   0.795E-01 -.226E+00 -.285E-01
   0.245E+01 0.966E+01 0.748E+01   -.240E+01 -.965E+01 -.745E+01   -.141E+00 0.443E-01 -.185E-01
   0.276E+02 0.350E+02 -.119E+01   -.299E+02 -.374E+02 0.133E+01   0.241E+01 0.261E+01 -.112E+00
   0.146E+02 0.969E+01 0.535E+01   -.149E+02 -.968E+01 -.537E+01   0.344E+00 -.515E-01 0.249E-01
   -.866E+01 0.126E+02 0.824E+01   0.939E+01 -.125E+02 -.826E+01   -.651E+00 -.113E-01 0.267E-01
   -.316E+02 0.120E+02 0.916E+01   0.347E+02 -.121E+02 -.934E+01   -.323E+01 -.110E-01 0.189E+00
   -.198E+02 0.157E+02 0.164E+02   0.216E+02 -.180E+02 -.166E+02   -.167E+01 0.242E+01 0.184E+00
   0.289E+00 -.177E+02 0.231E+02   0.288E+01 0.174E+02 -.227E+02   -.341E+01 0.133E+00 -.350E+00
   0.157E+02 -.163E+02 0.237E+02   -.136E+02 0.189E+02 -.233E+02   -.185E+01 -.261E+01 -.350E+00
   -.751E+01 0.170E+02 0.197E+02   0.107E+02 -.167E+02 -.194E+02   -.315E+01 -.187E+00 -.249E+00
   0.232E+02 -.125E-01 0.574E+01   -.253E+02 0.254E+01 -.535E+01   0.212E+01 -.264E+01 -.383E+00
   -.211E+01 0.460E+01 0.943E+01   0.282E+01 -.475E+01 -.945E+01   -.641E+00 0.405E-01 0.478E-02
   0.372E+00 0.874E+00 0.325E+01   -.381E+00 -.826E+00 -.327E+01   -.591E-01 -.336E-01 0.126E-01
   -.401E+00 0.737E+01 0.797E+01   0.854E+00 -.735E+01 -.798E+01   -.388E+00 0.330E-01 0.908E-02
   -.523E+01 0.405E+01 0.502E+01   0.541E+01 -.404E+01 -.500E+01   -.106E+00 -.312E-02 -.179E-01
   -.803E+01 0.399E+01 0.114E+01   0.812E+01 -.400E+01 -.110E+01   -.114E+00 0.248E-01 -.659E-01
   0.991E+00 0.724E+01 0.674E+01   -.876E+00 -.730E+01 -.674E+01   -.747E-01 0.545E-01 0.908E-03
   -.112E+02 0.598E+01 0.140E+02   0.114E+02 -.647E+01 -.140E+02   -.323E+00 0.381E+00 0.117E-01
   -.743E+01 0.693E+00 0.963E+01   0.758E+01 -.106E+01 -.961E+01   -.156E+00 0.268E+00 -.111E-01
   0.155E+01 -.994E-01 0.956E+01   -.162E+01 -.200E-02 -.957E+01   0.145E+00 0.502E-01 -.457E-02
   0.178E+00 0.348E+01 0.135E+02   0.876E-02 -.358E+01 -.135E+02   -.205E+00 0.171E+00 -.265E-01
   -.102E+01 -.618E+01 0.174E+02   0.186E+01 0.619E+01 -.174E+02   -.602E+00 0.123E-01 -.359E-01
   -.553E+01 -.325E+01 0.144E+02   0.590E+01 0.322E+01 -.143E+02   -.352E+00 0.139E+00 -.759E-01
   0.317E+01 -.277E+01 0.151E+02   -.322E+01 0.278E+01 -.151E+02   -.297E-01 -.159E-01 0.148E-01
   0.262E+01 -.639E+01 0.155E+02   -.252E+01 0.648E+01 -.155E+02   -.150E+00 -.132E+00 -.401E-01
   0.223E+00 -.750E+01 0.150E+02   -.740E-01 0.800E+01 -.150E+02   -.336E+00 -.376E+00 -.956E-02
   -.751E+00 -.487E+01 0.181E+02   0.112E+01 0.488E+01 -.181E+02   -.293E+00 -.147E+00 0.867E-01
   0.210E+01 -.175E+01 0.120E+02   -.218E+01 0.177E+01 -.120E+02   0.170E+00 -.415E-02 0.516E-01
   0.302E+01 -.514E+01 0.738E+01   -.292E+01 0.521E+01 -.735E+01   -.579E-01 -.463E-01 -.265E-01
   0.492E+01 0.215E+00 0.652E+01   -.448E+01 -.199E+00 -.650E+01   -.383E+00 -.582E-01 -.255E-01
   -.154E+01 0.323E+01 0.863E+01   0.167E+01 -.285E+01 -.864E+01   -.147E+00 -.290E+00 -.291E-02
   -.719E+01 0.619E+00 0.322E+01   0.722E+01 -.571E+00 -.320E+01   -.529E-01 -.805E-01 -.156E-01
   -.228E+02 0.312E+02 -.241E+02   0.425E+02 -.301E+02 0.253E+02   -.190E+02 -.131E+01 -.109E+01
   -.106E+03 -.149E+02 -.899E+02   0.127E+03 0.158E+02 0.953E+02   -.200E+02 -.630E+00 -.525E+01
   0.337E+02 0.318E+00 -.584E+01   -.440E+02 0.171E+02 0.719E+01   0.981E+01 -.169E+02 -.137E+01
   0.406E+02 -.350E+02 0.272E+02   -.617E+02 0.344E+02 -.263E+02   0.202E+02 0.835E+00 -.867E+00
   -.102E+03 -.847E+02 -.242E+03   0.123E+03 0.834E+02 0.254E+03   -.198E+02 0.170E+01 -.115E+02
   0.106E+03 -.140E+02 0.624E+02   -.127E+03 0.140E+02 -.635E+02   0.198E+02 -.202E+00 0.105E+01
   0.549E+02 0.871E+02 0.397E+02   -.667E+02 -.106E+03 -.402E+02   0.111E+02 0.182E+02 0.531E+00
   -.275E+02 -.197E+02 -.726E+02   0.266E+02 0.213E+02 0.734E+02   0.113E+01 -.156E+01 -.639E+00
   -.165E+02 -.170E+02 0.146E+03   0.186E+02 0.178E+02 -.142E+03   -.159E+01 -.307E+00 -.393E+01
 -----------------------------------------------------------------------------------------------
   0.859E+00 0.487E+00 0.279E+02   -.217E-12 -.355E-13 -.284E-13   -.647E+00 -.195E+00 -.261E+02
 
 
 POSITION                                       TOTAL-FORCE (eV/Angst)
 -----------------------------------------------------------------------------------
      2.98462      0.04915     10.02945        -0.039824      0.031791      0.001442
      0.78218      1.26139     10.00449         0.029865      0.044273     -0.012915
      1.52996      0.04260     10.02287        -0.000416      0.002583     -0.020617
      3.69536      1.32396     10.03890        -0.041951     -0.095721      0.000421
      2.91998      2.56146     10.07018         0.125327      0.536027      0.010410
      0.69088      3.70114      9.99052        -0.044872      0.033992      0.005537
      1.47322      2.50429     10.02308        -0.087975     -0.094971     -0.001215
      2.74843      4.95094     10.14632         0.046430     -0.182956      0.043110
      0.63603      6.16690      9.98666         0.048641      0.049763      0.028590
      1.35585      4.94470     10.02956         0.022893      0.050043      0.011315
      3.45328      6.17530     10.34623         0.167314      0.023021      0.018386
      2.73434      7.40931     10.22229        -0.026716     -0.100560     -0.015416
      0.64542      8.62394     10.00442        -0.086319     -0.026196      0.016384
      1.33354      7.39138     10.03901         0.027718     -0.092720      0.051223
      2.83163      9.81392     10.11910         0.137973     -0.382039      0.034631
      0.70398     11.07571     10.00743         0.069277     -0.058562      0.008533
      1.39837      9.84260     10.05206        -0.067854      0.085822     -0.009065
      3.61534     11.02791     10.03241        -0.037660      0.011219      0.017431
      7.19352     12.26184      9.93062        -0.095949      0.051961      0.012095
      5.14930      1.30047     10.01429         0.261723      0.411384      0.022937
      5.76063     12.27318      9.96210         0.116101     -0.054148      0.001777
      7.99867      1.23391      9.93380         0.036310      0.047212      0.003837
      7.27657      2.45377      9.95945        -0.361438     -0.138825      0.017493
      7.98171      3.70425      9.92118         0.102131      0.266661      0.016772
      7.90435      6.11635      9.86571        -0.422980     -0.148403      0.050683
      7.92039      8.55567      9.83541         0.118916     -0.118847     -0.019416
      7.18831      9.80775      9.86273        -0.132726      0.130064     -0.002233
      5.07263     11.00007      9.95598         0.168276     -0.247148     -0.010966
      7.91769     11.03346      9.90125         0.030120     -0.109329     -0.009880
     11.58979      0.02638      9.95243        -0.063022      0.010839     -0.003769
      9.42782      1.23402      9.92378         0.051674      0.050671      0.001013
     10.07719     12.27035      9.92942         0.064570      0.009826     -0.001647
     12.31367      1.25285      9.96881        -0.032275      0.008219     -0.021105
     11.56135      2.46318      9.94085         0.042723      0.005702      0.000559
      9.39467      3.68023      9.90306        -0.198564     -0.073474      0.010015
     10.13095      2.45734      9.91903        -0.024613     -0.095682      0.011759
     12.24907      3.69643      9.94312         0.078382     -0.057415     -0.009098
     11.50917      4.92178      9.91248        -0.028334      0.089300      0.005681
      9.34855      6.13346      9.86987         0.212265      0.025169      0.009438
     10.08960      4.91766      9.89111        -0.005530      0.105687      0.015219
     12.19841      6.15789      9.92348        -0.078738     -0.003998      0.005873
     11.48076      7.38101      9.90175        -0.060488     -0.060333      0.010524
      9.33683      8.59751      9.86673        -0.207460      0.094025     -0.015334
     10.05756      7.36757      9.86884         0.059951     -0.150065      0.015291
     12.20500      8.61428      9.93545         0.088325      0.021009      0.025391
     11.49887      9.84096      9.93165         0.041977      0.016502      0.004682
      9.35214     11.04672      9.91158         0.042700     -0.050854     -0.011424
     10.06655      9.82901      9.90249        -0.030926      0.080302     -0.011601
     12.23794     11.06244      9.96283        -0.040136     -0.032704      0.005133
      3.52329      3.80483     10.14288        -0.904667     -0.337023     -0.037254
      3.45243      8.59821     10.25066        -0.542579      0.211837     -0.247010
      5.89288      2.47726     10.03222         0.374091     -0.928829     -0.143997
      7.24218      4.89854      9.92827         0.854477      0.276349     -0.060995
      4.80585      6.09512     10.61756        -0.534630      0.648204     -0.562901
      7.22239      7.32957      9.79116         0.606510     -0.214122      0.032629
      5.79880      9.80537      9.86420         0.239890      0.596450      0.050654
      5.36477      4.33153     10.19481         0.009253     -0.051056      0.051351
      5.16316      7.71906      9.64555        -0.077157     -0.119926      0.599639
 -----------------------------------------------------------------------------------
    total drift:                                0.002169      0.001353      0.000319


--------------------------------------------------------------------------------------------------------



  FREE ENERGIE OF THE ION-ELECTRON SYSTEM (eV)
  ---------------------------------------------------
  free  energy   TOTEN  =      -610.87591340 eV

  energy  without entropy=     -610.87591340  energy(sigma->0) =     -610.87591340
 


--------------------------------------------------------------------------------------------------------


    POTLOK:  cpu time    1.7808: real time    1.7866


--------------------------------------------------------------------------------------------------------


 stress matrix after NEB project (eV)
    -43.67802     -0.12469     -0.67147
     -0.12488    -43.32153      0.35614
     -0.66623      0.35601     -1.07815
  FORCES: max atom, RMS     1.011633    0.351789
  FORCE total and by dimension    2.679149    0.928829
  Stress total and by dimension   61.537520   43.678018
 writing wavefunctions
     LOOP+:  cpu time10055.5120: real time10087.9596
    4ORBIT:  cpu time    0.0000: real time    0.0000
 


 total charge     
 
# of ion       s       p       d       tot
------------------------------------------
    1        0.852   1.697   0.000   2.549
    2        0.864   1.754   0.000   2.619
    3        0.857   1.760   0.000   2.616
    4        0.844   1.736   0.000   2.581
    5        0.851   1.692   0.000   2.543
    6        0.872   1.778   0.000   2.650
    7        0.862   1.770   0.000   2.632
    8        0.871   1.766   0.000   2.637
    9        0.870   1.804   0.000   2.674
   10        0.876   1.815   0.000   2.691
   11        0.865   1.755   0.000   2.620
   12        0.862   1.759   0.000   2.621
   13        0.871   1.775   0.000   2.646
   14        0.874   1.809   0.000   2.683
   15        0.858   1.712   0.000   2.571
   16        0.865   1.759   0.000   2.624
   17        0.864   1.784   0.000   2.649
   18        0.846   1.743   0.000   2.589
   19        0.869   1.754   0.000   2.624
   20        0.849   1.684   0.000   2.533
   21        0.857   1.751   0.000   2.608
   22        0.867   1.788   0.000   2.654
   23        0.864   1.739   0.000   2.603
   24        0.858   1.739   0.000   2.597
   25        0.845   1.667   0.000   2.512
   26        0.851   1.722   0.000   2.574
   27        0.857   1.722   0.000   2.579
   28        0.848   1.677   0.000   2.525
   29        0.864   1.776   0.000   2.641
   30        0.868   1.772   0.000   2.640
   31        0.869   1.788   0.000   2.657
   32        0.866   1.778   0.000   2.644
   33        0.863   1.766   0.000   2.630
   34        0.870   1.776   0.000   2.646
   35        0.871   1.788   0.000   2.659
   36        0.867   1.785   0.000   2.652
   37        0.867   1.792   0.000   2.660
   38        0.868   1.784   0.000   2.652
   39        0.865   1.775   0.000   2.640
   40        0.870   1.782   0.000   2.652
   41        0.873   1.788   0.000   2.661
   42        0.867   1.780   0.000   2.647
   43        0.868   1.777   0.000   2.645
   44        0.868   1.776   0.000   2.644
   45        0.867   1.790   0.000   2.658
   46        0.869   1.770   0.000   2.639
   47        0.868   1.782   0.000   2.649
   48        0.866   1.780   0.000   2.645
   49        0.864   1.769   0.000   2.634
   50        1.231   2.667   0.000   3.899
   51        1.238   2.692   0.000   3.929
   52        1.229   2.659   0.000   3.888
   53        1.224   2.651   0.000   3.875
   54        1.261   2.560   0.000   3.822
   55        1.224   2.660   0.000   3.884
   56        1.229   2.639   0.000   3.868
   57        0.450   0.587   6.262   7.299
   58        0.484   0.701   2.528   3.712
--------------------------------------------------
tot         51.878 106.104   8.790 166.772
 


 magnetization (x)
 
# of ion       s       p       d       tot
------------------------------------------
    1        0.000   0.000   0.000   0.000
    2        0.000   0.001   0.000   0.001
    3       -0.000  -0.000   0.000  -0.000
    4        0.000   0.001   0.000   0.001
    5        0.000   0.003   0.000   0.003
    6        0.000   0.001   0.000   0.002
    7       -0.000  -0.002   0.000  -0.002
    8        0.000   0.005   0.000   0.005
    9        0.000   0.001   0.000   0.001
   10       -0.000  -0.002   0.000  -0.003
   11        0.001   0.004   0.000   0.004
   12       -0.000  -0.002   0.000  -0.002
   13       -0.000  -0.000   0.000  -0.000
   14        0.000   0.003   0.000   0.003
   15        0.000   0.002   0.000   0.003
   16        0.000   0.000   0.000   0.000
   17       -0.000  -0.001   0.000  -0.001
   18        0.000   0.002   0.000   0.002
   19        0.000   0.003   0.000   0.003
   20        0.000   0.004   0.000   0.004
   21       -0.000  -0.002   0.000  -0.002
   22       -0.000  -0.002   0.000  -0.002
   23        0.000   0.004   0.000   0.004
   24        0.000   0.003   0.000   0.004
   25        0.000   0.005   0.000   0.005
   26        0.000   0.002   0.000   0.002
   27        0.000   0.002   0.000   0.003
   28       -0.000   0.001   0.000   0.001
   29       -0.000  -0.001   0.000  -0.001
   30        0.000   0.000   0.000   0.000
   31        0.000   0.001   0.000   0.001
   32       -0.000   0.000   0.000   0.000
   33       -0.000  -0.001   0.000  -0.001
   34        0.000   0.001   0.000   0.001
   35       -0.000  -0.000   0.000  -0.000
   36       -0.000   0.000   0.000   0.000
   37       -0.000   0.000   0.000   0.000
   38        0.000   0.001   0.000   0.001
   39       -0.000  -0.001   0.000  -0.001
   40        0.000   0.001   0.000   0.001
   41        0.000   0.001   0.000   0.001
   42       -0.000  -0.000   0.000  -0.000
   43       -0.000  -0.000   0.000  -0.000
   44        0.000   0.002   0.000   0.002
   45        0.000   0.001   0.000   0.001
   46        0.000   0.000   0.000   0.000
   47        0.000   0.000   0.000   0.001
   48       -0.000  -0.000   0.000  -0.000
   49       -0.000   0.000   0.000   0.000
   50       -0.005  -0.025   0.000  -0.029
   51       -0.002  -0.016   0.000  -0.018
   52       -0.004  -0.022   0.000  -0.026
   53       -0.003  -0.019   0.000  -0.022
   54       -0.004  -0.054   0.000  -0.058
   55       -0.002  -0.007   0.000  -0.009
   56       -0.001  -0.006   0.000  -0.007
   57        0.020   0.016   1.906   1.943
   58        0.056   0.030   0.837   0.923
--------------------------------------------------
tot          0.057  -0.062   2.743   2.738
 

 total amount of memory used by VASP MPI-rank0   166462. kBytes
=======================================================================

   base      :      30000. kBytes
   nonl-proj :       4284. kBytes
   fftplans  :      11188. kBytes
   grid      :      29312. kBytes
   one-center:         62. kBytes
   HF        :         23. kBytes
   nonlr-proj:      29514. kBytes
   wavefun   :      62079. kBytes
 
  
  
 General timing and accounting informations for this job:
 ========================================================
  
                  Total CPU time used (sec):    10087.580
                            User time (sec):    10071.960
                          System time (sec):       15.619
                         Elapsed time (sec):    10126.683
  
                   Maximum memory used (kb):      387876.
                   Average memory used (kb):           0.
  
                          Minor page faults:       770430
                          Major page faults:          197
                 Voluntary context switches:       168838
