 vasp.5.4.4.18Apr17-6-g9f103f2a35 (build Feb 25 2019 10:51:38) complex          
  
 executed on             LinuxIFC date 2021.06.17  13:08:14
 running on   48 total cores
 distrk:  each k-point on   24 cores,    2 groups
 distr:  one band on NCORES_PER_BAND=  24 cores,    1 groups


--------------------------------------------------------------------------------------------------------


 INCAR:
 POTCAR:    PAW_PBE C 08Apr2002                   
 POTCAR:    PAW_PBE N 08Apr2002                   
 POTCAR:    PAW_PBE Fe 06Sep2000                  
 POTCAR:    PAW_PBE Ti 08Apr2002                  

 ----------------------------------------------------------------------------- 
|                                                                             |
|           W    W    AA    RRRRR   N    N  II  N    N   GGGG   !!!           |
|           W    W   A  A   R    R  NN   N  II  NN   N  G    G  !!!           |
|           W    W  A    A  R    R  N N  N  II  N N  N  G       !!!           |
|           W WW W  AAAAAA  RRRRR   N  N N  II  N  N N  G  GGG   !            |
|           WW  WW  A    A  R   R   N   NN  II  N   NN  G    G                |
|           W    W  A    A  R    R  N    N  II  N    N   GGGG   !!!           |
|                                                                             |
|      For optimal performance we recommend to set                            |
|        NCORE= 4 - approx SQRT( number of cores)                             |
|      NCORE specifies how many cores store one orbital (NPAR=cpu/NCORE).     |
|      This setting can  greatly improve the performance of VASP for DFT.     |
|      The default,   NCORE=1            might be grossly inefficient         |
|      on modern multi-core architectures or massively parallel machines.     |
|      Do your own testing !!!!                                               |
|      Unfortunately you need to use the default for GW and RPA calculations. |
|      (for HF NCORE is supported but not extensively tested yet)             |
|                                                                             |
 ----------------------------------------------------------------------------- 


 ----------------------------------------------------------------------------- 
|                                                                             |
|           W    W    AA    RRRRR   N    N  II  N    N   GGGG   !!!           |
|           W    W   A  A   R    R  NN   N  II  NN   N  G    G  !!!           |
|           W    W  A    A  R    R  N N  N  II  N N  N  G       !!!           |
|           W WW W  AAAAAA  RRRRR   N  N N  II  N  N N  G  GGG   !            |
|           WW  WW  A    A  R   R   N   NN  II  N   NN  G    G                |
|           W    W  A    A  R    R  N    N  II  N    N   GGGG   !!!           |
|                                                                             |
|      You have enabled k-point parallelism (KPAR>1).                         |
|      This developmental code was originally  written by Paul Kent at ORNL,  |
|      and carefully double checked in Vienna.                                |
|      GW as well as linear response parallelism added by Martijn Marsman     |
|      and Georg Kresse.                                                      |
|      Carefully verify results versus KPAR=1.                                |
|      Report problems to Paul Kent and Vienna.                               |
|                                                                             |
 ----------------------------------------------------------------------------- 

 POTCAR:    PAW_PBE C 08Apr2002                   
   VRHFIN =C: s2p2                                                              
   LEXCH  = PE                                                                  
   EATOM  =   147.1560 eV,   10.8157 Ry                                         
                                                                                
   TITEL  = PAW_PBE C 08Apr2002                                                 
   LULTRA =        F    use ultrasoft PP ?                                      
   IUNSCR =        1    unscreen: 0-lin 1-nonlin 2-no                           
   RPACOR =    1.200    partial core radius                                     
   POMASS =   12.011; ZVAL   =    4.000    mass and valenz                      
   RCORE  =    1.500    outmost cutoff radius                                   
   RWIGS  =    1.630; RWIGS  =    0.863    wigner-seitz radius (au A)           
   ENMAX  =  400.000; ENMIN  =  300.000 eV                                      
   ICORE  =        2    local potential                                         
   LCOR   =        T    correct aug charges                                     
   LPAW   =        T    paw PP                                                  
   EAUG   =  644.873                                                            
   DEXC   =    0.000                                                            
   RMAX   =    1.529    core radius for proj-oper                               
   RAUG   =    1.300    factor for augmentation sphere                          
   RDEP   =    1.501    radius for radial grids                                 
   RDEPT  =    1.300    core radius for aug-charge                              
                                                                                
   Atomic configuration                                                         
    4 entries                                                                   
     n  l   j            E        occ.                                          
     1  0  0.50      -273.3789   2.0000                                         
     2  0  0.50       -13.7508   2.0000                                         
     2  1  0.50        -5.2854   2.0000                                         
     3  2  1.50        -5.4423   0.0000                                         
   Description                                                                  
     l       E           TYP  RCUT    TYP  RCUT                                 
     0    -13.7508458     23  1.200                                             
     0     -8.2022199     23  1.200                                             
     1     -5.2854383     23  1.500                                             
     1     34.0145650     23  1.500                                             
     2     -5.4423304      7  1.500                                             
  local pseudopotential read in
  partial core-charges read in
  partial kinetic energy density read in
  atomic valenz-charges read in
  non local Contribution for L=           0  read in
    real space projection operators read in
  non local Contribution for L=           0  read in
    real space projection operators read in
  non local Contribution for L=           1  read in
    real space projection operators read in
  non local Contribution for L=           1  read in
    real space projection operators read in
    PAW grid and wavefunctions read in
 
   number of l-projection  operators is LMAX  =           4
   number of lm-projection operators is LMMAX =           8
 
 POTCAR:    PAW_PBE N 08Apr2002                   
   VRHFIN =N: s2p3                                                              
   LEXCH  = PE                                                                  
   EATOM  =   264.5486 eV,   19.4438 Ry                                         
                                                                                
   TITEL  = PAW_PBE N 08Apr2002                                                 
   LULTRA =        F    use ultrasoft PP ?                                      
   IUNSCR =        1    unscreen: 0-lin 1-nonlin 2-no                           
   RPACOR =    1.200    partial core radius                                     
   POMASS =   14.001; ZVAL   =    5.000    mass and valenz                      
   RCORE  =    1.500    outmost cutoff radius                                   
   RWIGS  =    1.400; RWIGS  =    0.741    wigner-seitz radius (au A)           
   ENMAX  =  400.000; ENMIN  =  300.000 eV                                      
   ICORE  =        2    local potential                                         
   LCOR   =        T    correct aug charges                                     
   LPAW   =        T    paw PP                                                  
   EAUG   =  627.112                                                            
   DEXC   =    0.000                                                            
   RMAX   =    1.529    core radius for proj-oper                               
   RAUG   =    1.300    factor for augmentation sphere                          
   RDEP   =    1.514    radius for radial grids                                 
   RDEPT  =    1.338    core radius for aug-charge                              
                                                                                
   Atomic configuration                                                         
    4 entries                                                                   
     n  l   j            E        occ.                                          
     1  0  0.50      -384.7179   2.0000                                         
     2  0  0.50       -18.5828   2.0000                                         
     2  1  0.50        -7.0898   3.0000                                         
     3  2  1.50        -6.8029   0.0000                                         
   Description                                                                  
     l       E           TYP  RCUT    TYP  RCUT                                 
     0    -18.5828119     23  1.200                                             
     0    -13.5018863     23  1.200                                             
     1     -7.0897853     23  1.500                                             
     1      9.5240782     23  1.500                                             
     2     -6.8029130      7  1.500                                             
  local pseudopotential read in
  partial core-charges read in
  partial kinetic energy density read in
  atomic valenz-charges read in
  non local Contribution for L=           0  read in
    real space projection operators read in
  non local Contribution for L=           0  read in
    real space projection operators read in
  non local Contribution for L=           1  read in
    real space projection operators read in
  non local Contribution for L=           1  read in
    real space projection operators read in
    PAW grid and wavefunctions read in
 
   number of l-projection  operators is LMAX  =           4
   number of lm-projection operators is LMMAX =           8
 
 POTCAR:    PAW_PBE Fe 06Sep2000                  
   VRHFIN =Fe:  d7 s1                                                           
   LEXCH  = PE                                                                  
   EATOM  =   594.3153 eV,   43.6809 Ry                                         
                                                                                
   TITEL  = PAW_PBE Fe 06Sep2000                                                
   LULTRA =        F    use ultrasoft PP ?                                      
   IUNSCR =        1    unscreen: 0-lin 1-nonlin 2-no                           
   RPACOR =    2.000    partial core radius                                     
   POMASS =   55.847; ZVAL   =    8.000    mass and valenz                      
   RCORE  =    2.300    outmost cutoff radius                                   
   RWIGS  =    2.460; RWIGS  =    1.302    wigner-seitz radius (au A)           
   ENMAX  =  267.882; ENMIN  =  200.911 eV                                      
   RCLOC  =    1.701    cutoff for local pot                                    
   LCOR   =        T    correct aug charges                                     
   LPAW   =        T    paw PP                                                  
   EAUG   =  511.368                                                            
   DEXC   =    0.000                                                            
   RMAX   =    2.356    core radius for proj-oper                               
   RAUG   =    1.300    factor for augmentation sphere                          
   RDEP   =    2.442    radius for radial grids                                 
   RDEPT  =    1.890    core radius for aug-charge                              
                                                                                
   Atomic configuration                                                         
    9 entries                                                                   
     n  l   j            E        occ.                                          
     1  0  0.50     -6993.8440   2.0000                                         
     2  0  0.50      -814.6047   2.0000                                         
     2  1  1.50      -693.3689   6.0000                                         
     3  0  0.50       -89.4732   2.0000                                         
     3  1  1.50       -55.6373   6.0000                                         
     3  2  2.50        -3.8151   7.0000                                         
     4  0  0.50        -4.2551   1.0000                                         
     4  1  1.50        -3.4015   0.0000                                         
     4  3  2.50        -1.3606   0.0000                                         
   Description                                                                  
     l       E           TYP  RCUT    TYP  RCUT                                 
     2     -3.8151135     23  2.300                                             
     2     -5.1756961     23  2.300                                             
     0     -4.2550963     23  2.300                                             
     0      7.2035603     23  2.300                                             
     1     -2.7211652     23  2.300                                             
     1     18.4316424     23  2.300                                             
  local pseudopotential read in
  partial core-charges read in
  partial kinetic energy density read in
  atomic valenz-charges read in
  non local Contribution for L=           2  read in
    real space projection operators read in
  non local Contribution for L=           2  read in
    real space projection operators read in
  non local Contribution for L=           0  read in
    real space projection operators read in
  non local Contribution for L=           0  read in
    real space projection operators read in
  non local Contribution for L=           1  read in
    real space projection operators read in
  non local Contribution for L=           1  read in
    real space projection operators read in
    PAW grid and wavefunctions read in
 
   number of l-projection  operators is LMAX  =           6
   number of lm-projection operators is LMMAX =          18
 
 POTCAR:    PAW_PBE Ti 08Apr2002                  
   VRHFIN =Ti: d3 s1                                                            
   LEXCH  = PE                                                                  
   EATOM  =    94.7928 eV,    6.9671 Ry                                         
                                                                                
   TITEL  = PAW_PBE Ti 08Apr2002                                                
   LULTRA =        F    use ultrasoft PP ?                                      
   IUNSCR =        1    unscreen: 0-lin 1-nonlin 2-no                           
   RPACOR =    2.200    partial core radius                                     
   POMASS =   47.880; ZVAL   =    4.000    mass and valenz                      
   RCORE  =    2.800    outmost cutoff radius                                   
   RWIGS  =    2.500; RWIGS  =    1.323    wigner-seitz radius (au A)           
   ENMAX  =  178.330; ENMIN  =  133.747 eV                                      
   RCLOC  =    2.215    cutoff for local pot                                    
   LCOR   =        T    correct aug charges                                     
   LPAW   =        T    paw PP                                                  
   EAUG   =  328.883                                                            
   DEXC   =    0.000                                                            
   RMAX   =    2.868    core radius for proj-oper                               
   RAUG   =    1.300    factor for augmentation sphere                          
   RDEP   =    2.885    radius for radial grids                                 
   RDEPT  =    2.320    core radius for aug-charge                              
                                                                                
   Atomic configuration                                                         
    9 entries                                                                   
     n  l   j            E        occ.                                          
     1  0  0.50     -4865.3608   2.0000                                         
     2  0  0.50      -533.1367   2.0000                                         
     2  1  1.50      -440.5031   6.0000                                         
     3  0  0.50       -59.3186   2.0000                                         
     3  1  1.50       -35.7012   6.0000                                         
     3  2  2.50        -1.9157   3.0000                                         
     4  0  0.50        -3.7291   1.0000                                         
     4  1  1.50        -4.0817   0.0000                                         
     4  3  2.50        -1.3606   0.0000                                         
   Description                                                                  
     l       E           TYP  RCUT    TYP  RCUT                                 
     2     -1.9156924     23  2.800                                             
     2     -0.4062961     23  2.800                                             
     0     -3.7290832     23  2.800                                             
     0     20.4087390     23  2.800                                             
     1     -5.4423304     23  2.800                                             
  local pseudopotential read in
  partial core-charges read in
  partial kinetic energy density read in
  atomic valenz-charges read in
  non local Contribution for L=           2  read in
    real space projection operators read in
  non local Contribution for L=           2  read in
    real space projection operators read in
  non local Contribution for L=           0  read in
    real space projection operators read in
  non local Contribution for L=           0  read in
    real space projection operators read in
  non local Contribution for L=           1  read in
    real space projection operators read in
    PAW grid and wavefunctions read in
 
   number of l-projection  operators is LMAX  =           5
   number of lm-projection operators is LMMAX =          15
 

 ----------------------------------------------------------------------------- 
|                                                                             |
|  ADVICE TO THIS USER RUNNING 'VASP/VAMP'   (HEAR YOUR MASTER'S VOICE ...):  |
|                                                                             |
|      You have a (more or less) 'large supercell' and for larger cells       |
|      it might be more efficient to use real space projection opertators     |
|      So try LREAL= Auto  in the INCAR   file.                               |
|      Mind:          For very  accurate calculation you might also keep the  |
|      reciprocal projection scheme          (i.e. LREAL=.FALSE.)             |
|                                                                             |
 ----------------------------------------------------------------------------- 

  PAW_PBE C 08Apr2002                   :
 energy of atom  1       EATOM= -147.1560
 kinetic energy error for atom=    0.0076 (will be added to EATOM!!)
  PAW_PBE N 08Apr2002                   :
 energy of atom  2       EATOM= -264.5486
 kinetic energy error for atom=    0.0138 (will be added to EATOM!!)
  PAW_PBE Fe 06Sep2000                  :
 energy of atom  3       EATOM= -594.3153
 kinetic energy error for atom=    0.0026 (will be added to EATOM!!)
  PAW_PBE Ti 08Apr2002                  :
 energy of atom  4       EATOM=  -94.7928
 kinetic energy error for atom=    0.0002 (will be added to EATOM!!)
 
 
 POSCAR:  C  N Fe Ti                             
  positions in cartesian coordinates
  No initial velocities read in
 exchange correlation table for  LEXCH =        8
   RHO(1)=    0.500       N(1)  =     2000
   RHO(2)=  100.500       N(2)  =     4000

 VTST: version 3.2, (02/03/18)

 CHAIN: initializing optimizer
 
 OPT: Using VASP Conjugate-Gradient optimizer
 CHAIN: Read ICHAIN            0
 
 POSCAR:  C  N Fe Ti                             
  positions in cartesian coordinates
  No initial velocities read in
 


--------------------------------------------------------------------------------------------------------


 ion  position               nearest neighbor table
   1  0.222  0.002  0.500-  19 1.42   4 1.43   3 1.43
   2  0.056  0.102  0.500-   3 1.42  33 1.43   7 1.43
   3  0.110  0.002  0.500-   2 1.42  17 1.43   1 1.43
   4  0.278  0.103  0.500-  21 1.42   1 1.43   5 1.43
   5  0.226  0.205  0.500-   4 1.43   7 1.43   8 1.44
   6  0.058  0.303  0.500-   7 1.42  11 1.43  37 1.44
   7  0.113  0.203  0.500-   6 1.42   2 1.43   5 1.43
   8  0.285  0.305  0.500-  50 1.38   5 1.44   9 1.46
   9  0.230  0.408  0.500-  49 1.38  11 1.46   8 1.46
  10  0.057  0.501  0.500-  14 1.42  11 1.43  40 1.44
  11  0.115  0.403  0.500-  10 1.43   6 1.43   9 1.46
  12  0.225  0.600  0.500-  49 1.38  14 1.44  15 1.44
  13  0.055  0.700  0.500-  18 1.42  14 1.43  44 1.44
  14  0.112  0.601  0.500-  10 1.42  13 1.43  12 1.44
  15  0.280  0.703  0.500-  52 1.36  16 1.43  12 1.44
  16  0.222  0.802  0.500-  19 1.42  15 1.43  18 1.43
  17  0.054  0.901  0.500-  18 1.43   3 1.43  48 1.43
  18  0.110  0.801  0.500-  13 1.42  17 1.43  16 1.43
  19  0.277  0.902  0.500-  16 1.42  27 1.42   1 1.42
  20  0.555  0.999  0.500-  22 1.41  23 1.42  29 1.43
  21  0.390  0.102  0.500-  25 1.42   4 1.42  22 1.43
  22  0.444  0.001  0.500-  20 1.41  27 1.42  21 1.43
  23  0.611  0.100  0.500-  31 1.42  24 1.42  20 1.42
  24  0.558  0.202  0.500-  51 1.37  23 1.42  25 1.45
  25  0.445  0.203  0.500-  50 1.39  21 1.42  24 1.45
  26  0.555  0.796  0.500-  53 1.38  29 1.43  28 1.45
  27  0.389  0.901  0.500-  22 1.42  19 1.42  28 1.43
  28  0.441  0.799  0.500-  52 1.36  27 1.43  26 1.45
  29  0.609  0.898  0.500-  46 1.42  20 1.43  26 1.43
  30  0.888  0.000  0.500-  48 1.42  32 1.42  33 1.43
  31  0.722  0.100  0.500-  23 1.42  32 1.42  36 1.43
  32  0.777  1.000  0.500-  31 1.42  30 1.42  46 1.43
  33  0.944  0.101  0.500-  34 1.43  30 1.43   2 1.43
  34  0.889  0.202  0.500-  37 1.42  33 1.43  36 1.43
  35  0.719  0.300  0.500-  51 1.36  36 1.43  39 1.46
  36  0.777  0.201  0.500-  31 1.43  34 1.43  35 1.43
  37  0.945  0.302  0.500-  34 1.42  38 1.43   6 1.44
  38  0.888  0.401  0.500-  40 1.42  37 1.43  39 1.44
  39  0.775  0.404  0.500-  54 1.36  38 1.44  35 1.46
  40  0.944  0.501  0.500-  38 1.42  41 1.43  10 1.44
  41  0.886  0.599  0.500-  44 1.42  40 1.43  43 1.45
  42  0.713  0.697  0.500-  53 1.38  47 1.45  43 1.47
  43  0.772  0.594  0.500-  54 1.35  41 1.45  42 1.47
  44  0.942  0.699  0.500-  45 1.42  41 1.42  13 1.44
  45  0.886  0.799  0.500-  44 1.42  48 1.43  47 1.44
  46  0.720  0.898  0.500-  29 1.42  47 1.43  32 1.43
  47  0.773  0.797  0.500-  46 1.43  45 1.44  42 1.45
  48  0.942  0.900  0.500-  30 1.42  17 1.43  45 1.43
  49  0.283  0.506  0.500-  12 1.38   9 1.38  56 2.41
  50  0.394  0.302  0.499-   8 1.38  25 1.39  55 1.94
  51  0.612  0.299  0.500-  35 1.36  24 1.37  55 2.01
  52  0.387  0.704  0.500-  28 1.36  15 1.36  56 2.15
  53  0.605  0.697  0.500-  42 1.38  26 1.38
  54  0.720  0.498  0.500-  43 1.35  39 1.36
  55  0.502  0.414  0.499-  56 1.75  50 1.94  51 2.01
  56  0.468  0.551  0.500-  55 1.75  52 2.15  49 2.41
 
  LATTYP: Found a triclinic cell.
 ALAT       =    12.3140000000
 B/A-ratio  =     1.4332262390
 C/A-ratio  =     1.6430323209
 COS(alpha) =     0.0002393364
 COS(beta)  =     0.0003665191
 COS(gamma) =     0.6913658577
  
  Lattice vectors:
  
 A1 = (   0.1084041691, -12.3135228321,   0.0000000000)
 A2 = ( -12.6433958309, -12.3135228321,   0.0000000000)
 A3 = (   0.0004590563,  -0.0074117711, -20.2322986372)


Analysis of symmetry for initial positions (statically):
=====================================================================
 Subroutine PRICEL returns:
 Original cell was already a primitive cell.
 

 Routine SETGRP: Setting up the symmetry group for a 
 triclinic supercell.


 Subroutine GETGRP returns: Found  1 space group operations
 (whereof  1 operations were pure point group operations)
 out of a pool of  2 trial point group operations.


The static configuration has the point symmetry C_1 .


Analysis of symmetry for dynamics (positions and initial velocities):
=====================================================================
 Subroutine PRICEL returns:
 Original cell was already a primitive cell.
 

 Routine SETGRP: Setting up the symmetry group for a 
 triclinic supercell.


 Subroutine GETGRP returns: Found  1 space group operations
 (whereof  1 operations were pure point group operations)
 out of a pool of  2 trial point group operations.


The dynamic configuration has the point symmetry C_1 .


Analysis of structural, dynamic, and magnetic symmetry:
=====================================================================
 Subroutine PRICEL returns:
 Original cell was already a primitive cell.
 

 Routine SETGRP: Setting up the symmetry group for a 
 triclinic supercell.


 Subroutine GETGRP returns: Found  1 space group operations
 (whereof  1 operations were pure point group operations)
 out of a pool of  2 trial point group operations.


The magnetic configuration has the point symmetry C_1 .


 Subroutine INISYM returns: Found  1 space group operations
 (whereof  1 operations are pure point group operations),
 and found     1 'primitive' translations

 
 
 KPOINTS: KPOINTS created by Atomic Simulation Env

Automatic generation of k-mesh.
Space group operators:
 irot       det(A)        alpha          n_x          n_y          n_z        tau_x        tau_y        tau_z
    1     1.000000     0.000000     1.000000     0.000000     0.000000     0.000000     0.000000     0.000000
 
 Subroutine IBZKPT returns following result:
 ===========================================
 
 Found      2 irreducible k-points:
 
 Following reciprocal coordinates:
            Coordinates               Weight
  0.250000  0.250000 -0.000000      2.000000
 -0.250000  0.250000  0.000000      2.000000
 
 Following cartesian coordinates:
            Coordinates               Weight
  0.019605  0.020475 -0.000007      2.000000
 -0.019605  0.020130 -0.000008      2.000000
 
 
 Subroutine IBZKPT_HF returns following result:
 ==============================================
 
 Found      4 k-points in 1st BZ
 the following      4 k-points will be used (e.g. in the exchange kernel)
 Following reciprocal coordinates:   # in IRBZ
  0.250000  0.250000 -0.000000    0.25000000   1 t-inv F
 -0.250000  0.250000  0.000000    0.25000000   2 t-inv F
 -0.250000 -0.250000  0.000000    0.25000000   1 t-inv T
  0.250000 -0.250000 -0.000000    0.25000000   2 t-inv T


--------------------------------------------------------------------------------------------------------




 Dimension of arrays:
   k-points           NKPTS =      2   k-points in BZ     NKDIM =      4   number of bands    NBANDS=    150
   number of dos      NEDOS =    301   number of ions     NIONS =     56
   non local maximal  LDIM  =      6   non local SUM 2l+1 LMDIM =     18
   total plane-waves  NPLWV = ******
   max r-space proj   IRMAX =      1   max aug-charges    IRDMAX=  28371
   dimension x,y,z NGX =    96 NGY =   90 NGZ =  150
   dimension x,y,z NGXF=   192 NGYF=  180 NGZF=  300
   support grid    NGXF=   192 NGYF=  180 NGZF=  300
   ions per type =              48   6   1   1
   NGX,Y,Z   is equivalent  to a cutoff of  12.52, 12.15, 12.33 a.u.
   NGXF,Y,Z  is equivalent  to a cutoff of  25.03, 24.30, 24.65 a.u.

 SYSTEM =  unknown system                          
 POSCAR =   C  N Fe Ti                             

 Startparameter for this run:
   NWRITE =      2    write-flag & timer
   PREC   = accura    normal or accurate (medium, high low for compatibility)
   ISTART =      1    job   : 0-new  1-cont  2-samecut
   ICHARG =      0    charge: 1-file 2-atom 10-const
   ISPIN  =      2    spin polarized calculation?
   LNONCOLLINEAR =      F non collinear calculations
   LSORBIT =      F    spin-orbit coupling
   INIWAV =      1    electr: 0-lowe 1-rand  2-diag
   LASPH  =      T    aspherical Exc in radial PAW
   METAGGA=      F    non-selfconsistent MetaGGA calc.

 Electronic Relaxation 1
   ENCUT  =  500.0 eV  36.75 Ry    6.06 a.u.  23.25 22.45 36.89*2*pi/ulx,y,z
   ENINI  =  500.0     initial cutoff
   ENAUG  =  644.9 eV  augmentation charge cutoff
   NELM   =    250;   NELMIN=  2; NELMDL=  0     # of ELM steps 
   EDIFF  = 0.1E-03   stopping-criterion for ELM
   LREAL  =      F    real-space projection
   NLSPLINE    = F    spline interpolate recip. space projectors
   LCOMPAT=      F    compatible to vasp.4.4
   GGA_COMPAT  = T    GGA compatible to vasp.4.4-vasp.4.6
   LMAXPAW     = -100 max onsite density
   LMAXMIX     =    2 max onsite mixed and CHGCAR
   VOSKOWN=      0    Vosko Wilk Nusair interpolation
   ROPT   =    0.00000   0.00000   0.00000   0.00000
 Ionic relaxation
   EDIFFG = -.3E-01   stopping-criterion for IOM
   NSW    =      0    number of steps for IOM
   NBLOCK =      1;   KBLOCK =      1    inner block; outer block 
   IBRION =     -1    ionic relax: 0-MD 1-quasi-New 2-CG
   NFREE  =      1    steps in history (QN), initial steepest desc. (CG)
   ISIF   =      2    stress and relaxation
   IWAVPR =     10    prediction:  0-non 1-charg 2-wave 3-comb
   ISYM   =      3    0-nonsym 1-usesym 2-fastsym
   LCORR  =      T    Harris-Foulkes like correction to forces

   POTIM  = 0.5000    time-step for ionic-motion
   TEIN   =    0.0    initial temperature
   TEBEG  =    0.0;   TEEND  =   0.0 temperature during run
   SMASS  =  -3.00    Nose mass-parameter (am)
   estimated Nose-frequenzy (Omega)   =  0.10E-29 period in steps =****** mass=  -0.372E-26a.u.
   SCALEE = 1.0000    scale energy and forces
   NPACO  =    256;   APACO  = 16.0  distance and # of slots for P.C.
   PSTRESS=    0.0 pullay stress

  Mass of Ions in am
   POMASS =  12.01 14.00 55.85 47.88
  Ionic Valenz
   ZVAL   =   4.00  5.00  8.00  4.00
  Atomic Wigner-Seitz radii
   RWIGS  =  -1.00 -1.00 -1.00 -1.00
  virtual crystal weights 
   VCA    =   1.00  1.00  1.00  1.00
   NELECT =     234.0000    total number of electrons
   NUPDOWN=      -1.0000    fix difference up-down

 DOS related values:
   EMIN   =  10.00;   EMAX   =-10.00  energy-range for DOS
   EFERMI =   0.00
   ISMEAR =     0;   SIGMA  =   0.10  broadening in eV -4-tet -1-fermi 0-gaus

 Electronic relaxation 2 (details)
   IALGO  =     53    algorithm
   LDIAG  =      T    sub-space diagonalisation (order eigenvalues)
   LSUBROT=      F    optimize rotation matrix (better conditioning)
   TURBO    =      0    0=normal 1=particle mesh
   IRESTART =      0    0=no restart 2=restart with 2 vectors
   NREBOOT  =      0    no. of reboots
   NMIN     =      0    reboot dimension
   EREF     =   0.00    reference energy to select bands
   IMIX   =      4    mixing-type and parameters
     AMIX     =   0.40;   BMIX     =  1.00
     AMIX_MAG =   1.60;   BMIX_MAG =  1.00
     AMIN     =   0.10
     WC   =   100.;   INIMIX=   1;  MIXPRE=   1;  MAXMIX= -45

 Intra band minimization:
   WEIMIN = 0.0000     energy-eigenvalue tresh-hold
   EBREAK =  0.17E-06  absolut break condition
   DEPER  =   0.30     relativ break condition  

   TIME   =   0.20     timestep for ELM

  volume/ion in A,a.u.               =      56.73       382.83
  Fermi-wavevector in a.u.,A,eV,Ry     =   0.686247  1.296819  6.407458  0.470935
  Thomas-Fermi vector in A             =   1.766421
 
 Write flags
   LWAVE        =      T    write WAVECAR
   LDOWNSAMPLE  =      F    k-point downsampling of WAVECAR
   LCHARG       =      T    write CHGCAR
   LVTOT        =      F    write LOCPOT, total local potential
   LVHAR        =      F    write LOCPOT, Hartree potential only
   LELF         =      F    write electronic localiz. function (ELF)
   LORBIT       =     11    0 simple, 1 ext, 2 COOP (PROOUT), +10 PAW based schemes


 Dipole corrections
   LMONO  =      F    monopole corrections only (constant potential shift)
   LDIPOL =      T    correct potential (dipole corrections)
   IDIPOL =      3    1-x, 2-y, 3-z, 4-all directions 
   EPSILON=  1.0000000 bulk dielectric constant

 Exchange correlation treatment:
   GGA     =    PE    GGA type
   LEXCH   =     8    internal setting for exchange type
   VOSKOWN=      0    Vosko Wilk Nusair interpolation
   EXXOEP  =     0    0=HF, 1=EXX-LHF (local Hartree Fock) 2=EXX OEP
   LHFCALC =     T    Hartree Fock is set to
   LSYMGRAD=     F    symmetrize gradient (conserves proper symmetry)
   PRECFOCK=normal    Normal, Fast or Accurate (Low or Medium for compatibility)
   LRHFCALC=     F    long range Hartree Fock
   LRSCOR  =     F    long range correlation only (use DFT for short range part)
   LTHOMAS =     F    Thomas Fermi screening in HF
   LMODELHF=     F    short range full HF, long range fraction AEXX
   ENCUT4O =  -1.0   cutoff for four orbital integrals eV
   LMAXFOCK=     4    L truncation for augmentation on plane wave grid
   LMAXFOCKAE=  -1    L truncation for all-electron charge restoration on plane wave grid
   NMAXFOCKAE=   1    number of basis functions for all-electron charge restoration
   LFOCKAEDFT=     F  apply the AE augmentation even for DFT
   NKREDX  =     1    reduce k-point grid by
   NKREDY  =     1    reduce k-point grid by
   NKREDZ  =     1    reduce k-point grid by
   SHIFTRED=     F    shift reduced grid of Gamma
   HFKIDENT=     F    idential grid for each k-point
   ODDONLY =     F    use only odd q-grid points
   EVENONLY=     F    use only even q-grid points
   HFALPHA =   -1.0000 decay constant for conv. correction
   MCALPHA =    0.0000 extent of test-charge in conv. correction in multipole expansion
   AEXX    =    0.2500 exact exchange contribution
   HFSCREEN=    0.2000 screening length (either q_TF or 0.3 A-1)
   HFSCREENC=   0.2000 screening length for correlation (either q_TF or 0.3 A-1)
   HFRCUT  =    0.0000 spherical cutoff for potential kernel
   ALDAX   =    0.7500 LDA exchange part
   AGGAX   =    0.7500 GGA exchange part
   ALDAC   =    1.0000 LDA correlation
   AGGAC   =    1.0000 GGA correlation
   ENCUTFOCK=  -1.0 apply spherical cutoff to Coloumb kernel
   NBANDSGWLOW=     1    first orbital included in HF term
   NBLOCK_FOCK=    64    blocking factor in FOCK_ACC
 Linear response parameters
   LEPSILON=     F    determine dielectric tensor
   LRPA    =     F    only Hartree local field effects (RPA)
   LNABLA  =     F    use nabla operator in PAW spheres
   LVEL    =     F    velocity operator in full k-point grid
   LINTERFAST=   F  fast interpolation
   KINTER  =     0    interpolate to denser k-point grid
   CSHIFT  =0.1000    complex shift for real part using Kramers Kronig
   OMEGAMAX=  -1.0    maximum frequency
   DEG_THRESHOLD= 0.2000000E-02 threshold for treating states as degnerate
   RTIME   =   -0.100 relaxation time in fs
  (WPLASMAI=    0.000 imaginary part of plasma frequency in eV, 0.658/RTIME)
   DFIELD  = 0.0000000 0.0000000 0.0000000 field for delta impulse in time
 
 Orbital magnetization related:
   ORBITALMAG=     F  switch on orbital magnetization
   LCHIMAG   =     F  perturbation theory with respect to B field
   DQ        =  0.001000  dq finite difference perturbation B field
   LLRAUG    =     F  two centre corrections for induced B field



--------------------------------------------------------------------------------------------------------


 Static calculation
 charge density and potential will be updated during run
 spin polarized calculation
 Conjugate gradient for all bands (Freysoldt, et al. PRB 79, 241103 (2009))
 perform sub-space diagonalisation
    before iterative eigenvector-optimisation
 modified Broyden-mixing scheme, WC =      100.0
 initial mixing is a Kerker type mixing with AMIX =  0.4000 and BMIX =      1.0000
 Hartree-type preconditioning will be used
 using additional bands           33
 reciprocal scheme for non local part
 use partial core corrections
 no Harris-corrections to forces 
 use gradient corrections 
 use of overlap-Matrix (Vanderbilt PP)
 Gauss-broadening in eV      SIGMA  =   0.10


--------------------------------------------------------------------------------------------------------


  energy-cutoff  :      500.00
  volume of cell :     3176.87
      direct lattice vectors                 reciprocal lattice vectors
    12.751800000  0.000000000  0.000000000     0.078420301  0.000690386  0.000001526
    -0.108404169 12.313522832  0.000000000     0.000000000  0.081211528 -0.000029751
    -0.000459056  0.007411771 20.232298637     0.000000000  0.000000000  0.049425921

  length of vectors
    12.751800000 12.314000000 20.232300000     0.078423340  0.081211533  0.049425921


 
 old parameters found on file WAVECAR:
  energy-cutoff  :      500.00
  volume of cell :     3176.87
      direct lattice vectors                 reciprocal lattice vectors
    12.751800000  0.000000000  0.000000000     0.078420301  0.000690386  0.000001526
    -0.108404169 12.313522832  0.000000000     0.000000000  0.081211528 -0.000029751
    -0.000459056  0.007411771 20.232298637     0.000000000  0.000000000  0.049425921

  length of vectors

 
 k-points in units of 2pi/SCALE and weight: KPOINTS created by Atomic Simulation Env
   0.01960508  0.02047548 -0.00000706       0.500
  -0.01960508  0.02013029 -0.00000782       0.500
 
 k-points in reciprocal lattice and weights: KPOINTS created by Atomic Simulation Env
   0.25000000  0.25000000 -0.00000000       0.500
  -0.25000000  0.25000000  0.00000000       0.500
 
 position of ions in fractional coordinates (direct lattice) 
   0.22227012  0.00243434  0.50000803
   0.05648858  0.10237017  0.50008395
   0.11039904  0.00174044  0.50005002
   0.27844838  0.10300711  0.49992463
   0.22562966  0.20470546  0.49993888
   0.05814088  0.30306477  0.50005751
   0.11318034  0.20332169  0.50005464
   0.28537242  0.30478940  0.49978658
   0.22963877  0.40770849  0.49993864
   0.05683887  0.50142201  0.50002346
   0.11536744  0.40318384  0.50001972
   0.22515845  0.59984424  0.50003592
   0.05473626  0.70041254  0.49998638
   0.11239658  0.60147418  0.50001157
   0.27955716  0.70294409  0.50004827
   0.22161009  0.80150105  0.50002543
   0.05439040  0.90097647  0.50002817
   0.10971517  0.80092641  0.50000432
   0.27697782  0.90207714  0.50001670
   0.55501301  0.99930959  0.49994160
   0.39012393  0.10226709  0.49984240
   0.44444554  0.00110322  0.49993540
   0.61077218  0.10005424  0.49989427
   0.55821638  0.20151242  0.49972909
   0.44452095  0.20305805  0.49966003
   0.55488510  0.79569097  0.50000543
   0.38863676  0.90096440  0.50000474
   0.44121542  0.79903151  0.50002624
   0.60907278  0.89806764  0.49999504
   0.88839730  0.00043246  0.50006627
   0.72226619  0.10001584  0.49999411
   0.77666659  0.99952557  0.50003863
   0.94428963  0.10136992  0.50009698
   0.88926848  0.20178492  0.50008424
   0.71853395  0.30029820  0.49989449
   0.77703782  0.20146400  0.50001537
   0.94525532  0.30206197  0.50006668
   0.88784655  0.40082469  0.50001158
   0.77466633  0.40374968  0.49994553
   0.94369554  0.50078043  0.50000399
   0.88563893  0.59932630  0.49996982
   0.71278551  0.69662090  0.49997803
   0.77170186  0.59416644  0.49995638
   0.94209370  0.69935718  0.49996888
   0.88597039  0.79855588  0.49998576
   0.72049725  0.89844797  0.50000985
   0.77317445  0.79669209  0.49999077
   0.94229700  0.89973420  0.50002719
   0.28327886  0.50571116  0.49999963
   0.39350837  0.30223711  0.49949991
   0.61185806  0.29865454  0.49969535
   0.38659397  0.70353293  0.50006068
   0.60470770  0.69665771  0.49999734
   0.71984006  0.49778311  0.49993466
   0.50171980  0.41389932  0.49914074
   0.46767194  0.55094249  0.50000013
 
 position of ions in cartesian coordinates  (Angst):
   2.83385069  0.03368127 10.11631181
   0.70900415  1.26424396 10.11784787
   1.40736825  0.02513717 10.11716131
   3.53932210  1.27208569 10.11462432
   2.85476385  2.52435082 10.11491267
   0.70831790  3.73550127 10.11731283
   1.42098262  2.50731261 10.11725472
   3.60574219  3.75673551 10.11183125
   2.88388081  5.02403329 10.11490795
   0.67021219  6.17797745 10.11662400
   1.42720620  4.96831946 10.11654839
   2.80592033  7.38990191 10.11687611
   0.62182871  8.62825157 10.11587378
   1.36782685  7.40997197 10.11638334
   3.48842540  8.65942432 10.11712588
   2.73881194  9.87300759 10.11666373
   0.59567629 11.09790043 10.11671925
   1.31201258  9.86593155 10.11623671
   3.43394728 11.11145352 10.11648718
   6.96885612 12.30872695 10.11496780
   4.96346667  1.26297286 10.11296070
   5.66713151  0.01728989 10.11484234
   7.77736892  1.23572531 10.11401007
   7.09618942  2.48503165 10.11066824
   5.64620059  2.50406335 10.10927104
   6.98929808  9.80146484 10.11625908
   4.85792036 11.09775159 10.11624513
   5.53944284  9.84259876 10.11668014
   7.66919042 11.06208222 10.11604891
  11.32838826  0.00903150 10.11749015
   9.19912232  1.23525323 10.11603018
   9.79531474 12.31138709 10.11693098
  12.03017406  1.25192742 10.11811138
  11.31766991  2.48838979 10.11785364
   9.12981816  3.70143388 10.11401453
   9.88656178  2.48443759 10.11646019
  12.02073249  3.72315333 10.11749849
  11.27796105  4.93926988 10.11638366
   9.83439251  4.97528643 10.11504720
  11.97930060  6.17007723 10.11622999
  11.22829148  7.38352375 10.11553863
   9.01355212  8.58156309 10.11570472
   9.77594809  7.31998756 10.11526680
  11.93734766  8.61525631 10.11551965
  11.21092091  9.83674179 10.11586114
   9.09001176 11.06676554 10.11634866
   9.77277169  9.81379208 10.11596249
  11.91821841 11.08260369 10.11669948
   3.55726466  6.23079184 10.11614185
   4.98494692  3.72530573 10.10603127
   7.76968676  3.68119316 10.10998559
   4.85327353  8.66667514 10.11737693
   7.63536151  8.58201644 10.11609549
   9.12506519  6.13316910 10.11482730
   6.35273301  5.10025822 10.09876455
   5.90370500  6.78774876 10.11615194
 


--------------------------------------------------------------------------------------------------------


 k-point  1 :   0.2500 0.2500-0.0000  plane waves:   80633
 k-point  2 :  -0.2500 0.2500 0.0000  plane waves:   80630

 maximum and minimum number of plane-waves per node :      3394     3317

 maximum number of plane-waves:     80633
 maximum index in each direction: 
   IXMAX=   23   IYMAX=   22   IZMAX=   36
   IXMIN=  -23   IYMIN=  -22   IZMIN=  -36


 parallel 3D FFT for wavefunctions:
    minimum data exchange during FFTs selected (reduces bandwidth)
 parallel 3D FFT for charge:
    minimum data exchange during FFTs selected (reduces bandwidth)


 FFT grid for exact exchange (Hartree Fock) 
  NGX = 70; NGY = 70; NGZ =112

 
 Radii for the augmentation spheres in the non-local exchange
 for species   1 augmentation radius   0.874 (default was   0.699)
       energy cutoff for augmentation   2000.0
 for species   2 augmentation radius   0.886 (default was   0.709)
       energy cutoff for augmentation   2000.0
 for species   3 augmentation radius   1.263 (default was   1.010)
       energy cutoff for augmentation   2000.0
 for species   4 augmentation radius   1.575 (default was   1.260)
       energy cutoff for augmentation   2000.0

 real space projection operators:
  total allocation   :       2654.08 KBytes
  max/ min on nodes  :        167.98         36.00

 Maximum index for augmentation-charges in exchange           65
  SETUP_FOCK is finished

 total amount of memory used by VASP MPI-rank0   202488. kBytes
=======================================================================

   base      :      30000. kBytes
   nonl-proj :       6967. kBytes
   fftplans  :      17535. kBytes
   grid      :      46049. kBytes
   one-center:         93. kBytes
   HF        :         46. kBytes
   nonlr-proj:       2843. kBytes
   wavefun   :      98955. kBytes
 
     INWAV:  cpu time    3.4144: real time    5.8419
 Broyden mixing: mesh for mixing (old mesh)
   NGX = 47   NGY = 45   NGZ = 73
  (NGX  =192   NGY  =180   NGZ  =300)
  gives a total of 154395 points

 charge density for first step will be calculated from the start-wavefunctions


--------------------------------------------------------------------------------------------------------


 Maximum index for augmentation-charges         1100 (set IRDMAX)


--------------------------------------------------------------------------------------------------------


 initial charge from wavefunction
 First call to EWALD:  gamma=   0.121
 Maximum number of real-space cells 3x 3x 2
 Maximum number of reciprocal cells 2x 2x 4

    FEWALD:  cpu time    0.0022: real time    0.0022


--------------------------------------- Iteration      1(   1)  ---------------------------------------


    POTLOK:  cpu time    2.0568: real time    2.0590
    SETDIJ:  cpu time    1.7165: real time    1.7176
    TRIAL :  cpu time  308.3970: real time  308.7829
    CORREC:  cpu time    0.0010: real time    0.0010
    CHARGE:  cpu time    1.3202: real time    1.3209
    --------------------------------------------
      LOOP:  cpu time  313.5092: real time  314.2655

 eigenvalue-minimisations  :     0
 total energy-change (2. order) :-0.5854489E+03  (-0.3837300E+00)
 number of electron     234.0000016 magnetization      -0.0632683
 augmentation part       11.5110727 magnetization      -0.2807964

 DIPCOR: dipole corrections for dipol
 direction  3 min pos     1,
 dipolmoment           0.000000     -0.000001     -0.002011 electrons x Angstroem
 Tr[quadrupol]     -5952.672506

 energy correction for charged system         0.000000 eV
 dipol+quadrupol energy correction            0.000000 eV
 added-field ion interaction          0.000000 eV  (added to PSCEN)


 Free energy of the ion-electron system (eV)
  ---------------------------------------------------
  alpha Z        PSCENC =        94.98530491
  Ewald energy   TEWEN  =     37395.03110060
  -Hartree energ DENC   =    -45343.88906575
  -exchange      EXHF   =       529.75468730
  -V(xc)+E(xc)   XCENC  =       573.10540761
  PAW double counting   =     25268.21908735   -25271.36787154
  entropy T*S    EENTRO =        -0.01015273
  eigenvalues    EBANDS =     -3061.72412734
  atomic energy  EATOM  =      9230.44867039
  ---------------------------------------------------
  free energy    TOTEN  =      -585.44886210 eV

  energy without entropy =     -585.43870937  energy(sigma->0) =     -585.44378574
  exchange ACFDT corr.  =        -0.01491791  see jH, gK, PRB 81, 115126


--------------------------------------------------------------------------------------------------------




--------------------------------------- Iteration      1(   2)  ---------------------------------------


    POTLOK:  cpu time    2.0837: real time    2.0865
    SETDIJ:  cpu time    2.0617: real time    2.0637
    TRIAL :  cpu time  310.0123: real time  310.3682
    CORREC:  cpu time    0.0010: real time    0.0010
    CHARGE:  cpu time    1.3159: real time    1.3170
    --------------------------------------------
      LOOP:  cpu time  315.4765: real time  315.8396

 eigenvalue-minimisations  :     0
 total energy-change (2. order) :-0.2916260E+00  (-0.2978575E+00)
 number of electron     234.0000016 magnetization      -0.0588302
 augmentation part       11.4299040 magnetization      -0.3107097

 DIPCOR: dipole corrections for dipol
 direction  3 min pos     1,
 dipolmoment           0.000000     -0.000001     -0.003018 electrons x Angstroem
 Tr[quadrupol]     -5952.475876

 energy correction for charged system         0.000000 eV
 dipol+quadrupol energy correction            0.000000 eV
 added-field ion interaction          0.000000 eV  (added to PSCEN)


 Free energy of the ion-electron system (eV)
  ---------------------------------------------------
  alpha Z        PSCENC =        94.98530506
  Ewald energy   TEWEN  =     37395.03110060
  -Hartree energ DENC   =    -45329.90045960
  -exchange      EXHF   =       529.54764376
  -V(xc)+E(xc)   XCENC  =       572.76765080
  PAW double counting   =     25391.64534262   -25394.52588344
  entropy T*S    EENTRO =        -0.00927458
  eigenvalues    EBANDS =     -3075.72970555
  atomic energy  EATOM  =      9230.44867039
  ---------------------------------------------------
  free energy    TOTEN  =      -585.74048807 eV

  energy without entropy =     -585.73121350  energy(sigma->0) =     -585.73585078
  exchange ACFDT corr.  =        -0.00819049  see jH, gK, PRB 81, 115126


--------------------------------------------------------------------------------------------------------




--------------------------------------- Iteration      1(   3)  ---------------------------------------


    POTLOK:  cpu time    2.1080: real time    2.1095
    SETDIJ:  cpu time    2.0634: real time    2.0645
    TRIAL :  cpu time  308.9220: real time  309.2604
    CORREC:  cpu time    0.0010: real time    0.0010
    CHARGE:  cpu time    1.3204: real time    1.3211
    --------------------------------------------
      LOOP:  cpu time  314.4163: real time  314.7610

 eigenvalue-minimisations  :     0
 total energy-change (2. order) :-0.2096090E+00  (-0.1492062E+00)
 number of electron     234.0000016 magnetization      -0.0494431
 augmentation part       11.4175363 magnetization      -0.3350330

 DIPCOR: dipole corrections for dipol
 direction  3 min pos     1,
 dipolmoment           0.000000     -0.000001     -0.002606 electrons x Angstroem
 Tr[quadrupol]     -5952.253624

 energy correction for charged system         0.000000 eV
 dipol+quadrupol energy correction            0.000000 eV
 added-field ion interaction          0.000000 eV  (added to PSCEN)


 Free energy of the ion-electron system (eV)
  ---------------------------------------------------
  alpha Z        PSCENC =        94.98530499
  Ewald energy   TEWEN  =     37395.03110060
  -Hartree energ DENC   =    -45309.78214980
  -exchange      EXHF   =       529.26894975
  -V(xc)+E(xc)   XCENC  =       572.26979405
  PAW double counting   =     25537.90059007   -25539.87554757
  entropy T*S    EENTRO =        -0.00792057
  eigenvalues    EBANDS =     -3096.18753500
  atomic energy  EATOM  =      9230.44867039
  ---------------------------------------------------
  free energy    TOTEN  =      -585.95009709 eV

  energy without entropy =     -585.94217652  energy(sigma->0) =     -585.94613680
  exchange ACFDT corr.  =        -0.00711732  see jH, gK, PRB 81, 115126


--------------------------------------------------------------------------------------------------------




--------------------------------------- Iteration      1(   4)  ---------------------------------------


    POTLOK:  cpu time    2.1143: real time    2.1168
    SETDIJ:  cpu time    2.0591: real time    2.0646
    TRIAL :  cpu time  308.7384: real time  309.0438
    CORREC:  cpu time    0.0010: real time    0.0010
    CHARGE:  cpu time    1.3169: real time    1.3175
    --------------------------------------------
      LOOP:  cpu time  314.2305: real time  314.5474

 eigenvalue-minimisations  :     0
 total energy-change (2. order) :-0.1123771E+00  (-0.8787037E-01)
 number of electron     234.0000016 magnetization      -0.0413617
 augmentation part       11.4308376 magnetization      -0.3571135

 DIPCOR: dipole corrections for dipol
 direction  3 min pos     1,
 dipolmoment           0.000000     -0.000001     -0.002507 electrons x Angstroem
 Tr[quadrupol]     -5952.192130

 energy correction for charged system         0.000000 eV
 dipol+quadrupol energy correction            0.000000 eV
 added-field ion interaction          0.000000 eV  (added to PSCEN)


 Free energy of the ion-electron system (eV)
  ---------------------------------------------------
  alpha Z        PSCENC =        94.98530498
  Ewald energy   TEWEN  =     37395.03110060
  -Hartree energ DENC   =    -45303.19174556
  -exchange      EXHF   =       529.28005261
  -V(xc)+E(xc)   XCENC  =       572.09577227
  PAW double counting   =     25661.57925266   -25663.54088446
  entropy T*S    EENTRO =        -0.00676135
  eigenvalues    EBANDS =     -3102.74207712
  atomic energy  EATOM  =      9230.44867039
  ---------------------------------------------------
  free energy    TOTEN  =      -586.06247419 eV

  energy without entropy =     -586.05571284  energy(sigma->0) =     -586.05909352
  exchange ACFDT corr.  =        -0.00714917  see jH, gK, PRB 81, 115126


--------------------------------------------------------------------------------------------------------




--------------------------------------- Iteration      1(   5)  ---------------------------------------


    POTLOK:  cpu time    2.1161: real time    2.1192
    SETDIJ:  cpu time    2.0842: real time    2.0853
    TRIAL :  cpu time  307.4331: real time  307.7599
    CORREC:  cpu time    0.0010: real time    0.0010
    CHARGE:  cpu time    1.3150: real time    1.3160
    --------------------------------------------
      LOOP:  cpu time  312.9506: real time  313.2860

 eigenvalue-minimisations  :     0
 total energy-change (2. order) :-0.7020218E-01  (-0.6143067E-01)
 number of electron     234.0000016 magnetization      -0.0360724
 augmentation part       11.4394658 magnetization      -0.3794833

 DIPCOR: dipole corrections for dipol
 direction  3 min pos     1,
 dipolmoment           0.000000     -0.000001     -0.002292 electrons x Angstroem
 Tr[quadrupol]     -5952.236531

 energy correction for charged system         0.000000 eV
 dipol+quadrupol energy correction            0.000000 eV
 added-field ion interaction          0.000000 eV  (added to PSCEN)


 Free energy of the ion-electron system (eV)
  ---------------------------------------------------
  alpha Z        PSCENC =        94.98530495
  Ewald energy   TEWEN  =     37395.03110060
  -Hartree energ DENC   =    -45304.94987393
  -exchange      EXHF   =       529.46818661
  -V(xc)+E(xc)   XCENC  =       572.13281120
  PAW double counting   =     25747.61308145   -25749.75416426
  entropy T*S    EENTRO =        -0.00598603
  eigenvalues    EBANDS =     -3101.10103202
  atomic energy  EATOM  =      9230.44867039
  ---------------------------------------------------
  free energy    TOTEN  =      -586.13267638 eV

  energy without entropy =     -586.12669034  energy(sigma->0) =     -586.12968336
  exchange ACFDT corr.  =        -0.00651201  see jH, gK, PRB 81, 115126


--------------------------------------------------------------------------------------------------------




--------------------------------------- Iteration      1(   6)  ---------------------------------------


    POTLOK:  cpu time    2.1084: real time    2.1095
    SETDIJ:  cpu time    2.0623: real time    2.0649
    TRIAL :  cpu time  307.1762: real time  307.4970
    CORREC:  cpu time    0.0009: real time    0.0009
    CHARGE:  cpu time    1.3181: real time    1.3198
    --------------------------------------------
      LOOP:  cpu time  312.6671: real time  312.9956

 eigenvalue-minimisations  :     0
 total energy-change (2. order) :-0.5125463E-01  (-0.4491267E-01)
 number of electron     234.0000016 magnetization      -0.0318617
 augmentation part       11.4473526 magnetization      -0.4006499

 DIPCOR: dipole corrections for dipol
 direction  3 min pos     1,
 dipolmoment           0.000000     -0.000001     -0.001981 electrons x Angstroem
 Tr[quadrupol]     -5952.303178

 energy correction for charged system         0.000000 eV
 dipol+quadrupol energy correction            0.000000 eV
 added-field ion interaction          0.000000 eV  (added to PSCEN)


 Free energy of the ion-electron system (eV)
  ---------------------------------------------------
  alpha Z        PSCENC =        94.98530491
  Ewald energy   TEWEN  =     37395.03110060
  -Hartree energ DENC   =    -45308.72978909
  -exchange      EXHF   =       529.69215288
  -V(xc)+E(xc)   XCENC  =       572.23500193
  PAW double counting   =     25801.16682598   -25803.32406511
  entropy T*S    EENTRO =        -0.00536892
  eigenvalues    EBANDS =     -3097.68314746
  atomic energy  EATOM  =      9230.44867039
  ---------------------------------------------------
  free energy    TOTEN  =      -586.18393101 eV

  energy without entropy =     -586.17856209  energy(sigma->0) =     -586.18124655
  exchange ACFDT corr.  =        -0.00494257  see jH, gK, PRB 81, 115126


--------------------------------------------------------------------------------------------------------




--------------------------------------- Iteration      1(   7)  ---------------------------------------


    POTLOK:  cpu time    2.1038: real time    2.1054
    SETDIJ:  cpu time    2.0614: real time    2.0623
    TRIAL :  cpu time  308.1010: real time  308.4023
    CORREC:  cpu time    0.0009: real time    0.0009
    CHARGE:  cpu time    1.3191: real time    1.3199
    --------------------------------------------
      LOOP:  cpu time  313.5876: real time  313.8949

 eigenvalue-minimisations  :     0
 total energy-change (2. order) :-0.3981735E-01  (-0.3681781E-01)
 number of electron     234.0000016 magnetization      -0.0282250
 augmentation part       11.4526225 magnetization      -0.4205641

 DIPCOR: dipole corrections for dipol
 direction  3 min pos     1,
 dipolmoment           0.000000     -0.000001     -0.001983 electrons x Angstroem
 Tr[quadrupol]     -5952.358436

 energy correction for charged system         0.000000 eV
 dipol+quadrupol energy correction            0.000000 eV
 added-field ion interaction          0.000000 eV  (added to PSCEN)


 Free energy of the ion-electron system (eV)
  ---------------------------------------------------
  alpha Z        PSCENC =        94.98530491
  Ewald energy   TEWEN  =     37395.03110060
  -Hartree energ DENC   =    -45313.00568181
  -exchange      EXHF   =       529.90323350
  -V(xc)+E(xc)   XCENC  =       572.36354981
  PAW double counting   =     25833.48316735   -25835.69078826
  entropy T*S    EENTRO =        -0.00483220
  eigenvalues    EBANDS =     -3093.73693593
  atomic energy  EATOM  =      9230.44867039
  ---------------------------------------------------
  free energy    TOTEN  =      -586.22374835 eV

  energy without entropy =     -586.21891615  energy(sigma->0) =     -586.22133225
  exchange ACFDT corr.  =        -0.00430338  see jH, gK, PRB 81, 115126


--------------------------------------------------------------------------------------------------------




--------------------------------------- Iteration      1(   8)  ---------------------------------------


    POTLOK:  cpu time    2.0991: real time    2.1004
    SETDIJ:  cpu time    2.0617: real time    2.0627
    TRIAL :  cpu time  308.0391: real time  308.3665
    CORREC:  cpu time    0.0010: real time    0.0010
    CHARGE:  cpu time    1.3178: real time    1.3187
    --------------------------------------------
      LOOP:  cpu time  313.5199: real time  313.8534

 eigenvalue-minimisations  :     0
 total energy-change (2. order) :-0.3337637E-01  (-0.3126994E-01)
 number of electron     234.0000016 magnetization      -0.0250403
 augmentation part       11.4533102 magnetization      -0.4396939

 DIPCOR: dipole corrections for dipol
 direction  3 min pos     1,
 dipolmoment           0.000000     -0.000001     -0.002110 electrons x Angstroem
 Tr[quadrupol]     -5952.388778

 energy correction for charged system         0.000000 eV
 dipol+quadrupol energy correction            0.000000 eV
 added-field ion interaction          0.000000 eV  (added to PSCEN)


 Free energy of the ion-electron system (eV)
  ---------------------------------------------------
  alpha Z        PSCENC =        94.98530493
  Ewald energy   TEWEN  =     37395.03110060
  -Hartree energ DENC   =    -45315.96024150
  -exchange      EXHF   =       530.05997838
  -V(xc)+E(xc)   XCENC  =       572.46540974
  PAW double counting   =     25851.71031605   -25853.97522927
  entropy T*S    EENTRO =        -0.00435590
  eigenvalues    EBANDS =     -3091.01760184
  atomic energy  EATOM  =      9230.44867039
  ---------------------------------------------------
  free energy    TOTEN  =      -586.25712473 eV

  energy without entropy =     -586.25276882  energy(sigma->0) =     -586.25494678
  exchange ACFDT corr.  =        -0.00376776  see jH, gK, PRB 81, 115126


--------------------------------------------------------------------------------------------------------




--------------------------------------- Iteration      1(   9)  ---------------------------------------


    POTLOK:  cpu time    2.0916: real time    2.0943
    SETDIJ:  cpu time    2.0640: real time    2.0658
    TRIAL :  cpu time  307.2017: real time  307.5261
    CORREC:  cpu time    0.0010: real time    0.0010
    CHARGE:  cpu time    1.3160: real time    1.3177
    --------------------------------------------
      LOOP:  cpu time  312.6753: real time  313.0096

 eigenvalue-minimisations  :     0
 total energy-change (2. order) :-0.2914193E-01  (-0.2788506E-01)
 number of electron     234.0000016 magnetization      -0.0221245
 augmentation part       11.4534813 magnetization      -0.4575335

 DIPCOR: dipole corrections for dipol
 direction  3 min pos     1,
 dipolmoment           0.000000     -0.000001     -0.002130 electrons x Angstroem
 Tr[quadrupol]     -5952.396340

 energy correction for charged system         0.000000 eV
 dipol+quadrupol energy correction            0.000000 eV
 added-field ion interaction          0.000000 eV  (added to PSCEN)


 Free energy of the ion-electron system (eV)
  ---------------------------------------------------
  alpha Z        PSCENC =        94.98530493
  Ewald energy   TEWEN  =     37395.03110060
  -Hartree energ DENC   =    -45316.83628704
  -exchange      EXHF   =       530.15184256
  -V(xc)+E(xc)   XCENC  =       572.51513316
  PAW double counting   =     25860.65746921   -25862.91811630
  entropy T*S    EENTRO =        -0.00391281
  eigenvalues    EBANDS =     -3090.31702826
  atomic energy  EATOM  =      9230.44867039
  ---------------------------------------------------
  free energy    TOTEN  =      -586.28626665 eV

  energy without entropy =     -586.28235384  energy(sigma->0) =     -586.28431025
  exchange ACFDT corr.  =        -0.00330573  see jH, gK, PRB 81, 115126


--------------------------------------------------------------------------------------------------------




--------------------------------------- Iteration      1(  10)  ---------------------------------------


    POTLOK:  cpu time    2.0865: real time    2.0891
    SETDIJ:  cpu time    2.0613: real time    2.0627
    TRIAL :  cpu time  306.4385: real time  306.7696
    CORREC:  cpu time    0.0009: real time    0.0009
    CHARGE:  cpu time    1.3152: real time    1.3160
    --------------------------------------------
      LOOP:  cpu time  311.9041: real time  312.2423

 eigenvalue-minimisations  :     0
 total energy-change (2. order) :-0.2632821E-01  (-0.2535732E-01)
 number of electron     234.0000016 magnetization      -0.0195175
 augmentation part       11.4555727 magnetization      -0.4739335

 DIPCOR: dipole corrections for dipol
 direction  3 min pos     1,
 dipolmoment           0.000000     -0.000001     -0.002079 electrons x Angstroem
 Tr[quadrupol]     -5952.394924

 energy correction for charged system         0.000000 eV
 dipol+quadrupol energy correction            0.000000 eV
 added-field ion interaction          0.000000 eV  (added to PSCEN)


 Free energy of the ion-electron system (eV)
  ---------------------------------------------------
  alpha Z        PSCENC =        94.98530492
  Ewald energy   TEWEN  =     37395.03110060
  -Hartree energ DENC   =    -45316.67185899
  -exchange      EXHF   =       530.20560039
  -V(xc)+E(xc)   XCENC  =       572.53515146
  PAW double counting   =     25864.29404706   -25866.54637191
  entropy T*S    EENTRO =        -0.00350905
  eigenvalues    EBANDS =     -3090.59032599
  atomic energy  EATOM  =      9230.44867039
  ---------------------------------------------------
  free energy    TOTEN  =      -586.31259486 eV

  energy without entropy =     -586.30908581  energy(sigma->0) =     -586.31084033
  exchange ACFDT corr.  =        -0.00289117  see jH, gK, PRB 81, 115126


--------------------------------------------------------------------------------------------------------




--------------------------------------- Iteration      1(  11)  ---------------------------------------


    POTLOK:  cpu time    2.0843: real time    2.0857
    SETDIJ:  cpu time    2.0624: real time    2.0635
    TRIAL :  cpu time  307.1291: real time  307.4410
    CORREC:  cpu time    0.0010: real time    0.0009
    CHARGE:  cpu time    1.3280: real time    1.3292
    --------------------------------------------
      LOOP:  cpu time  312.6058: real time  312.9243

 eigenvalue-minimisations  :     0
 total energy-change (2. order) :-0.2420566E-01  (-0.2338469E-01)
 number of electron     234.0000016 magnetization      -0.0173339
 augmentation part       11.4580009 magnetization      -0.4895824

 DIPCOR: dipole corrections for dipol
 direction  3 min pos     1,
 dipolmoment           0.000000     -0.000001     -0.002044 electrons x Angstroem
 Tr[quadrupol]     -5952.395243

 energy correction for charged system         0.000000 eV
 dipol+quadrupol energy correction            0.000000 eV
 added-field ion interaction          0.000000 eV  (added to PSCEN)


 Free energy of the ion-electron system (eV)
  ---------------------------------------------------
  alpha Z        PSCENC =        94.98530492
  Ewald energy   TEWEN  =     37395.03110060
  -Hartree energ DENC   =    -45316.54508902
  -exchange      EXHF   =       530.24967547
  -V(xc)+E(xc)   XCENC  =       572.55226067
  PAW double counting   =     25865.42056841   -25867.70413519
  entropy T*S    EENTRO =        -0.00316408
  eigenvalues    EBANDS =     -3090.77164772
  atomic energy  EATOM  =      9230.44867039
  ---------------------------------------------------
  free energy    TOTEN  =      -586.33680052 eV

  energy without entropy =     -586.33363644  energy(sigma->0) =     -586.33521848
  exchange ACFDT corr.  =        -0.00252772  see jH, gK, PRB 81, 115126


--------------------------------------------------------------------------------------------------------




--------------------------------------- Iteration      1(  12)  ---------------------------------------


    POTLOK:  cpu time    2.0835: real time    2.0846
    SETDIJ:  cpu time    2.0567: real time    2.0591
    TRIAL :  cpu time  305.3670: real time  305.6973
    CORREC:  cpu time    0.0010: real time    0.0009
    CHARGE:  cpu time    1.3159: real time    1.3171
    --------------------------------------------
      LOOP:  cpu time  310.8278: real time  311.1658

 eigenvalue-minimisations  :     0
 total energy-change (2. order) :-0.2246329E-01  (-0.2174778E-01)
 number of electron     234.0000016 magnetization      -0.0155431
 augmentation part       11.4593877 magnetization      -0.5048981

 DIPCOR: dipole corrections for dipol
 direction  3 min pos     1,
 dipolmoment           0.000000     -0.000001     -0.002026 electrons x Angstroem
 Tr[quadrupol]     -5952.399110

 energy correction for charged system         0.000000 eV
 dipol+quadrupol energy correction            0.000000 eV
 added-field ion interaction          0.000000 eV  (added to PSCEN)


 Free energy of the ion-electron system (eV)
  ---------------------------------------------------
  alpha Z        PSCENC =        94.98530492
  Ewald energy   TEWEN  =     37395.03110060
  -Hartree energ DENC   =    -45316.65754731
  -exchange      EXHF   =       530.29465774
  -V(xc)+E(xc)   XCENC  =       572.57320157
  PAW double counting   =     25865.78287311   -25868.10840440
  entropy T*S    EENTRO =        -0.00287591
  eigenvalues    EBANDS =     -3090.70595635
  atomic energy  EATOM  =      9230.44867039
  ---------------------------------------------------
  free energy    TOTEN  =      -586.35926381 eV

  energy without entropy =     -586.35638790  energy(sigma->0) =     -586.35782586
  exchange ACFDT corr.  =        -0.00222700  see jH, gK, PRB 81, 115126


--------------------------------------------------------------------------------------------------------




--------------------------------------- Iteration      1(  13)  ---------------------------------------


    POTLOK:  cpu time    2.0785: real time    2.0796
    SETDIJ:  cpu time    2.0588: real time    2.0612
    TRIAL :  cpu time  305.2191: real time  305.5267
    CORREC:  cpu time    0.0009: real time    0.0009
    CHARGE:  cpu time    1.3184: real time    1.3193
    --------------------------------------------
      LOOP:  cpu time  310.6766: real time  310.9915

 eigenvalue-minimisations  :     0
 total energy-change (2. order) :-0.2098561E-01  (-0.2029328E-01)
 number of electron     234.0000016 magnetization      -0.0140246
 augmentation part       11.4601675 magnetization      -0.5196742

 DIPCOR: dipole corrections for dipol
 direction  3 min pos     1,
 dipolmoment           0.000000     -0.000001     -0.002011 electrons x Angstroem
 Tr[quadrupol]     -5952.404260

 energy correction for charged system         0.000000 eV
 dipol+quadrupol energy correction            0.000000 eV
 added-field ion interaction          0.000000 eV  (added to PSCEN)


 Free energy of the ion-electron system (eV)
  ---------------------------------------------------
  alpha Z        PSCENC =        94.98530491
  Ewald energy   TEWEN  =     37395.03110060
  -Hartree energ DENC   =    -45316.86029064
  -exchange      EXHF   =       530.34063429
  -V(xc)+E(xc)   XCENC  =       572.59576091
  PAW double counting   =     25866.23350810   -25868.58601900
  entropy T*S    EENTRO =        -0.00262759
  eigenvalues    EBANDS =     -3090.56604309
  atomic energy  EATOM  =      9230.44867039
  ---------------------------------------------------
  free energy    TOTEN  =      -586.38024943 eV

  energy without entropy =     -586.37762184  energy(sigma->0) =     -586.37893563
  exchange ACFDT corr.  =        -0.00198262  see jH, gK, PRB 81, 115126


--------------------------------------------------------------------------------------------------------




--------------------------------------- Iteration      1(  14)  ---------------------------------------


    POTLOK:  cpu time    2.0744: real time    2.0769
    SETDIJ:  cpu time    2.0579: real time    2.0592
    TRIAL :  cpu time  305.1163: real time  305.4239
    CORREC:  cpu time    0.0009: real time    0.0009
    CHARGE:  cpu time    1.3174: real time    1.3184
    --------------------------------------------
      LOOP:  cpu time  310.5679: real time  310.8836

 eigenvalue-minimisations  :     0
 total energy-change (2. order) :-0.1961928E-01  (-0.1890241E-01)
 number of electron     234.0000016 magnetization      -0.0126846
 augmentation part       11.4610178 magnetization      -0.5335837

 DIPCOR: dipole corrections for dipol
 direction  3 min pos     1,
 dipolmoment           0.000000     -0.000001     -0.002004 electrons x Angstroem
 Tr[quadrupol]     -5952.409076

 energy correction for charged system         0.000000 eV
 dipol+quadrupol energy correction            0.000000 eV
 added-field ion interaction          0.000000 eV  (added to PSCEN)


 Free energy of the ion-electron system (eV)
  ---------------------------------------------------
  alpha Z        PSCENC =        94.98530491
  Ewald energy   TEWEN  =     37395.03110060
  -Hartree energ DENC   =    -45317.09060844
  -exchange      EXHF   =       530.38605463
  -V(xc)+E(xc)   XCENC  =       572.61885831
  PAW double counting   =     25867.03848059   -25869.41084296
  entropy T*S    EENTRO =        -0.00240527
  eigenvalues    EBANDS =     -3090.40425916
  atomic energy  EATOM  =      9230.44867039
  ---------------------------------------------------
  free energy    TOTEN  =      -586.39986871 eV

  energy without entropy =     -586.39746344  energy(sigma->0) =     -586.39866607
  exchange ACFDT corr.  =        -0.00177782  see jH, gK, PRB 81, 115126


--------------------------------------------------------------------------------------------------------




--------------------------------------- Iteration      1(  15)  ---------------------------------------


    POTLOK:  cpu time    2.0730: real time    2.0752
    SETDIJ:  cpu time    2.0605: real time    2.0623
    TRIAL :  cpu time  305.3016: real time  305.6490
    CORREC:  cpu time    0.0009: real time    0.0009
    CHARGE:  cpu time    1.3169: real time    1.3187
    --------------------------------------------
      LOOP:  cpu time  310.7538: real time  311.1099

 eigenvalue-minimisations  :     0
 total energy-change (2. order) :-0.1830076E-01  (-0.1756870E-01)
 number of electron     234.0000016 magnetization      -0.0114820
 augmentation part       11.4619335 magnetization      -0.5465789

 DIPCOR: dipole corrections for dipol
 direction  3 min pos     1,
 dipolmoment           0.000000     -0.000001     -0.002008 electrons x Angstroem
 Tr[quadrupol]     -5952.412938

 energy correction for charged system         0.000000 eV
 dipol+quadrupol energy correction            0.000000 eV
 added-field ion interaction          0.000000 eV  (added to PSCEN)


 Free energy of the ion-electron system (eV)
  ---------------------------------------------------
  alpha Z        PSCENC =        94.98530491
  Ewald energy   TEWEN  =     37395.03110060
  -Hartree energ DENC   =    -45317.31050131
  -exchange      EXHF   =       530.42922905
  -V(xc)+E(xc)   XCENC  =       572.64145945
  PAW double counting   =     25868.20132854   -25870.59707207
  entropy T*S    EENTRO =        -0.00220303
  eigenvalues    EBANDS =     -3090.24528377
  atomic energy  EATOM  =      9230.44867039
  ---------------------------------------------------
  free energy    TOTEN  =      -586.41816947 eV

  energy without entropy =     -586.41596644  energy(sigma->0) =     -586.41706796
  exchange ACFDT corr.  =        -0.00140657  see jH, gK, PRB 81, 115126


--------------------------------------------------------------------------------------------------------




--------------------------------------- Iteration      1(  16)  ---------------------------------------


    POTLOK:  cpu time    2.0716: real time    2.0731
    SETDIJ:  cpu time    2.0570: real time    2.0583
    TRIAL :  cpu time  305.8849: real time  306.2158
    CORREC:  cpu time    0.0008: real time    0.0008
    CHARGE:  cpu time    1.3167: real time    1.3177
    --------------------------------------------
      LOOP:  cpu time  311.3319: real time  311.6692

 eigenvalue-minimisations  :     0
 total energy-change (2. order) :-0.1702225E-01  (-0.1628343E-01)
 number of electron     234.0000016 magnetization      -0.0104036
 augmentation part       11.4627664 magnetization      -0.5587713

 DIPCOR: dipole corrections for dipol
 direction  3 min pos     1,
 dipolmoment           0.000000     -0.000001     -0.002007 electrons x Angstroem
 Tr[quadrupol]     -5952.415734

 energy correction for charged system         0.000000 eV
 dipol+quadrupol energy correction            0.000000 eV
 added-field ion interaction          0.000000 eV  (added to PSCEN)


 Free energy of the ion-electron system (eV)
  ---------------------------------------------------
  alpha Z        PSCENC =        94.98530491
  Ewald energy   TEWEN  =     37395.03110060
  -Hartree energ DENC   =    -45317.45588103
  -exchange      EXHF   =       530.46880520
  -V(xc)+E(xc)   XCENC  =       572.66186344
  PAW double counting   =     25869.56867593   -25871.98848622
  entropy T*S    EENTRO =        -0.00201932
  eigenvalues    EBANDS =     -3090.15304192
  atomic energy  EATOM  =      9230.44867039
  ---------------------------------------------------
  free energy    TOTEN  =      -586.43519172 eV

  energy without entropy =     -586.43317240  energy(sigma->0) =     -586.43418206
  exchange ACFDT corr.  =        -0.00125889  see jH, gK, PRB 81, 115126


--------------------------------------------------------------------------------------------------------




--------------------------------------- Iteration      1(  17)  ---------------------------------------


    POTLOK:  cpu time    2.0699: real time    2.0711
    SETDIJ:  cpu time    2.0587: real time    2.0602
    TRIAL :  cpu time  305.9585: real time  306.2839
    CORREC:  cpu time    0.0009: real time    0.0009
    CHARGE:  cpu time    1.3113: real time    1.3186
    --------------------------------------------
      LOOP:  cpu time  311.4007: real time  311.7383

 eigenvalue-minimisations  :     0
 total energy-change (2. order) :-0.1578310E-01  (-0.1504785E-01)
 number of electron     234.0000016 magnetization      -0.0094427
 augmentation part       11.4635694 magnetization      -0.5702301

 DIPCOR: dipole corrections for dipol
 direction  3 min pos     1,
 dipolmoment           0.000000     -0.000001     -0.002000 electrons x Angstroem
 Tr[quadrupol]     -5952.417894

 energy correction for charged system         0.000000 eV
 dipol+quadrupol energy correction            0.000000 eV
 added-field ion interaction          0.000000 eV  (added to PSCEN)


 Free energy of the ion-electron system (eV)
  ---------------------------------------------------
  alpha Z        PSCENC =        94.98530491
  Ewald energy   TEWEN  =     37395.03110060
  -Hartree energ DENC   =    -45317.53213376
  -exchange      EXHF   =       530.50537114
  -V(xc)+E(xc)   XCENC  =       572.68030005
  PAW double counting   =     25870.98035486   -25873.42117048
  entropy T*S    EENTRO =        -0.00185356
  eigenvalues    EBANDS =     -3090.12675321
  atomic energy  EATOM  =      9230.44867039
  ---------------------------------------------------
  free energy    TOTEN  =      -586.45097482 eV

  energy without entropy =     -586.44912127  energy(sigma->0) =     -586.45004804
  exchange ACFDT corr.  =        -0.00112956  see jH, gK, PRB 81, 115126


--------------------------------------------------------------------------------------------------------




--------------------------------------- Iteration      1(  18)  ---------------------------------------


    POTLOK:  cpu time    2.0675: real time    2.0688
    SETDIJ:  cpu time    2.0576: real time    2.0587
    TRIAL :  cpu time  305.8565: real time  306.1941
    CORREC:  cpu time    0.0009: real time    0.0009
    CHARGE:  cpu time    1.3153: real time    1.3160
    --------------------------------------------
      LOOP:  cpu time  311.2988: real time  311.6422

 eigenvalue-minimisations  :     0
[...]
  Alpha Z    94.98530    94.98530    94.98530
  Ewald   45228.05318 45362.54945-53195.59582   -36.72579    -3.91706    -0.26241
  Hartree 44679.43768 44653.50951-44018.55290    -5.64449    -2.99046     0.03853
  E(xc)    -680.91380  -684.27349  -694.01840     1.05793    -0.04756     0.00755
  Local  -92430.80941-92503.83001 94228.56000    35.14632     6.99069     0.12412
  n-local  -201.08840  -204.91804  -191.87577     0.45801    -0.09754     0.01931
  augment    26.47802    23.19673    24.51768     0.78646     0.02558     0.02351
  Kinetic  3527.75934  3507.66474  4008.29306     3.17028     0.18615     0.04910
  Fock     -286.68855  -291.11418  -256.73000     0.91997    -0.10812    -0.00931
  -------------------------------------------------------------------------------------
  Total     -42.78664   -42.22998    -0.41684    -0.83131     0.04169    -0.00958
  in kB     -21.57843   -21.29769    -0.21022    -0.41925     0.02103    -0.00483
  external pressure =      -14.36 kB  Pullay stress =        0.00 kB


 VOLUME and BASIS-vectors are now :
 -----------------------------------------------------------------------------
  energy-cutoff  :      500.00
  volume of cell :     3176.87
      direct lattice vectors                 reciprocal lattice vectors
    12.751800000  0.000000000  0.000000000     0.078420301  0.000690386  0.000001526
    -0.108404169 12.313522832  0.000000000     0.000000000  0.081211528 -0.000029751
    -0.000459056  0.007411771 20.232298637     0.000000000  0.000000000  0.049425921

  length of vectors
    12.751800000 12.314000000 20.232300000     0.078423340  0.081211533  0.049425921


 FORCES acting on ions:
    Electron-Ion                     Ewald-Force                    Non-Local-Force
 -----------------------------------------------------------------------------------------------
   0.286E+00 0.791E+00 -.259E+00   -.671E+00 -.673E+00 0.261E+00   0.421E+00 -.426E-01 -.211E-02
   0.208E+00 -.362E+01 -.556E+00   -.188E+00 0.354E+01 0.555E+00   -.234E-01 0.298E-01 -.316E-03
   0.128E+01 0.138E+01 -.355E+00   -.146E+01 -.139E+01 0.355E+00   0.940E-01 0.833E-02 -.249E-03
   0.522E+01 0.124E+01 -.120E-01   -.562E+01 -.151E+01 0.870E-02   0.308E+00 0.185E+00 0.267E-02
   0.564E+01 -.843E+01 -.204E+00   -.604E+01 0.858E+01 0.202E+00   0.418E+00 -.833E-01 -.185E-02
   0.104E+01 -.480E+01 -.473E+00   -.113E+01 0.464E+01 0.471E+00   0.165E+00 0.138E+00 0.120E-02
   -.172E+01 -.128E+01 -.568E+00   0.133E+01 0.140E+01 0.569E+00   0.312E+00 -.751E-01 -.271E-02
   0.237E+02 -.247E+02 0.333E+00   -.272E+02 0.250E+02 -.315E+00   0.329E+01 -.245E+00 -.182E-01
   -.885E+01 0.128E+02 -.132E+00   0.739E+01 -.154E+02 0.129E+00   0.132E+01 0.237E+01 0.316E-02
   0.515E+01 0.219E+01 -.290E+00   -.524E+01 -.230E+01 0.291E+00   -.639E-01 0.823E-01 -.226E-02
   -.899E+01 0.107E+01 -.348E+00   0.899E+01 -.151E+01 0.348E+00   0.105E+00 0.389E+00 -.937E-03
   -.120E+02 -.119E+02 -.447E+00   0.102E+02 0.143E+02 0.448E+00   0.161E+01 -.223E+01 -.119E-02
   0.295E+01 0.509E+01 0.598E-01   -.313E+01 -.485E+01 -.597E-01   0.236E+00 -.145E+00 0.106E-02
   -.529E+01 -.394E+01 -.150E+00   0.519E+01 0.431E+01 0.148E+00   0.286E+00 -.334E+00 0.189E-02
   0.807E+01 0.225E+02 -.401E+00   -.115E+02 -.228E+02 0.398E+00   0.332E+01 0.183E+00 0.178E-02
   0.185E+01 0.723E+01 -.197E+00   -.234E+01 -.721E+01 0.198E+00   0.534E+00 -.950E-02 -.162E-03
   0.157E+01 0.191E+01 -.158E+00   -.161E+01 -.177E+01 0.158E+00   0.424E-01 -.816E-01 0.331E-03
   -.844E+00 0.212E+01 -.139E-01   0.300E+00 -.222E+01 0.123E-01   0.446E+00 0.293E-01 0.247E-02
   0.135E+00 0.928E+00 -.242E+00   -.388E+00 -.619E+00 0.241E+00   0.213E+00 -.331E+00 0.336E-03
   -.519E+01 0.899E+01 -.687E-01   0.476E+01 -.898E+01 0.668E-01   0.285E+00 0.654E-01 0.148E-02
   -.304E+00 0.826E+01 0.209E+00   0.550E+00 -.878E+01 -.208E+00   -.976E-01 0.510E+00 -.232E-02
   0.260E+01 0.336E+01 -.826E-01   -.216E+01 -.331E+01 0.820E-01   -.321E+00 0.493E-02 -.238E-03
   0.954E+00 0.782E+01 0.117E-01   -.120E+01 -.837E+01 -.105E-01   0.190E+00 0.524E+00 -.221E-02
   0.138E+02 0.193E+02 0.614E+00   -.152E+02 -.222E+02 -.609E+00   0.130E+01 0.276E+01 -.320E-02
   -.109E+02 0.155E+02 0.945E+00   0.123E+02 -.184E+02 -.930E+00   -.129E+01 0.282E+01 -.128E-01
   0.168E+02 0.154E+02 -.209E+00   -.178E+02 -.130E+02 0.209E+00   0.108E+01 -.232E+01 0.142E-02
   -.603E+01 0.647E+01 -.280E+00   0.634E+01 -.604E+01 0.281E+00   -.221E+00 -.556E+00 -.159E-02
   -.297E+02 0.731E+01 -.291E+00   0.313E+02 -.440E+01 0.288E+00   -.170E+01 -.278E+01 0.308E-02
   0.518E+01 0.897E+01 -.215E+00   -.543E+01 -.867E+01 0.216E+00   0.236E+00 -.404E+00 -.185E-02
   -.481E+00 0.124E+01 -.421E+00   0.645E+00 -.121E+01 0.421E+00   -.686E-01 -.228E-01 -.428E-03
   -.543E+01 0.390E+01 -.337E+00   0.575E+01 -.423E+01 0.336E+00   -.294E+00 0.218E+00 -.388E-03
   0.108E+01 0.562E+01 -.391E+00   -.727E+00 -.557E+01 0.393E+00   -.407E+00 0.915E-02 -.246E-02
   -.172E+00 -.517E+00 -.599E+00   0.188E+00 0.422E+00 0.599E+00   -.145E-01 0.310E-01 -.882E-03
   0.827E+00 -.186E+01 -.644E+00   -.348E+00 0.204E+01 0.645E+00   -.380E+00 -.883E-01 -.187E-02
   -.254E+02 -.258E+02 -.168E+00   0.289E+02 0.262E+02 0.180E+00   -.339E+01 -.475E+00 -.124E-01
   -.709E+01 -.540E+01 -.515E+00   0.751E+01 0.560E+01 0.514E+00   -.462E+00 -.679E-01 -.191E-02
   -.272E+01 -.421E+01 -.508E+00   0.289E+01 0.402E+01 0.507E+00   -.246E+00 0.979E-01 -.156E-03
   0.636E+01 0.200E+01 -.262E+00   -.647E+01 -.248E+01 0.261E+00   0.132E-01 0.464E+00 0.805E-03
   0.846E+01 0.127E+02 -.134E+00   -.689E+01 -.148E+02 0.135E+00   -.147E+01 0.201E+01 -.547E-04
   -.360E+01 -.430E+01 -.167E+00   0.359E+01 0.433E+01 0.167E+00   0.108E+00 -.488E-01 0.183E-03
   0.131E+02 -.410E+01 0.347E-01   -.133E+02 0.455E+01 -.347E-01   0.726E-01 -.436E+00 0.104E-02
   -.221E+01 0.323E+02 -.720E-01   0.506E+01 -.326E+02 0.707E-01   -.287E+01 0.385E+00 0.777E-03
   0.229E+02 -.290E+02 -.316E-01   -.215E+02 0.311E+02 0.304E-01   -.131E+01 -.222E+01 0.157E-02
   0.291E+01 0.272E+01 0.133E+00   -.285E+01 -.254E+01 -.133E+00   -.128E+00 -.903E-01 0.114E-02
   0.779E+01 0.348E+01 0.513E-01   -.741E+01 -.363E+01 -.518E-01   -.273E+00 0.710E-01 0.165E-02
   -.250E+01 0.597E+01 -.202E+00   0.278E+01 -.575E+01 0.201E+00   -.297E+00 -.194E+00 0.141E-02
   0.211E+01 0.153E+02 -.611E-01   -.182E+01 -.156E+02 0.620E-01   -.343E+00 0.239E+00 -.385E-03
   0.283E+01 0.558E+01 -.152E+00   -.286E+01 -.552E+01 0.152E+00   0.322E-01 -.117E-02 0.230E-03
   -.133E+03 -.770E+01 -.687E+00   0.158E+03 0.840E+01 0.678E+00   -.230E+02 -.579E+00 0.183E-02
   -.525E+01 -.744E+02 0.253E+01   0.149E+02 0.916E+02 -.265E+01   -.912E+01 -.164E+02 0.122E+00
   0.131E+02 -.869E+02 0.851E+00   -.238E+02 0.106E+03 -.899E+00   0.998E+01 -.181E+02 0.479E-01
   -.752E+02 0.120E+03 -.718E+00   0.868E+02 -.140E+03 0.745E+00   -.108E+02 0.190E+02 -.248E-01
   0.705E+02 0.139E+03 -.326E+00   -.836E+02 -.162E+03 0.329E+00   0.123E+02 0.211E+02 -.444E-02
   0.151E+03 -.162E+02 -.190E+00   -.181E+03 0.154E+02 0.183E+00   0.282E+02 0.781E+00 0.319E-02
   -.366E+02 -.163E+03 0.818E+01   0.413E+02 0.133E+03 -.833E+01   -.259E+01 0.233E+02 0.867E-01
   -.200E+02 -.486E+02 -.155E+01   0.139E+02 0.661E+02 0.168E+01   0.383E+01 -.888E+01 -.431E-01
 -----------------------------------------------------------------------------------------------
   -.105E+02 -.202E+02 -.141E+00   -.270E-12 -.171E-12 -.222E-15   0.955E+01 0.205E+02 0.144E+00
 
 
 POSITION                                       TOTAL-FORCE (eV/Angst)
 -----------------------------------------------------------------------------------
      2.83385      0.03368     10.11631         0.056356      0.072573     -0.000788
      0.70900      1.26424     10.11785        -0.005517     -0.050925     -0.000941
      1.40737      0.02514     10.11716        -0.077991      0.000114     -0.000562
      3.53932      1.27209     10.11462        -0.072350     -0.073171     -0.000550
      2.85476      2.52435     10.11491         0.042904      0.058331     -0.003080
      0.70832      3.73550     10.11731         0.083906     -0.017987     -0.000908
      1.42098      2.50731     10.11725        -0.064442      0.046715     -0.001447
      3.60574      3.75674     10.11183        -0.098781      0.088068     -0.001100
      2.88388      5.02403     10.11491        -0.056012     -0.146853      0.000201
      0.67021      6.17798     10.11662        -0.138740     -0.014274     -0.001312
      1.42721      4.96832     10.11655         0.093029     -0.035981     -0.000987
      2.80592      7.38990     10.11688        -0.078392      0.063606     -0.000345
      0.62183      8.62825     10.11587         0.075680      0.090505      0.001284
      1.36783      7.40997     10.11638         0.197091      0.014558      0.000698
      3.48843      8.65942     10.11713         0.066009     -0.055345     -0.000861
      2.73881      9.87301     10.11666         0.073567      0.011292      0.000227
      0.59568     11.09790     10.11672         0.007169      0.048414      0.000400
      1.31201      9.86593     10.11624        -0.076242     -0.068577      0.001047
      3.43395     11.11145     10.11649        -0.025930     -0.042669     -0.000624
      6.96886     12.30873     10.11497        -0.137894      0.081007     -0.000322
      4.96347      1.26297     10.11296         0.139929      0.024148     -0.001200
      5.66713      0.01729     10.11484         0.113166      0.054295     -0.000875
      7.77737      1.23573     10.11401        -0.041903      0.001439     -0.001126
      7.09619      2.48503     10.11067        -0.023630      0.059209      0.001294
      5.64620      2.50406     10.10927         0.006758      0.021582      0.001897
      6.98930      9.80146     10.11626         0.154213     -0.080508      0.000696
      4.85792     11.09775     10.11625         0.068483     -0.155076     -0.001221
      5.53944      9.84260     10.11668        -0.199116     -0.036196      0.000283
      7.66919     11.06208     10.11605         0.002781     -0.130967     -0.000896
     11.32839      0.00903     10.11749         0.089405      0.001332     -0.000527
      9.19912      1.23525     10.11603         0.001121     -0.101446     -0.001276
      9.79531     12.31139     10.11693        -0.074092      0.058750     -0.001028
     12.03017      1.25193     10.11811         0.001115     -0.061902     -0.000789
     11.31767      2.48839     10.11785         0.082133      0.090955     -0.001084
      9.12982      3.70143     10.11401        -0.024398     -0.057342     -0.001287
      9.88656      2.48444     10.11646        -0.072184      0.122775     -0.002954
     12.02073      3.72315     10.11750        -0.098215     -0.089071     -0.001035
     11.27796      4.93927     10.11638        -0.084769      0.019434     -0.000192
      9.83439      4.97529     10.11505         0.011114      0.066648      0.001113
     11.97930      6.17008     10.11623         0.095067     -0.035566     -0.000120
     11.22829      7.38352     10.11554        -0.111086     -0.003492      0.001148
      9.01355      8.58156     10.11570        -0.181410      0.141253     -0.000531
      9.77595      7.31999     10.11527         0.028610     -0.260663      0.000446
     11.93735      8.61526     10.11552        -0.077791      0.083993      0.001502
     11.21092      9.83674     10.11586         0.103112     -0.073542      0.001228
      9.09001     11.06677     10.11635        -0.033548      0.013575     -0.000204
      9.77277      9.81379     10.11596        -0.074465     -0.057194      0.000467
     11.91822     11.08260     10.11670         0.002658      0.060179      0.000697
      3.55726      6.23079     10.11614        -0.002838      0.065717     -0.007203
      4.98495      3.72531     10.10603        -0.250135     -0.570961      0.015978
      7.76969      3.68119     10.10999         0.141115     -0.470848      0.004078
      4.85327      8.66668     10.11738        -0.137456      0.192115      0.000177
      7.63536      8.58202     10.11610         0.288198      0.487404     -0.001088
      9.12507      6.13317     10.11483         0.595960      0.083320     -0.003603
      6.35273      5.10026     10.09876         0.658039     -1.951219     -0.013987
      5.90371      6.78775     10.11615        -0.959360      2.418466      0.021190
 -----------------------------------------------------------------------------------
    total drift:                               -0.004323     -0.004545      0.000174


--------------------------------------------------------------------------------------------------------



  FREE ENERGIE OF THE ION-ELECTRON SYSTEM (eV)
  ---------------------------------------------------
  free  energy   TOTEN  =      -586.65838140 eV

  energy  without entropy=     -586.65793112  energy(sigma->0) =     -586.65815626
 


--------------------------------------------------------------------------------------------------------


    POTLOK:  cpu time    4.1231: real time    4.1256


--------------------------------------------------------------------------------------------------------


 stress matrix after NEB project (eV)
    -42.78664     -0.83156     -0.00958
     -0.83131    -42.22998      0.04170
     -0.00960      0.04169     -0.41684
  FORCES: max atom, RMS     2.601884    0.483026
  FORCE total and by dimension    3.614639    2.418466
  Stress total and by dimension   60.130093   42.786643
 writing wavefunctions
     LOOP+:  cpu time34884.8844: real time34924.4198
    4ORBIT:  cpu time    0.0000: real time    0.0000
 


 total charge     
 
# of ion       s       p       d       tot
------------------------------------------
    1        0.864   1.786   0.000   2.650
    2        0.866   1.768   0.000   2.634
    3        0.867   1.778   0.000   2.645
    4        0.870   1.766   0.000   2.635
    5        0.862   1.762   0.000   2.624
    6        0.863   1.772   0.000   2.635
    7        0.865   1.768   0.000   2.633
    8        0.851   1.716   0.000   2.567
    9        0.849   1.708   0.000   2.557
   10        0.867   1.768   0.000   2.635
   11        0.862   1.755   0.000   2.617
   12        0.856   1.738   0.000   2.593
   13        0.864   1.776   0.000   2.640
   14        0.867   1.773   0.000   2.640
   15        0.863   1.750   0.000   2.612
   16        0.868   1.782   0.000   2.651
   17        0.866   1.773   0.000   2.639
   18        0.868   1.780   0.000   2.648
   19        0.872   1.770   0.000   2.642
   20        0.866   1.791   0.000   2.656
   21        0.868   1.782   0.000   2.650
   22        0.867   1.794   0.000   2.661
   23        0.869   1.784   0.000   2.653
   24        0.861   1.742   0.000   2.602
   25        0.859   1.737   0.000   2.595
   26        0.858   1.728   0.000   2.586
   27        0.868   1.785   0.000   2.653
   28        0.862   1.743   0.000   2.605
   29        0.867   1.775   0.000   2.642
   30        0.867   1.777   0.000   2.644
   31        0.871   1.768   0.000   2.639
   32        0.864   1.785   0.000   2.649
   33        0.866   1.770   0.000   2.635
   34        0.867   1.772   0.000   2.639
   35        0.860   1.736   0.000   2.596
   36        0.865   1.773   0.000   2.638
   37        0.863   1.775   0.000   2.638
   38        0.868   1.772   0.000   2.640
   39        0.856   1.739   0.000   2.595
   40        0.868   1.763   0.000   2.631
   41        0.864   1.764   0.000   2.629
   42        0.852   1.702   0.000   2.554
   43        0.854   1.720   0.000   2.574
   44        0.865   1.777   0.000   2.642
   45        0.864   1.764   0.000   2.628
   46        0.870   1.762   0.000   2.633
   47        0.862   1.758   0.000   2.620
   48        0.866   1.769   0.000   2.635
   49        1.234   2.614   0.000   3.848
   50        1.225   2.663   0.000   3.889
   51        1.232   2.684   0.000   3.916
   52        1.239   2.688   0.000   3.927
   53        1.235   2.619   0.000   3.855
   54        1.251   2.625   0.000   3.875
   55        0.334   0.382   6.724   7.440
   56        0.290   0.459   2.947   3.696
--------------------------------------------------
tot         49.505 101.330   9.671 160.506
 


 magnetization (x)
 
# of ion       s       p       d       tot
------------------------------------------
    1       -0.000  -0.003   0.000  -0.003
    2        0.000   0.005   0.000   0.005
    3       -0.000  -0.002   0.000  -0.002
    4        0.000   0.006   0.000   0.006
    5       -0.000   0.003   0.000   0.003
    6        0.000   0.003   0.000   0.003
    7       -0.000  -0.002   0.000  -0.002
    8        0.000   0.011   0.000   0.011
    9        0.001   0.019   0.000   0.020
   10        0.002   0.039   0.000   0.041
   11       -0.001  -0.005   0.000  -0.006
   12        0.002   0.033   0.000   0.035
   13        0.000   0.004   0.000   0.004
   14       -0.001  -0.009   0.000  -0.011
   15        0.000   0.005   0.000   0.005
   16        0.000   0.001   0.000   0.001
   17        0.001   0.008   0.000   0.009
   18       -0.000  -0.000   0.000  -0.000
   19        0.000   0.002   0.000   0.002
   20       -0.000  -0.007   0.000  -0.007
   21       -0.000   0.002   0.000   0.002
   22        0.000   0.002   0.000   0.002
   23        0.000   0.006   0.000   0.007
   24       -0.001  -0.008   0.000  -0.009
   25        0.000   0.009   0.000   0.009
   26       -0.000  -0.004   0.000  -0.004
   27        0.000   0.006   0.000   0.006
   28        0.000   0.003   0.000   0.003
   29        0.000   0.002   0.000   0.002
   30        0.001   0.009   0.000   0.010
   31       -0.000   0.001   0.000   0.000
   32       -0.000  -0.001   0.000  -0.001
   33       -0.000  -0.003   0.000  -0.004
   34        0.001   0.012   0.000   0.012
   35        0.001   0.010   0.000   0.011
   36       -0.000  -0.001   0.000  -0.001
   37       -0.000  -0.005   0.000  -0.005
   38        0.001   0.008   0.000   0.008
   39       -0.001  -0.001   0.000  -0.002
   40       -0.001  -0.005   0.000  -0.005
   41        0.001   0.018   0.000   0.019
   42        0.000   0.006   0.000   0.007
   43       -0.001  -0.012   0.000  -0.013
   44       -0.001  -0.008   0.000  -0.009
   45        0.001   0.013   0.000   0.014
   46       -0.000  -0.002   0.000  -0.002
   47       -0.000  -0.000   0.000  -0.000
   48       -0.001  -0.005   0.000  -0.006
   49       -0.001   0.018   0.000   0.017
   50       -0.001   0.003   0.000   0.003
   51        0.002   0.028   0.000   0.029
   52        0.000   0.010   0.000   0.010
   53       -0.001  -0.006   0.000  -0.007
   54        0.002   0.048   0.000   0.050
   55        0.017   0.028  -1.990  -1.946
   56        0.062   0.045   1.250   1.358
--------------------------------------------------
tot          0.084   0.335  -0.740  -0.322
 

 total amount of memory used by VASP MPI-rank0   227481. kBytes
=======================================================================

   base      :      30000. kBytes
   nonl-proj :       6967. kBytes
   fftplans  :      17535. kBytes
   grid      :      46049. kBytes
   one-center:         93. kBytes
   HF        :         46. kBytes
   nonlr-proj:      27836. kBytes
   wavefun   :      98955. kBytes
 
  
  
 General timing and accounting informations for this job:
 ========================================================
  
                  Total CPU time used (sec):    34934.027
                            User time (sec):    34880.358
                          System time (sec):       53.670
                         Elapsed time (sec):    34979.764
  
                   Maximum memory used (kb):      488252.
                   Average memory used (kb):           0.
  
                          Minor page faults:      2096572
                          Major page faults:          216
                 Voluntary context switches:       377081
