 vasp.5.4.4.18Apr17-6-g9f103f2a35 (build Feb 25 2019 10:51:38) complex          
  
 executed on             LinuxIFC date 2021.06.19  02:40:01
 running on   80 total cores
 distrk:  each k-point on   40 cores,    2 groups
 distr:  one band on NCORES_PER_BAND=  40 cores,    1 groups


--------------------------------------------------------------------------------------------------------


 INCAR:
 POTCAR:    PAW_PBE C 08Apr2002                   
 POTCAR:    PAW_PBE N 08Apr2002                   
 POTCAR:    PAW_PBE Fe 06Sep2000                  
 POTCAR:    PAW_PBE Sc_sv 07Sep2000               

 ----------------------------------------------------------------------------- 
|                                                                             |
|           W    W    AA    RRRRR   N    N  II  N    N   GGGG   !!!           |
|           W    W   A  A   R    R  NN   N  II  NN   N  G    G  !!!           |
|           W    W  A    A  R    R  N N  N  II  N N  N  G       !!!           |
|           W WW W  AAAAAA  RRRRR   N  N N  II  N  N N  G  GGG   !            |
|           WW  WW  A    A  R   R   N   NN  II  N   NN  G    G                |
|           W    W  A    A  R    R  N    N  II  N    N   GGGG   !!!           |
|                                                                             |
|      For optimal performance we recommend to set                            |
|        NCORE= 4 - approx SQRT( number of cores)                             |
|      NCORE specifies how many cores store one orbital (NPAR=cpu/NCORE).     |
|      This setting can  greatly improve the performance of VASP for DFT.     |
|      The default,   NCORE=1            might be grossly inefficient         |
|      on modern multi-core architectures or massively parallel machines.     |
|      Do your own testing !!!!                                               |
|      Unfortunately you need to use the default for GW and RPA calculations. |
|      (for HF NCORE is supported but not extensively tested yet)             |
|                                                                             |
 ----------------------------------------------------------------------------- 


 ----------------------------------------------------------------------------- 
|                                                                             |
|           W    W    AA    RRRRR   N    N  II  N    N   GGGG   !!!           |
|           W    W   A  A   R    R  NN   N  II  NN   N  G    G  !!!           |
|           W    W  A    A  R    R  N N  N  II  N N  N  G       !!!           |
|           W WW W  AAAAAA  RRRRR   N  N N  II  N  N N  G  GGG   !            |
|           WW  WW  A    A  R   R   N   NN  II  N   NN  G    G                |
|           W    W  A    A  R    R  N    N  II  N    N   GGGG   !!!           |
|                                                                             |
|      You have enabled k-point parallelism (KPAR>1).                         |
|      This developmental code was originally  written by Paul Kent at ORNL,  |
|      and carefully double checked in Vienna.                                |
|      GW as well as linear response parallelism added by Martijn Marsman     |
|      and Georg Kresse.                                                      |
|      Carefully verify results versus KPAR=1.                                |
|      Report problems to Paul Kent and Vienna.                               |
|                                                                             |
 ----------------------------------------------------------------------------- 

 POTCAR:    PAW_PBE C 08Apr2002                   
   VRHFIN =C: s2p2                                                              
   LEXCH  = PE                                                                  
   EATOM  =   147.1560 eV,   10.8157 Ry                                         
                                                                                
   TITEL  = PAW_PBE C 08Apr2002                                                 
   LULTRA =        F    use ultrasoft PP ?                                      
   IUNSCR =        1    unscreen: 0-lin 1-nonlin 2-no                           
   RPACOR =    1.200    partial core radius                                     
   POMASS =   12.011; ZVAL   =    4.000    mass and valenz                      
   RCORE  =    1.500    outmost cutoff radius                                   
   RWIGS  =    1.630; RWIGS  =    0.863    wigner-seitz radius (au A)           
   ENMAX  =  400.000; ENMIN  =  300.000 eV                                      
   ICORE  =        2    local potential                                         
   LCOR   =        T    correct aug charges                                     
   LPAW   =        T    paw PP                                                  
   EAUG   =  644.873                                                            
   DEXC   =    0.000                                                            
   RMAX   =    1.529    core radius for proj-oper                               
   RAUG   =    1.300    factor for augmentation sphere                          
   RDEP   =    1.501    radius for radial grids                                 
   RDEPT  =    1.300    core radius for aug-charge                              
                                                                                
   Atomic configuration                                                         
    4 entries                                                                   
     n  l   j            E        occ.                                          
     1  0  0.50      -273.3789   2.0000                                         
     2  0  0.50       -13.7508   2.0000                                         
     2  1  0.50        -5.2854   2.0000                                         
     3  2  1.50        -5.4423   0.0000                                         
   Description                                                                  
     l       E           TYP  RCUT    TYP  RCUT                                 
     0    -13.7508458     23  1.200                                             
     0     -8.2022199     23  1.200                                             
     1     -5.2854383     23  1.500                                             
     1     34.0145650     23  1.500                                             
     2     -5.4423304      7  1.500                                             
  local pseudopotential read in
  partial core-charges read in
  partial kinetic energy density read in
  atomic valenz-charges read in
  non local Contribution for L=           0  read in
    real space projection operators read in
  non local Contribution for L=           0  read in
    real space projection operators read in
  non local Contribution for L=           1  read in
    real space projection operators read in
  non local Contribution for L=           1  read in
    real space projection operators read in
    PAW grid and wavefunctions read in
 
   number of l-projection  operators is LMAX  =           4
   number of lm-projection operators is LMMAX =           8
 
 POTCAR:    PAW_PBE N 08Apr2002                   
   VRHFIN =N: s2p3                                                              
   LEXCH  = PE                                                                  
   EATOM  =   264.5486 eV,   19.4438 Ry                                         
                                                                                
   TITEL  = PAW_PBE N 08Apr2002                                                 
   LULTRA =        F    use ultrasoft PP ?                                      
   IUNSCR =        1    unscreen: 0-lin 1-nonlin 2-no                           
   RPACOR =    1.200    partial core radius                                     
   POMASS =   14.001; ZVAL   =    5.000    mass and valenz                      
   RCORE  =    1.500    outmost cutoff radius                                   
   RWIGS  =    1.400; RWIGS  =    0.741    wigner-seitz radius (au A)           
   ENMAX  =  400.000; ENMIN  =  300.000 eV                                      
   ICORE  =        2    local potential                                         
   LCOR   =        T    correct aug charges                                     
   LPAW   =        T    paw PP                                                  
   EAUG   =  627.112                                                            
   DEXC   =    0.000                                                            
   RMAX   =    1.529    core radius for proj-oper                               
   RAUG   =    1.300    factor for augmentation sphere                          
   RDEP   =    1.514    radius for radial grids                                 
   RDEPT  =    1.338    core radius for aug-charge                              
                                                                                
   Atomic configuration                                                         
    4 entries                                                                   
     n  l   j            E        occ.                                          
     1  0  0.50      -384.7179   2.0000                                         
     2  0  0.50       -18.5828   2.0000                                         
     2  1  0.50        -7.0898   3.0000                                         
     3  2  1.50        -6.8029   0.0000                                         
   Description                                                                  
     l       E           TYP  RCUT    TYP  RCUT                                 
     0    -18.5828119     23  1.200                                             
     0    -13.5018863     23  1.200                                             
     1     -7.0897853     23  1.500                                             
     1      9.5240782     23  1.500                                             
     2     -6.8029130      7  1.500                                             
  local pseudopotential read in
  partial core-charges read in
  partial kinetic energy density read in
  atomic valenz-charges read in
  non local Contribution for L=           0  read in
    real space projection operators read in
  non local Contribution for L=           0  read in
    real space projection operators read in
  non local Contribution for L=           1  read in
    real space projection operators read in
  non local Contribution for L=           1  read in
    real space projection operators read in
    PAW grid and wavefunctions read in
 
   number of l-projection  operators is LMAX  =           4
   number of lm-projection operators is LMMAX =           8
 
 POTCAR:    PAW_PBE Fe 06Sep2000                  
   VRHFIN =Fe:  d7 s1                                                           
   LEXCH  = PE                                                                  
   EATOM  =   594.3153 eV,   43.6809 Ry                                         
                                                                                
   TITEL  = PAW_PBE Fe 06Sep2000                                                
   LULTRA =        F    use ultrasoft PP ?                                      
   IUNSCR =        1    unscreen: 0-lin 1-nonlin 2-no                           
   RPACOR =    2.000    partial core radius                                     
   POMASS =   55.847; ZVAL   =    8.000    mass and valenz                      
   RCORE  =    2.300    outmost cutoff radius                                   
   RWIGS  =    2.460; RWIGS  =    1.302    wigner-seitz radius (au A)           
   ENMAX  =  267.882; ENMIN  =  200.911 eV                                      
   RCLOC  =    1.701    cutoff for local pot                                    
   LCOR   =        T    correct aug charges                                     
   LPAW   =        T    paw PP                                                  
   EAUG   =  511.368                                                            
   DEXC   =    0.000                                                            
   RMAX   =    2.356    core radius for proj-oper                               
   RAUG   =    1.300    factor for augmentation sphere                          
   RDEP   =    2.442    radius for radial grids                                 
   RDEPT  =    1.890    core radius for aug-charge                              
                                                                                
   Atomic configuration                                                         
    9 entries                                                                   
     n  l   j            E        occ.                                          
     1  0  0.50     -6993.8440   2.0000                                         
     2  0  0.50      -814.6047   2.0000                                         
     2  1  1.50      -693.3689   6.0000                                         
     3  0  0.50       -89.4732   2.0000                                         
     3  1  1.50       -55.6373   6.0000                                         
     3  2  2.50        -3.8151   7.0000                                         
     4  0  0.50        -4.2551   1.0000                                         
     4  1  1.50        -3.4015   0.0000                                         
     4  3  2.50        -1.3606   0.0000                                         
   Description                                                                  
     l       E           TYP  RCUT    TYP  RCUT                                 
     2     -3.8151135     23  2.300                                             
     2     -5.1756961     23  2.300                                             
     0     -4.2550963     23  2.300                                             
     0      7.2035603     23  2.300                                             
     1     -2.7211652     23  2.300                                             
     1     18.4316424     23  2.300                                             
  local pseudopotential read in
  partial core-charges read in
  partial kinetic energy density read in
  atomic valenz-charges read in
  non local Contribution for L=           2  read in
    real space projection operators read in
  non local Contribution for L=           2  read in
    real space projection operators read in
  non local Contribution for L=           0  read in
    real space projection operators read in
  non local Contribution for L=           0  read in
    real space projection operators read in
  non local Contribution for L=           1  read in
    real space projection operators read in
  non local Contribution for L=           1  read in
    real space projection operators read in
    PAW grid and wavefunctions read in
 
   number of l-projection  operators is LMAX  =           6
   number of lm-projection operators is LMMAX =          18
 
 POTCAR:    PAW_PBE Sc_sv 07Sep2000               
   VRHFIN =Sc: 3p4s3d                                                           
   LEXCH  = PE                                                                  
   EATOM  =  1273.2868 eV,   93.5839 Ry                                         
                                                                                
   TITEL  = PAW_PBE Sc_sv 07Sep2000                                             
   LULTRA =        F    use ultrasoft PP ?                                      
   IUNSCR =        1    unscreen: 0-lin 1-nonlin 2-no                           
   RPACOR =    2.200    partial core radius                                     
   POMASS =   44.956; ZVAL   =   11.000    mass and valenz                      
   RCORE  =    2.500    outmost cutoff radius                                   
   RWIGS  =    2.700; RWIGS  =    1.429    wigner-seitz radius (au A)           
   ENMAX  =  222.660; ENMIN  =  166.995 eV                                      
   RCLOC  =    1.805    cutoff for local pot                                    
   LCOR   =        T    correct aug charges                                     
   LPAW   =        T    paw PP                                                  
   EAUG   =  443.063                                                            
   RMAX   =    2.551    core radius for proj-oper                               
   RAUG   =    1.300    factor for augmentation sphere                          
   RDEP   =    2.650    radius for radial grids                                 
   RDEPT  =    2.038    core radius for aug-charge                              
                                                                                
   Atomic configuration                                                         
    8 entries                                                                   
     n  l   j            E        occ.                                          
     1  0  0.50     -4394.2533   2.0000                                         
     2  0  0.50      -471.0040   2.0000                                         
     2  1  1.50      -384.9788   6.0000                                         
     3  0  0.50       -52.1410   2.0000                                         
     4  0  0.50        -3.5584   1.0000                                         
     3  1  1.50       -30.8841   6.0000                                         
     3  2  2.50        -1.3655   2.0000                                         
     4  3  2.50        -1.3606   0.0000                                         
   Description                                                                  
     l       E           TYP  RCUT    TYP  RCUT                                 
     0    -52.1409870     23  1.800                                             
     0     -3.5583698     23  2.500                                             
     1    -30.8840697     23  2.300                                             
     1      4.0817478     23  2.300                                             
     2     -1.3655397     23  2.500                                             
     2      0.3564476     23  2.500                                             
  local pseudopotential read in
  partial core-charges read in
  partial kinetic energy density read in
  atomic valenz-charges read in
  non local Contribution for L=           0  read in
    real space projection operators read in
  non local Contribution for L=           0  read in
    real space projection operators read in
  non local Contribution for L=           1  read in
    real space projection operators read in
  non local Contribution for L=           1  read in
    real space projection operators read in
  non local Contribution for L=           2  read in
    real space projection operators read in
  non local Contribution for L=           2  read in
    real space projection operators read in
    PAW grid and wavefunctions read in
 
   number of l-projection  operators is LMAX  =           6
   number of lm-projection operators is LMMAX =          18
 

 ----------------------------------------------------------------------------- 
|                                                                             |
|  ADVICE TO THIS USER RUNNING 'VASP/VAMP'   (HEAR YOUR MASTER'S VOICE ...):  |
|                                                                             |
|      You have a (more or less) 'large supercell' and for larger cells       |
|      it might be more efficient to use real space projection opertators     |
|      So try LREAL= Auto  in the INCAR   file.                               |
|      Mind:          For very  accurate calculation you might also keep the  |
|      reciprocal projection scheme          (i.e. LREAL=.FALSE.)             |
|                                                                             |
 ----------------------------------------------------------------------------- 

  PAW_PBE C 08Apr2002                   :
 energy of atom  1       EATOM= -147.1560
 kinetic energy error for atom=    0.0076 (will be added to EATOM!!)
  PAW_PBE N 08Apr2002                   :
 energy of atom  2       EATOM= -264.5486
 kinetic energy error for atom=    0.0138 (will be added to EATOM!!)
  PAW_PBE Fe 06Sep2000                  :
 energy of atom  3       EATOM= -594.3153
 kinetic energy error for atom=    0.0026 (will be added to EATOM!!)
  PAW_PBE Sc_sv 07Sep2000               :
 energy of atom  4       EATOM=-1273.2868
 kinetic energy error for atom=    0.0031 (will be added to EATOM!!)
 
 
 POSCAR:  C  N Fe Sc                             
  positions in cartesian coordinates
  No initial velocities read in
 exchange correlation table for  LEXCH =        8
   RHO(1)=    0.500       N(1)  =     2000
   RHO(2)=  100.500       N(2)  =     4000

 VTST: version 3.2, (02/03/18)

 CHAIN: initializing optimizer
 
 OPT: Using VASP Conjugate-Gradient optimizer
 CHAIN: Read ICHAIN            0
 
 POSCAR:  C  N Fe Sc                             
  positions in cartesian coordinates
  No initial velocities read in
 


--------------------------------------------------------------------------------------------------------


 ion  position               nearest neighbor table
   1  0.222  0.998  0.502-   4 1.41   3 1.42  17 1.42
   2  0.054  0.099  0.500-  34 1.42   7 1.43   3 1.43
   3  0.110  0.999  0.501-   1 1.42  15 1.43   2 1.43
   4  0.277  0.095  0.504-   1 1.41   5 1.42  19 1.42
   5  0.221  0.194  0.503-   8 1.41   4 1.42   7 1.42
   6  0.056  0.299  0.500-   7 1.44  10 1.44  38 1.44
   7  0.110  0.197  0.501-   5 1.42   2 1.43   6 1.44
   8  0.278  0.290  0.504-  51 1.37  53 1.38   5 1.41
   9  0.064  0.498  0.497-  10 1.45  12 1.47  42 1.47
  10  0.117  0.395  0.498-  51 1.40   6 1.44   9 1.45
  11  0.059  0.698  0.498-  46 1.43  16 1.44  12 1.44
  12  0.119  0.600  0.497-  52 1.39  11 1.44   9 1.47
  13  0.279  0.702  0.498-  52 1.38  14 1.42  25 1.42
  14  0.224  0.801  0.500-  13 1.42  17 1.42  16 1.42
  15  0.056  0.899  0.500-  50 1.42  16 1.43   3 1.43
  16  0.112  0.799  0.499-  14 1.42  15 1.43  11 1.44
  17  0.278  0.899  0.502-  28 1.41  14 1.42   1 1.42
  18  0.556  1.000  0.501-  20 1.41  21 1.42  30 1.43
  19  0.389  0.097  0.504-  23 1.42  20 1.42   4 1.42
  20  0.445  0.998  0.502-  18 1.41  19 1.42  28 1.43
  21  0.610  0.099  0.503-  22 1.42  32 1.42  18 1.42
  22  0.554  0.198  0.507-  54 1.40  21 1.42  23 1.43
  23  0.442  0.195  0.507-  53 1.40  19 1.42  22 1.43
  24  0.556  0.607  0.493-  55 1.37  56 1.41  26 1.42  58 2.67
  25  0.391  0.702  0.497-  29 1.41  56 1.42  13 1.42
  26  0.612  0.704  0.495-  24 1.42  27 1.42  44 1.42
  27  0.557  0.803  0.497-  30 1.41  26 1.42  29 1.42
  28  0.389  0.900  0.501-  17 1.41  29 1.42  20 1.43
  29  0.445  0.801  0.499-  25 1.41  27 1.42  28 1.42
  30  0.612  0.901  0.498-  27 1.41  48 1.42  18 1.43
  31  0.889  1.000  0.499-  33 1.42  34 1.43  50 1.44
  32  0.722  0.100  0.501-  21 1.42  33 1.43  37 1.44
  33  0.777  0.000  0.499-  31 1.42  32 1.43  48 1.43
  34  0.942  0.100  0.500-   2 1.42  31 1.43  35 1.44
  35  0.887  0.201  0.500-  37 1.43  38 1.44  34 1.44
  36  0.715  0.300  0.504-  54 1.40  37 1.45  41 1.46
  37  0.774  0.201  0.502-  35 1.43  32 1.44  36 1.45
  38  0.943  0.301  0.500-  39 1.44  35 1.44   6 1.44
  39  0.887  0.401  0.500-  38 1.44  42 1.46  41 1.47
  40  0.718  0.504  0.497-  55 1.40  45 1.43  41 1.45
  41  0.771  0.401  0.501-  40 1.45  36 1.46  39 1.47
  42  0.948  0.498  0.498-  43 1.44  39 1.46   9 1.47
  43  0.892  0.598  0.497-  46 1.44  42 1.44  45 1.44
  44  0.724  0.701  0.495-  26 1.42  49 1.43  45 1.44
  45  0.779  0.600  0.496-  40 1.43  44 1.44  43 1.44
  46  0.947  0.698  0.497-  11 1.43  43 1.44  47 1.44
  47  0.891  0.799  0.498-  49 1.42  50 1.43  46 1.44
  48  0.723  0.900  0.498-  30 1.42  33 1.43  49 1.43
  49  0.779  0.800  0.497-  47 1.42  44 1.43  48 1.43
  50  0.945  0.899  0.499-  15 1.42  47 1.43  31 1.44
  51  0.228  0.386  0.497-   8 1.37  10 1.40  57 1.93
  52  0.228  0.605  0.495-  13 1.38  12 1.39  57 1.97
  53  0.386  0.292  0.510-   8 1.38  23 1.40  58 2.17
  54  0.606  0.296  0.511-  22 1.40  36 1.40  58 2.19
  55  0.609  0.511  0.495-  24 1.37  40 1.40  58 2.10
  56  0.445  0.603  0.492-  24 1.41  25 1.42  57 2.01  58 2.55
  57  0.334  0.492  0.480-  51 1.93  52 1.97  56 2.01  58 2.49
  58  0.491  0.419  0.539-  55 2.10  53 2.17  54 2.19  57 2.49  56 2.55  24 2.67
 
  LATTYP: Found a triclinic cell.
 ALAT       =    17.9069083105
 B/A-ratio  =     0.6989090346
 C/A-ratio  =     1.1147597147
 COS(alpha) =     0.0000261799
 COS(beta)  =     0.0001248898
 COS(gamma) =     0.7040688048
  
  Lattice vectors:
  
 A1 = ( -12.8075329377, -12.5149696480,   0.0000000000)
 A2 = (  -0.0909329377, -12.5149696480,   0.0000000000)
 A3 = (  -0.0029962476,  -0.0005008446,  19.9618997689)


Analysis of symmetry for initial positions (statically):
=====================================================================
 Subroutine PRICEL returns:
 Original cell was already a primitive cell.
 

 Routine SETGRP: Setting up the symmetry group for a 
 triclinic supercell.


 Subroutine GETGRP returns: Found  1 space group operations
 (whereof  1 operations were pure point group operations)
 out of a pool of  2 trial point group operations.


The static configuration has the point symmetry C_1 .


Analysis of symmetry for dynamics (positions and initial velocities):
=====================================================================
 Subroutine PRICEL returns:
 Original cell was already a primitive cell.
 

 Routine SETGRP: Setting up the symmetry group for a 
 triclinic supercell.


 Subroutine GETGRP returns: Found  1 space group operations
 (whereof  1 operations were pure point group operations)
 out of a pool of  2 trial point group operations.


The dynamic configuration has the point symmetry C_1 .


Analysis of structural, dynamic, and magnetic symmetry:
=====================================================================
 Subroutine PRICEL returns:
 Original cell was already a primitive cell.
 

 Routine SETGRP: Setting up the symmetry group for a 
 triclinic supercell.


 Subroutine GETGRP returns: Found  1 space group operations
 (whereof  1 operations were pure point group operations)
 out of a pool of  2 trial point group operations.


The magnetic configuration has the point symmetry C_1 .


 Subroutine INISYM returns: Found  1 space group operations
 (whereof  1 operations are pure point group operations),
 and found     1 'primitive' translations

 
 
 KPOINTS: KPOINTS created by Atomic Simulation Env

Automatic generation of k-mesh.
Space group operators:
 irot       det(A)        alpha          n_x          n_y          n_z        tau_x        tau_y        tau_z
    1     1.000000     0.000001     1.000000     0.000000     0.000000     0.000000     0.000000     0.000000
 
 Subroutine IBZKPT returns following result:
 ===========================================
 
 Found      2 irreducible k-points:
 
 Following reciprocal coordinates:
            Coordinates               Weight
  0.250000  0.250000 -0.000000      2.000000
 -0.250000  0.250000  0.000000      2.000000
 
 Following cartesian coordinates:
            Coordinates               Weight
  0.019659  0.019833  0.000003      2.000000
 -0.019659  0.020119 -0.000002      2.000000
 
 
 Subroutine IBZKPT_HF returns following result:
 ==============================================
 
 Found      4 k-points in 1st BZ
 the following      4 k-points will be used (e.g. in the exchange kernel)
 Following reciprocal coordinates:   # in IRBZ
  0.250000  0.250000 -0.000000    0.25000000   1 t-inv F
 -0.250000  0.250000  0.000000    0.25000000   2 t-inv F
 -0.250000 -0.250000  0.000000    0.25000000   1 t-inv T
  0.250000 -0.250000 -0.000000    0.25000000   2 t-inv T


--------------------------------------------------------------------------------------------------------




 Dimension of arrays:
   k-points           NKPTS =      2   k-points in BZ     NKDIM =      4   number of bands    NBANDS=    158
   number of dos      NEDOS =    301   number of ions     NIONS =     58
   non local maximal  LDIM  =      6   non local SUM 2l+1 LMDIM =     18
   total plane-waves  NPLWV = ******
   max r-space proj   IRMAX =      1   max aug-charges    IRDMAX=  19417
   dimension x,y,z NGX =    96 NGY =   96 NGZ =  150
   dimension x,y,z NGXF=   192 NGYF=  192 NGZF=  300
   support grid    NGXF=   192 NGYF=  192 NGZF=  300
   ions per type =              50   6   1   1
   NGX,Y,Z   is equivalent  to a cutoff of  12.55, 12.75, 12.49 a.u.
   NGXF,Y,Z  is equivalent  to a cutoff of  25.10, 25.50, 24.98 a.u.

 SYSTEM =  unknown system                          
 POSCAR =   C  N Fe Sc                             

 Startparameter for this run:
   NWRITE =      2    write-flag & timer
   PREC   = accura    normal or accurate (medium, high low for compatibility)
   ISTART =      1    job   : 0-new  1-cont  2-samecut
   ICHARG =      0    charge: 1-file 2-atom 10-const
   ISPIN  =      2    spin polarized calculation?
   LNONCOLLINEAR =      F non collinear calculations
   LSORBIT =      F    spin-orbit coupling
   INIWAV =      1    electr: 0-lowe 1-rand  2-diag
   LASPH  =      T    aspherical Exc in radial PAW
   METAGGA=      F    non-selfconsistent MetaGGA calc.

 Electronic Relaxation 1
   ENCUT  =  500.0 eV  36.75 Ry    6.06 a.u.  23.19 22.82 36.40*2*pi/ulx,y,z
   ENINI  =  500.0     initial cutoff
   ENAUG  =  644.9 eV  augmentation charge cutoff
   NELM   =    250;   NELMIN=  2; NELMDL=  0     # of ELM steps 
   EDIFF  = 0.1E-03   stopping-criterion for ELM
   LREAL  =      F    real-space projection
   NLSPLINE    = F    spline interpolate recip. space projectors
   LCOMPAT=      F    compatible to vasp.4.4
   GGA_COMPAT  = T    GGA compatible to vasp.4.4-vasp.4.6
   LMAXPAW     = -100 max onsite density
   LMAXMIX     =    2 max onsite mixed and CHGCAR
   VOSKOWN=      0    Vosko Wilk Nusair interpolation
   ROPT   =    0.00000   0.00000   0.00000   0.00000
 Ionic relaxation
   EDIFFG = -.3E-01   stopping-criterion for IOM
   NSW    =      0    number of steps for IOM
   NBLOCK =      1;   KBLOCK =      1    inner block; outer block 
   IBRION =     -1    ionic relax: 0-MD 1-quasi-New 2-CG
   NFREE  =      1    steps in history (QN), initial steepest desc. (CG)
   ISIF   =      2    stress and relaxation
   IWAVPR =     10    prediction:  0-non 1-charg 2-wave 3-comb
   ISYM   =      3    0-nonsym 1-usesym 2-fastsym
   LCORR  =      T    Harris-Foulkes like correction to forces

   POTIM  = 0.5000    time-step for ionic-motion
   TEIN   =    0.0    initial temperature
   TEBEG  =    0.0;   TEEND  =   0.0 temperature during run
   SMASS  =  -3.00    Nose mass-parameter (am)
   estimated Nose-frequenzy (Omega)   =  0.10E-29 period in steps =****** mass=  -0.370E-26a.u.
   SCALEE = 1.0000    scale energy and forces
   NPACO  =    256;   APACO  = 16.0  distance and # of slots for P.C.
   PSTRESS=    0.0 pullay stress

  Mass of Ions in am
   POMASS =  12.01 14.00 55.85 44.96
  Ionic Valenz
   ZVAL   =   4.00  5.00  8.00 11.00
  Atomic Wigner-Seitz radii
   RWIGS  =  -1.00 -1.00 -1.00 -1.00
  virtual crystal weights 
   VCA    =   1.00  1.00  1.00  1.00
   NELECT =     249.0000    total number of electrons
   NUPDOWN=      -1.0000    fix difference up-down

 DOS related values:
   EMIN   =  10.00;   EMAX   =-10.00  energy-range for DOS
   EFERMI =   0.00
   ISMEAR =     0;   SIGMA  =   0.10  broadening in eV -4-tet -1-fermi 0-gaus

 Electronic relaxation 2 (details)
   IALGO  =     53    algorithm
   LDIAG  =      T    sub-space diagonalisation (order eigenvalues)
   LSUBROT=      F    optimize rotation matrix (better conditioning)
   TURBO    =      0    0=normal 1=particle mesh
   IRESTART =      0    0=no restart 2=restart with 2 vectors
   NREBOOT  =      0    no. of reboots
   NMIN     =      0    reboot dimension
   EREF     =   0.00    reference energy to select bands
   IMIX   =      4    mixing-type and parameters
     AMIX     =   0.40;   BMIX     =  1.00
     AMIX_MAG =   1.60;   BMIX_MAG =  1.00
     AMIN     =   0.10
     WC   =   100.;   INIMIX=   1;  MIXPRE=   1;  MAXMIX= -45

 Intra band minimization:
   WEIMIN = 0.0000     energy-eigenvalue tresh-hold
   EBREAK =  0.16E-06  absolut break condition
   DEPER  =   0.30     relativ break condition  

   TIME   =   0.20     timestep for ELM

  volume/ion in A,a.u.               =      54.77       369.63
  Fermi-wavevector in a.u.,A,eV,Ry     =   0.700606  1.323953  6.678399  0.490848
  Thomas-Fermi vector in A             =   1.784805
 
 Write flags
   LWAVE        =      T    write WAVECAR
   LDOWNSAMPLE  =      F    k-point downsampling of WAVECAR
   LCHARG       =      T    write CHGCAR
   LVTOT        =      F    write LOCPOT, total local potential
   LVHAR        =      F    write LOCPOT, Hartree potential only
   LELF         =      F    write electronic localiz. function (ELF)
   LORBIT       =     11    0 simple, 1 ext, 2 COOP (PROOUT), +10 PAW based schemes


 Dipole corrections
   LMONO  =      F    monopole corrections only (constant potential shift)
   LDIPOL =      T    correct potential (dipole corrections)
   IDIPOL =      3    1-x, 2-y, 3-z, 4-all directions 
   EPSILON=  1.0000000 bulk dielectric constant

 Exchange correlation treatment:
   GGA     =    PE    GGA type
   LEXCH   =     8    internal setting for exchange type
   VOSKOWN=      0    Vosko Wilk Nusair interpolation
   EXXOEP  =     0    0=HF, 1=EXX-LHF (local Hartree Fock) 2=EXX OEP
   LHFCALC =     T    Hartree Fock is set to
   LSYMGRAD=     F    symmetrize gradient (conserves proper symmetry)
   PRECFOCK=normal    Normal, Fast or Accurate (Low or Medium for compatibility)
   LRHFCALC=     F    long range Hartree Fock
   LRSCOR  =     F    long range correlation only (use DFT for short range part)
   LTHOMAS =     F    Thomas Fermi screening in HF
   LMODELHF=     F    short range full HF, long range fraction AEXX
   ENCUT4O =  -1.0   cutoff for four orbital integrals eV
   LMAXFOCK=     4    L truncation for augmentation on plane wave grid
   LMAXFOCKAE=  -1    L truncation for all-electron charge restoration on plane wave grid
   NMAXFOCKAE=   1    number of basis functions for all-electron charge restoration
   LFOCKAEDFT=     F  apply the AE augmentation even for DFT
   NKREDX  =     1    reduce k-point grid by
   NKREDY  =     1    reduce k-point grid by
   NKREDZ  =     1    reduce k-point grid by
   SHIFTRED=     F    shift reduced grid of Gamma
   HFKIDENT=     F    idential grid for each k-point
   ODDONLY =     F    use only odd q-grid points
   EVENONLY=     F    use only even q-grid points
   HFALPHA =   -1.0000 decay constant for conv. correction
   MCALPHA =    0.0000 extent of test-charge in conv. correction in multipole expansion
   AEXX    =    0.2500 exact exchange contribution
   HFSCREEN=    0.2000 screening length (either q_TF or 0.3 A-1)
   HFSCREENC=   0.2000 screening length for correlation (either q_TF or 0.3 A-1)
   HFRCUT  =    0.0000 spherical cutoff for potential kernel
   ALDAX   =    0.7500 LDA exchange part
   AGGAX   =    0.7500 GGA exchange part
   ALDAC   =    1.0000 LDA correlation
   AGGAC   =    1.0000 GGA correlation
   ENCUTFOCK=  -1.0 apply spherical cutoff to Coloumb kernel
   NBANDSGWLOW=     1    first orbital included in HF term
   NBLOCK_FOCK=    64    blocking factor in FOCK_ACC
 Linear response parameters
   LEPSILON=     F    determine dielectric tensor
   LRPA    =     F    only Hartree local field effects (RPA)
   LNABLA  =     F    use nabla operator in PAW spheres
   LVEL    =     F    velocity operator in full k-point grid
   LINTERFAST=   F  fast interpolation
   KINTER  =     0    interpolate to denser k-point grid
   CSHIFT  =0.1000    complex shift for real part using Kramers Kronig
   OMEGAMAX=  -1.0    maximum frequency
   DEG_THRESHOLD= 0.2000000E-02 threshold for treating states as degnerate
   RTIME   =   -0.100 relaxation time in fs
  (WPLASMAI=    0.000 imaginary part of plasma frequency in eV, 0.658/RTIME)
   DFIELD  = 0.0000000 0.0000000 0.0000000 field for delta impulse in time
 
 Orbital magnetization related:
   ORBITALMAG=     F  switch on orbital magnetization
   LCHIMAG   =     F  perturbation theory with respect to B field
   DQ        =  0.001000  dq finite difference perturbation B field
   LLRAUG    =     F  two centre corrections for induced B field



--------------------------------------------------------------------------------------------------------


 Static calculation
 charge density and potential will be updated during run
 spin polarized calculation
 Conjugate gradient for all bands (Freysoldt, et al. PRB 79, 241103 (2009))
 perform sub-space diagonalisation
    before iterative eigenvector-optimisation
 modified Broyden-mixing scheme, WC =      100.0
 initial mixing is a Kerker type mixing with AMIX =  0.4000 and BMIX =      1.0000
 Hartree-type preconditioning will be used
 using additional bands           33
 reciprocal scheme for non local part
 use partial core corrections
 no Harris-corrections to forces 
 use gradient corrections 
 use of overlap-Matrix (Vanderbilt PP)
 Gauss-broadening in eV      SIGMA  =   0.10


--------------------------------------------------------------------------------------------------------


  energy-cutoff  :      500.00
  volume of cell :     3176.89
      direct lattice vectors                 reciprocal lattice vectors
    12.716600000  0.000000000  0.000000000     0.078637372 -0.000571374  0.000011789
     0.090932938 12.514969648  0.000000000     0.000000000  0.079904309  0.000002005
    -0.002996248 -0.000500845 19.961899769     0.000000000  0.000000000  0.050095432

  length of vectors
    12.716600000 12.515300000 19.961900000     0.078639448  0.079904309  0.050095432


 
 old parameters found on file WAVECAR:
  energy-cutoff  :      500.00
  volume of cell :     3176.89
      direct lattice vectors                 reciprocal lattice vectors
    12.716600000  0.000000000  0.000000000     0.078637372 -0.000571374  0.000011789
     0.090932938 12.514969648  0.000000000     0.000000000  0.079904309  0.000002005
    -0.002996248 -0.000500845 19.961899769     0.000000000  0.000000000  0.050095432

  length of vectors

 
 k-points in units of 2pi/SCALE and weight: KPOINTS created by Atomic Simulation Env
   0.01965934  0.01983323  0.00000345       0.500
  -0.01965934  0.02011892 -0.00000245       0.500
 
 k-points in reciprocal lattice and weights: KPOINTS created by Atomic Simulation Env
   0.25000000  0.25000000 -0.00000000       0.500
  -0.25000000  0.25000000  0.00000000       0.500
 
 position of ions in fractional coordinates (direct lattice) 
   0.22174830  0.99804551  0.50220691
   0.05429255  0.09873156  0.50035759
   0.11019242  0.99889001  0.50079883
   0.27700736  0.09547111  0.50378035
   0.22097492  0.19379663  0.50327927
   0.05630068  0.29899318  0.50011213
   0.10957160  0.19748173  0.50098938
   0.27774530  0.29006428  0.50386588
   0.06392215  0.49769677  0.49706813
   0.11745178  0.39492318  0.49829635
   0.05943687  0.69840007  0.49794338
   0.11923172  0.59999432  0.49658187
   0.27941496  0.70226844  0.49828360
   0.22389441  0.80076375  0.50033434
   0.05620145  0.89893987  0.49953940
   0.11219266  0.79947722  0.49934251
   0.27821339  0.89938901  0.50156076
   0.55570711  0.99959168  0.50084178
   0.38880437  0.09657941  0.50415630
   0.44481657  0.99814985  0.50193803
   0.60977410  0.09880740  0.50277758
   0.55443870  0.19765611  0.50692712
   0.44209766  0.19547694  0.50680296
   0.55588610  0.60699127  0.49250747
   0.39142171  0.70230701  0.49718029
   0.61214440  0.70418350  0.49459525
   0.55676138  0.80290544  0.49680323
   0.38914505  0.89973658  0.50092085
   0.44507178  0.80091183  0.49857772
   0.61188439  0.90065945  0.49828688
   0.88890305  0.99979002  0.49891598
   0.72158043  0.09981924  0.50139204
   0.77726603  0.00020306  0.49919979
   0.94241044  0.10005362  0.49956606
   0.88716465  0.20105918  0.50014256
   0.71498423  0.29979673  0.50448004
   0.77449329  0.20108933  0.50178095
   0.94294699  0.30070647  0.50010075
   0.88688031  0.40062471  0.49951382
   0.71837527  0.50409595  0.49675846
   0.77121216  0.40130058  0.50069986
   0.94824218  0.49841907  0.49773108
   0.89191620  0.59849136  0.49693812
   0.72407454  0.70106013  0.49533589
   0.77871985  0.60016349  0.49577010
   0.94690720  0.69831185  0.49743140
   0.89116086  0.79896518  0.49753657
   0.72339295  0.90005044  0.49786949
   0.77917094  0.80011490  0.49673831
   0.94458509  0.89934154  0.49850516
   0.22760122  0.38637174  0.49741050
   0.22825254  0.60533573  0.49501792
   0.38588303  0.29172257  0.50982723
   0.60558752  0.29579294  0.51104426
   0.60872327  0.51143606  0.49468661
   0.44541772  0.60321043  0.49203638
   0.33387069  0.49199874  0.48015314
   0.49085150  0.41902182  0.53929140
 
 position of ions in cartesian coordinates  (Angst):
   2.90913487 12.49025772 10.02500403
   0.69789539  1.23537182  9.98808805
   1.49060436 12.50082737  9.99689612
   3.52976385  1.19456573 10.05641278
   2.82616425  2.42510685 10.04641040
   0.74164314  3.74164003  9.98318818
   1.40983477  2.47122690 10.00069972
   3.55684254  3.62989330 10.05812021
   0.85664013  6.22841100  9.92242425
   1.52800579  4.94220205  9.94694186
   0.81785050  8.74020629  9.93989583
   1.56929351  7.50866204  9.91271757
   3.61557462  8.78861868  9.94668724
   2.91849230 10.02128338  9.98762403
   0.79493785 11.24995496  9.97175549
   1.49791178 10.00518302  9.96782506
   3.61820971 11.25557492 10.01210567
   7.15610025 12.50960873  9.99775344
   4.95154131  1.20843591 10.06391760
   5.74581519 12.49156368 10.01963668
   7.76173167  1.23631985 10.03639557
   7.06702980  2.47340637 10.11922831
   5.63823583  2.44613418 10.11674998
   7.12270106  7.59623069  9.83138476
   5.03992643  8.78910189  9.92466319
   7.84694700  8.81258746  9.87306071
   7.15163377 10.04808842  9.91713624
   5.02891672 11.25992505  9.99933174
   5.73113515 10.02313755  9.95255855
   7.86149560 11.27147615  9.94675278
  11.39324345 12.51209190  9.95931074
   9.18362430  1.24898365 10.00873772
   9.88270396  0.00229132  9.96497609
  11.99185798  1.25191780  9.97228762
  11.29850237  2.51599902  9.98379565
   9.11791833  3.75169436 10.07037991
   9.86570354  2.51637554 10.01650098
  12.01692541  3.76308188  9.98296106
  11.31303551  5.01355595  9.97124478
   9.17964150  6.30849675  9.91624260
   9.84218783  5.02201384  9.99492041
  12.10224790  6.23745024  9.93565789
  11.39507515  7.48985234  9.91982886
   9.27003155  8.77349811  9.88784537
   9.95575802  7.51077953  9.89651301
  12.10344924  8.73910253  9.92967576
  11.40369774  9.99877577  9.93177524
   9.27945130 11.26385455  9.93842079
   9.97967357 10.01316491  9.91584028
  12.09219690 11.25498245  9.95111004
   2.92795726  4.83518144  9.92925849
   2.95615802  7.57551031  9.88149817
   4.93211982  3.65064372 10.17712008
   7.72638038  3.70158367 10.20141423
   7.78591454  6.40035899  9.87488446
   5.71757639  7.54891378  9.82198081
   4.28900023  6.15710887  9.58476888
   6.27844917  5.24377525 10.76528096
 


--------------------------------------------------------------------------------------------------------


 k-point  1 :   0.2500 0.2500-0.0000  plane waves:   80695
 k-point  2 :  -0.2500 0.2500 0.0000  plane waves:   80648

 maximum and minimum number of plane-waves per node :      2041     1994

 maximum number of plane-waves:     80695
 maximum index in each direction: 
   IXMAX=   23   IYMAX=   22   IZMAX=   36
   IXMIN=  -23   IYMIN=  -23   IZMIN=  -36


 parallel 3D FFT for wavefunctions:
    minimum data exchange during FFTs selected (reduces bandwidth)
 parallel 3D FFT for charge:
    minimum data exchange during FFTs selected (reduces bandwidth)


 FFT grid for exact exchange (Hartree Fock) 
  NGX = 70; NGY = 70; NGZ =112

 
 Radii for the augmentation spheres in the non-local exchange
 for species   1 augmentation radius   0.874 (default was   0.699)
       energy cutoff for augmentation   2000.0
 for species   2 augmentation radius   0.886 (default was   0.709)
       energy cutoff for augmentation   2000.0
 for species   3 augmentation radius   1.263 (default was   1.010)
       energy cutoff for augmentation   2000.0
 for species   4 augmentation radius   1.357 (default was   1.085)
       energy cutoff for augmentation   2000.0

 real space projection operators:
  total allocation   :       2537.45 KBytes
  max/ min on nodes  :         89.52         47.23

 Maximum index for augmentation-charges in exchange           80
  SETUP_FOCK is finished

 total amount of memory used by VASP MPI-rank0   142332. kBytes
=======================================================================

   base      :      30000. kBytes
   nonl-proj :       4261. kBytes
   fftplans  :      11851. kBytes
   grid      :      31266. kBytes
   one-center:         62. kBytes
   HF        :         23. kBytes
   nonlr-proj:       1923. kBytes
   wavefun   :      62946. kBytes
 
     INWAV:  cpu time    3.0837: real time    5.8164
 Broyden mixing: mesh for mixing (old mesh)
   NGX = 47   NGY = 45   NGZ = 73
  (NGX  =192   NGY  =192   NGZ  =300)
  gives a total of 154395 points

 charge density for first step will be calculated from the start-wavefunctions


--------------------------------------------------------------------------------------------------------


 Maximum index for augmentation-charges          338 (set IRDMAX)


--------------------------------------------------------------------------------------------------------


 initial charge from wavefunction
 First call to EWALD:  gamma=   0.121
 Maximum number of real-space cells 3x 3x 2
 Maximum number of reciprocal cells 2x 2x 4

    FEWALD:  cpu time    0.0030: real time    0.0031


--------------------------------------- Iteration      1(   1)  ---------------------------------------


    POTLOK:  cpu time    1.1142: real time    1.1202
    SETDIJ:  cpu time    1.2148: real time    1.2203
    TRIAL :  cpu time  198.2209: real time  198.8783
    CORREC:  cpu time    0.0014: real time    0.0014
    CHARGE:  cpu time    0.9368: real time    0.9394
    --------------------------------------------
      LOOP:  cpu time  201.5098: real time  202.1828

 eigenvalue-minimisations  :     0
 total energy-change (2. order) :-0.6078323E+03  (-0.4830642E+00)
 number of electron     249.0000012 magnetization       2.9914369
 augmentation part       13.3321409 magnetization       1.9006931

 DIPCOR: dipole corrections for dipol
 direction  3 min pos     1,
 dipolmoment           0.000067      0.000011     -0.446711 electrons x Angstroem
 Tr[quadrupol]     -6841.932817

 energy correction for charged system         0.000000 eV
 dipol+quadrupol energy correction           -0.005706 eV
 added-field ion interaction          0.104937 eV  (added to PSCEN)


 Free energy of the ion-electron system (eV)
  ---------------------------------------------------
  alpha Z        PSCENC =       108.07647546
  Ewald energy   TEWEN  =     40324.59828632
  -Hartree energ DENC   =    -49527.48908345
  -exchange      EXHF   =       577.56922763
  -V(xc)+E(xc)   XCENC  =       664.05069320
  PAW double counting   =     27066.45400053   -27094.77829362
  entropy T*S    EENTRO =        -0.00168973
  eigenvalues    EBANDS =     -3426.87818624
  atomic energy  EATOM  =     10700.56923162
  ---------------------------------------------------
  free energy    TOTEN  =      -607.83227494 eV

  energy without entropy =     -607.83058521  energy(sigma->0) =     -607.83143008
  exchange ACFDT corr.  =        -0.00467166  see jH, gK, PRB 81, 115126


--------------------------------------------------------------------------------------------------------




--------------------------------------- Iteration      1(   2)  ---------------------------------------


    POTLOK:  cpu time    1.1319: real time    1.1379
    SETDIJ:  cpu time    1.2147: real time    1.2178
    TRIAL :  cpu time  197.6276: real time  198.2286
    CORREC:  cpu time    0.0012: real time    0.0012
    CHARGE:  cpu time    0.9348: real time    0.9372
    --------------------------------------------
      LOOP:  cpu time  200.9130: real time  201.5299

 eigenvalue-minimisations  :     0
 total energy-change (2. order) :-0.3819014E+00  (-0.3891447E+00)
 number of electron     249.0000012 magnetization       2.9985626
 augmentation part       13.3022735 magnetization       1.9530994

 DIPCOR: dipole corrections for dipol
 direction  3 min pos     1,
 dipolmoment           0.000072      0.000012     -0.482423 electrons x Angstroem
 Tr[quadrupol]     -6841.800058

 energy correction for charged system         0.000000 eV
 dipol+quadrupol energy correction           -0.006655 eV
 added-field ion interaction          0.113326 eV  (added to PSCEN)


 Free energy of the ion-electron system (eV)
  ---------------------------------------------------
  alpha Z        PSCENC =       108.08391568
  Ewald energy   TEWEN  =     40324.59828632
  -Hartree energ DENC   =    -49509.36393346
  -exchange      EXHF   =       577.44668627
  -V(xc)+E(xc)   XCENC  =       663.59292960
  PAW double counting   =     27277.56188521   -27305.89144387
  entropy T*S    EENTRO =        -0.00033627
  eigenvalues    EBANDS =     -3444.81004400
  atomic energy  EATOM  =     10700.56923162
  ---------------------------------------------------
  free energy    TOTEN  =      -608.21417637 eV

  energy without entropy =     -608.21384010  energy(sigma->0) =     -608.21400824
  exchange ACFDT corr.  =        -0.00248177  see jH, gK, PRB 81, 115126


--------------------------------------------------------------------------------------------------------




--------------------------------------- Iteration      1(   3)  ---------------------------------------


    POTLOK:  cpu time    1.1392: real time    1.1420
    SETDIJ:  cpu time    1.2229: real time    1.2261
    TRIAL :  cpu time  197.2938: real time  197.8964
    CORREC:  cpu time    0.0015: real time    0.0015
    CHARGE:  cpu time    0.9641: real time    0.9668
    --------------------------------------------
      LOOP:  cpu time  200.6238: real time  201.2389

 eigenvalue-minimisations  :     0
 total energy-change (2. order) :-0.2963154E+00  (-0.2315165E+00)
 number of electron     249.0000012 magnetization       2.9998343
 augmentation part       13.3057352 magnetization       1.9953891

 DIPCOR: dipole corrections for dipol
 direction  3 min pos     1,
 dipolmoment           0.000075      0.000012     -0.498003 electrons x Angstroem
 Tr[quadrupol]     -6841.662459

 energy correction for charged system         0.000000 eV
 dipol+quadrupol energy correction           -0.007091 eV
 added-field ion interaction          0.116986 eV  (added to PSCEN)


 Free energy of the ion-electron system (eV)
  ---------------------------------------------------
  alpha Z        PSCENC =       108.08713890
  Ewald energy   TEWEN  =     40324.59828632
  -Hartree energ DENC   =    -49492.77133688
  -exchange      EXHF   =       577.38767163
  -V(xc)+E(xc)   XCENC  =       663.18764315
  PAW double counting   =     27471.91922783   -27500.28016179
  entropy T*S    EENTRO =        -0.00004541
  eigenvalues    EBANDS =     -3461.20785628
  atomic energy  EATOM  =     10700.56923162
  ---------------------------------------------------
  free energy    TOTEN  =      -608.51049177 eV

  energy without entropy =     -608.51044636  energy(sigma->0) =     -608.51046906
  exchange ACFDT corr.  =        -0.00033213  see jH, gK, PRB 81, 115126


--------------------------------------------------------------------------------------------------------




--------------------------------------- Iteration      1(   4)  ---------------------------------------


    POTLOK:  cpu time    1.1503: real time    1.1542
    SETDIJ:  cpu time    1.2297: real time    1.2329
    TRIAL :  cpu time  196.9185: real time  197.4896
    CORREC:  cpu time    0.0011: real time    0.0011
    CHARGE:  cpu time    0.9356: real time    0.9380
    --------------------------------------------
      LOOP:  cpu time  200.2370: real time  200.8219

 eigenvalue-minimisations  :     0
 total energy-change (2. order) :-0.1751463E+00  (-0.1247472E+00)
 number of electron     249.0000012 magnetization       2.9999826
 augmentation part       13.3141370 magnetization       2.0245318

 DIPCOR: dipole corrections for dipol
 direction  3 min pos     1,
 dipolmoment           0.000074      0.000012     -0.492825 electrons x Angstroem
 Tr[quadrupol]     -6841.614427

 energy correction for charged system         0.000000 eV
 dipol+quadrupol energy correction           -0.006945 eV
 added-field ion interaction          0.115769 eV  (added to PSCEN)


 Free energy of the ion-electron system (eV)
  ---------------------------------------------------
  alpha Z        PSCENC =       108.08606909
  Ewald energy   TEWEN  =     40324.59828632
  -Hartree energ DENC   =    -49486.25761991
  -exchange      EXHF   =       577.50561774
  -V(xc)+E(xc)   XCENC  =       663.05011289
  PAW double counting   =     27562.14137698   -27590.56094517
  entropy T*S    EENTRO =        -0.00000546
  eigenvalues    EBANDS =     -3467.81772218
  atomic energy  EATOM  =     10700.56923162
  ---------------------------------------------------
  free energy    TOTEN  =      -608.68563804 eV

  energy without entropy =     -608.68563258  energy(sigma->0) =     -608.68563531
  exchange ACFDT corr.  =        -0.00003056  see jH, gK, PRB 81, 115126


--------------------------------------------------------------------------------------------------------




--------------------------------------- Iteration      1(   5)  ---------------------------------------


    POTLOK:  cpu time    1.1409: real time    1.1448
    SETDIJ:  cpu time    1.2027: real time    1.2059
    TRIAL :  cpu time  197.6084: real time  198.1968
    CORREC:  cpu time    0.0013: real time    0.0013
    CHARGE:  cpu time    0.9349: real time    0.9374
    --------------------------------------------
      LOOP:  cpu time  200.8907: real time  201.4926

 eigenvalue-minimisations  :     0
 total energy-change (2. order) :-0.9565028E-01  (-0.7398007E-01)
 number of electron     249.0000012 magnetization       2.9999980
 augmentation part       13.3150585 magnetization       2.0434340

 DIPCOR: dipole corrections for dipol
 direction  3 min pos     1,
 dipolmoment           0.000073      0.000012     -0.488613 electrons x Angstroem
 Tr[quadrupol]     -6841.650140

 energy correction for charged system         0.000000 eV
 dipol+quadrupol energy correction           -0.006826 eV
 added-field ion interaction          0.114780 eV  (added to PSCEN)


 Free energy of the ion-electron system (eV)
  ---------------------------------------------------
  alpha Z        PSCENC =       108.08519792
  Ewald energy   TEWEN  =     40324.59828632
  -Hartree energ DENC   =    -49487.32968846
  -exchange      EXHF   =       577.74434084
  -V(xc)+E(xc)   XCENC  =       663.10156472
  PAW double counting   =     27619.93146135   -27648.43309744
  entropy T*S    EENTRO =        -0.00000076
  eigenvalues    EBANDS =     -3467.04857972
  atomic energy  EATOM  =     10700.56923162
  ---------------------------------------------------
  free energy    TOTEN  =      -608.78128832 eV

  energy without entropy =     -608.78128756  energy(sigma->0) =     -608.78128794
  exchange ACFDT corr.  =        -0.00000248  see jH, gK, PRB 81, 115126


--------------------------------------------------------------------------------------------------------




--------------------------------------- Iteration      1(   6)  ---------------------------------------


    POTLOK:  cpu time    1.1408: real time    1.1438
    SETDIJ:  cpu time    1.2163: real time    1.2193
    TRIAL :  cpu time  197.4004: real time  197.9993
    CORREC:  cpu time    0.0010: real time    0.0010
    CHARGE:  cpu time    0.9357: real time    0.9388
    --------------------------------------------
      LOOP:  cpu time  200.6963: real time  201.3084

 eigenvalue-minimisations  :     0
 total energy-change (2. order) :-0.5953407E-01  (-0.4740302E-01)
 number of electron     249.0000012 magnetization       2.9999998
 augmentation part       13.3142750 magnetization       2.0561611

 DIPCOR: dipole corrections for dipol
 direction  3 min pos     1,
 dipolmoment           0.000074      0.000012     -0.492241 electrons x Angstroem
 Tr[quadrupol]     -6841.716754

 energy correction for charged system         0.000000 eV
 dipol+quadrupol energy correction           -0.006928 eV
 added-field ion interaction          0.115632 eV  (added to PSCEN)


 Free energy of the ion-electron system (eV)
  ---------------------------------------------------
  alpha Z        PSCENC =       108.08594840
  Ewald energy   TEWEN  =     40324.59828632
  -Hartree energ DENC   =    -49490.96691337
  -exchange      EXHF   =       577.99822914
  -V(xc)+E(xc)   XCENC  =       663.21175444
  PAW double counting   =     27676.52955299   -27705.10701424
  entropy T*S    EENTRO =        -0.00000014
  eigenvalues    EBANDS =     -3463.75989694
  atomic energy  EATOM  =     10700.56923162
  ---------------------------------------------------
  free energy    TOTEN  =      -608.84082239 eV

  energy without entropy =     -608.84082225  energy(sigma->0) =     -608.84082232
  exchange ACFDT corr.  =        -0.00000026  see jH, gK, PRB 81, 115126


--------------------------------------------------------------------------------------------------------




--------------------------------------- Iteration      1(   7)  ---------------------------------------


    POTLOK:  cpu time    1.1388: real time    1.1416
    SETDIJ:  cpu time    1.2228: real time    1.2258
    TRIAL :  cpu time  198.7849: real time  199.4332
    CORREC:  cpu time    0.0009: real time    0.0009
    CHARGE:  cpu time    0.9339: real time    0.9363
    --------------------------------------------
      LOOP:  cpu time  202.0841: real time  202.7454

 eigenvalue-minimisations  :     0
 total energy-change (2. order) :-0.3888858E-01  (-0.2985116E-01)
 number of electron     249.0000012 magnetization       3.0000001
 augmentation part       13.3172428 magnetization       2.0658795

 DIPCOR: dipole corrections for dipol
 direction  3 min pos     1,
 dipolmoment           0.000075      0.000013     -0.498507 electrons x Angstroem
 Tr[quadrupol]     -6841.775462

 energy correction for charged system         0.000000 eV
 dipol+quadrupol energy correction           -0.007106 eV
 added-field ion interaction          0.117104 eV  (added to PSCEN)


 Free energy of the ion-electron system (eV)
  ---------------------------------------------------
  alpha Z        PSCENC =       108.08724282
  Ewald energy   TEWEN  =     40324.59828632
  -Hartree energ DENC   =    -49494.41631385
  -exchange      EXHF   =       578.20702325
  -V(xc)+E(xc)   XCENC  =       663.31707028
  PAW double counting   =     27723.58873050   -27752.21806589
  entropy T*S    EENTRO =        -0.00000004
  eigenvalues    EBANDS =     -3460.61291588
  atomic energy  EATOM  =     10700.56923162
  ---------------------------------------------------
  free energy    TOTEN  =      -608.87971097 eV

  energy without entropy =     -608.87971093  energy(sigma->0) =     -608.87971095
  exchange ACFDT corr.  =        -0.00000004  see jH, gK, PRB 81, 115126


--------------------------------------------------------------------------------------------------------




--------------------------------------- Iteration      1(   8)  ---------------------------------------


    POTLOK:  cpu time    1.1310: real time    1.1358
    SETDIJ:  cpu time    1.2470: real time    1.2501
    TRIAL :  cpu time  197.6281: real time  198.2171
    CORREC:  cpu time    0.0010: real time    0.0010
    CHARGE:  cpu time    0.9358: real time    0.9407
    --------------------------------------------
      LOOP:  cpu time  200.9455: real time  201.5514

 eigenvalue-minimisations  :     0
 total energy-change (2. order) :-0.2514726E-01  (-0.1968149E-01)
 number of electron     249.0000012 magnetization       3.0000002
 augmentation part       13.3229313 magnetization       2.0741587

 DIPCOR: dipole corrections for dipol
 direction  3 min pos     1,
 dipolmoment           0.000075      0.000013     -0.502480 electrons x Angstroem
 Tr[quadrupol]     -6841.812678

 energy correction for charged system         0.000000 eV
 dipol+quadrupol energy correction           -0.007219 eV
 added-field ion interaction          0.118037 eV  (added to PSCEN)


 Free energy of the ion-electron system (eV)
  ---------------------------------------------------
  alpha Z        PSCENC =       108.08806250
  Ewald energy   TEWEN  =     40324.59828632
  -Hartree energ DENC   =    -49496.84744925
  -exchange      EXHF   =       578.35431870
  -V(xc)+E(xc)   XCENC  =       663.39928959
  PAW double counting   =     27751.20023203   -27779.86774855
  entropy T*S    EENTRO =        -0.00000001
  eigenvalues    EBANDS =     -3458.39908115
  atomic energy  EATOM  =     10700.56923162
  ---------------------------------------------------
  free energy    TOTEN  =      -608.90485823 eV

  energy without entropy =     -608.90485822  energy(sigma->0) =     -608.90485822
  exchange ACFDT corr.  =        -0.00000001  see jH, gK, PRB 81, 115126


--------------------------------------------------------------------------------------------------------




--------------------------------------- Iteration      1(   9)  ---------------------------------------


    POTLOK:  cpu time    1.1338: real time    1.1370
    SETDIJ:  cpu time    1.2127: real time    1.2158
    TRIAL :  cpu time  197.8094: real time  198.3919
    CORREC:  cpu time    0.0008: real time    0.0008
    CHARGE:  cpu time    0.9316: real time    0.9340
    --------------------------------------------
      LOOP:  cpu time  201.0907: real time  201.6865

 eigenvalue-minimisations  :     0
 total energy-change (2. order) :-0.1701808E-01  (-0.1354489E-01)
 number of electron     249.0000012 magnetization       3.0000002
 augmentation part       13.3283652 magnetization       2.0814708

 DIPCOR: dipole corrections for dipol
 direction  3 min pos     1,
 dipolmoment           0.000076      0.000013     -0.503314 electrons x Angstroem
 Tr[quadrupol]     -6841.830678

 energy correction for charged system         0.000000 eV
 dipol+quadrupol energy correction           -0.007243 eV
 added-field ion interaction          0.118233 eV  (added to PSCEN)


 Free energy of the ion-electron system (eV)
  ---------------------------------------------------
  alpha Z        PSCENC =       108.08823442
  Ewald energy   TEWEN  =     40324.59828632
  -Hartree energ DENC   =    -49498.22605134
  -exchange      EXHF   =       578.44625958
  -V(xc)+E(xc)   XCENC  =       663.45509719
  PAW double counting   =     27761.02311171   -27789.72442844
  entropy T*S    EENTRO =        -0.00000001
  eigenvalues    EBANDS =     -3457.15161736
  atomic energy  EATOM  =     10700.56923162
  ---------------------------------------------------
  free energy    TOTEN  =      -608.92187631 eV

  energy without entropy =     -608.92187631  energy(sigma->0) =     -608.92187631
  exchange ACFDT corr.  =        -0.00000000  see jH, gK, PRB 81, 115126


--------------------------------------------------------------------------------------------------------




--------------------------------------- Iteration      1(  10)  ---------------------------------------


    POTLOK:  cpu time    1.1292: real time    1.1334
    SETDIJ:  cpu time    1.2198: real time    1.2228
    TRIAL :  cpu time  197.6415: real time  198.2213
    CORREC:  cpu time    0.0008: real time    0.0008
    CHARGE:  cpu time    0.9317: real time    0.9340
    --------------------------------------------
      LOOP:  cpu time  200.9255: real time  201.5193

 eigenvalue-minimisations  :     0
 total energy-change (2. order) :-0.1187511E-01  (-0.9460896E-02)
 number of electron     249.0000012 magnetization       3.0000002
 augmentation part       13.3318151 magnetization       2.0879105

 DIPCOR: dipole corrections for dipol
 direction  3 min pos     1,
 dipolmoment           0.000075      0.000013     -0.502340 electrons x Angstroem
 Tr[quadrupol]     -6841.837150

 energy correction for charged system         0.000000 eV
 dipol+quadrupol energy correction           -0.007215 eV
 added-field ion interaction          0.118004 eV  (added to PSCEN)


 Free energy of the ion-electron system (eV)
  ---------------------------------------------------
  alpha Z        PSCENC =       108.08803352
  Ewald energy   TEWEN  =     40324.59828632
  -Hartree energ DENC   =    -49498.83782449
  -exchange      EXHF   =       578.49935612
  -V(xc)+E(xc)   XCENC  =       663.48896170
  PAW double counting   =     27760.99466254   -27789.72551310
  entropy T*S    EENTRO =        -0.00000000
  eigenvalues    EBANDS =     -3456.60894565
  atomic energy  EATOM  =     10700.56923162
  ---------------------------------------------------
  free energy    TOTEN  =      -608.93375142 eV

  energy without entropy =     -608.93375142  energy(sigma->0) =     -608.93375142
  exchange ACFDT corr.  =        -0.00000000  see jH, gK, PRB 81, 115126


--------------------------------------------------------------------------------------------------------




--------------------------------------- Iteration      1(  11)  ---------------------------------------


    POTLOK:  cpu time    1.1277: real time    1.1307
    SETDIJ:  cpu time    1.2150: real time    1.2181
    TRIAL :  cpu time  197.2980: real time  197.8863
    CORREC:  cpu time    0.0008: real time    0.0008
    CHARGE:  cpu time    0.9344: real time    0.9368
    --------------------------------------------
      LOOP:  cpu time  200.5781: real time  201.1793

 eigenvalue-minimisations  :     0
 total energy-change (2. order) :-0.8386853E-02  (-0.6718335E-02)
 number of electron     249.0000012 magnetization       3.0000002
 augmentation part       13.3334662 magnetization       2.0935820

 DIPCOR: dipole corrections for dipol
 direction  3 min pos     1,
 dipolmoment           0.000075      0.000013     -0.501204 electrons x Angstroem
 Tr[quadrupol]     -6841.838871

 energy correction for charged system         0.000000 eV
 dipol+quadrupol energy correction           -0.007183 eV
 added-field ion interaction          0.117738 eV  (added to PSCEN)


 Free energy of the ion-electron system (eV)
  ---------------------------------------------------
  alpha Z        PSCENC =       108.08779932
  Ewald energy   TEWEN  =     40324.59828632
  -Hartree energ DENC   =    -49499.02215896
  -exchange      EXHF   =       578.53044614
  -V(xc)+E(xc)   XCENC  =       663.50836658
  PAW double counting   =     27758.38329319   -27787.13631895
  entropy T*S    EENTRO =        -0.00000000
  eigenvalues    EBANDS =     -3456.46108354
  atomic energy  EATOM  =     10700.56923162
  ---------------------------------------------------
  free energy    TOTEN  =      -608.94213828 eV

  energy without entropy =     -608.94213827  energy(sigma->0) =     -608.94213827
  exchange ACFDT corr.  =        -0.00000000  see jH, gK, PRB 81, 115126


--------------------------------------------------------------------------------------------------------




--------------------------------------- Iteration      1(  12)  ---------------------------------------


    POTLOK:  cpu time    1.1289: real time    1.1355
    SETDIJ:  cpu time    1.2291: real time    1.2330
    TRIAL :  cpu time  197.2362: real time  197.8780
    CORREC:  cpu time    0.0008: real time    0.0008
    CHARGE:  cpu time    0.9319: real time    0.9346
    --------------------------------------------
      LOOP:  cpu time  200.5292: real time  201.1896

 eigenvalue-minimisations  :     0
 total energy-change (2. order) :-0.6015139E-02  (-0.4836027E-02)
 number of electron     249.0000012 magnetization       3.0000002
 augmentation part       13.3344363 magnetization       2.0986004

 DIPCOR: dipole corrections for dipol
 direction  3 min pos     1,
 dipolmoment           0.000075      0.000013     -0.500818 electrons x Angstroem
 Tr[quadrupol]     -6841.839630

 energy correction for charged system         0.000000 eV
 dipol+quadrupol energy correction           -0.007172 eV
 added-field ion interaction          0.117647 eV  (added to PSCEN)


 Free energy of the ion-electron system (eV)
  ---------------------------------------------------
  alpha Z        PSCENC =       108.08771972
  Ewald energy   TEWEN  =     40324.59828632
  -Hartree energ DENC   =    -49499.04325191
  -exchange      EXHF   =       578.55135955
  -V(xc)+E(xc)   XCENC  =       663.52034288
  PAW double counting   =     27756.85741220   -27785.62461024
  entropy T*S    EENTRO =        -0.00000000
  eigenvalues    EBANDS =     -3456.46464356
  atomic energy  EATOM  =     10700.56923162
  ---------------------------------------------------
  free energy    TOTEN  =      -608.94815341 eV

  energy without entropy =     -608.94815341  energy(sigma->0) =     -608.94815341
  exchange ACFDT corr.  =        -0.00000000  see jH, gK, PRB 81, 115126


--------------------------------------------------------------------------------------------------------




--------------------------------------- Iteration      1(  13)  ---------------------------------------


    POTLOK:  cpu time    1.1241: real time    1.1270
    SETDIJ:  cpu time    1.2128: real time    1.2158
    TRIAL :  cpu time  197.9524: real time  198.5493
    CORREC:  cpu time    0.0007: real time    0.0007
    CHARGE:  cpu time    0.9327: real time    0.9351
    --------------------------------------------
      LOOP:  cpu time  201.2252: real time  201.8342

 eigenvalue-minimisations  :     0
 total energy-change (2. order) :-0.4371014E-02  (-0.3532799E-02)
 number of electron     249.0000012 magnetization       3.0000002
 augmentation part       13.3354614 magnetization       2.1030393

 DIPCOR: dipole corrections for dipol
 direction  3 min pos     1,
 dipolmoment           0.000075      0.000013     -0.501160 electrons x Angstroem
 Tr[quadrupol]     -6841.840836

 energy correction for charged system         0.000000 eV
 dipol+quadrupol energy correction           -0.007182 eV
 added-field ion interaction          0.117727 eV  (added to PSCEN)


 Free energy of the ion-electron system (eV)
  ---------------------------------------------------
  alpha Z        PSCENC =       108.08779030
  Ewald energy   TEWEN  =     40324.59828632
  -Hartree energ DENC   =    -49499.06228614
  -exchange      EXHF   =       578.56836938
  -V(xc)+E(xc)   XCENC  =       663.52986121
  PAW double counting   =     27756.84627839   -27785.62263881
  entropy T*S    EENTRO =        -0.00000000
  eigenvalues    EBANDS =     -3456.46741668
  atomic energy  EATOM  =     10700.56923162
  ---------------------------------------------------
  free energy    TOTEN  =      -608.95252443 eV

  energy without entropy =     -608.95252443  energy(sigma->0) =     -608.95252443
  exchange ACFDT corr.  =        -0.00000000  see jH, gK, PRB 81, 115126


--------------------------------------------------------------------------------------------------------




--------------------------------------- Iteration      1(  14)  ---------------------------------------


    POTLOK:  cpu time    1.1222: real time    1.1250
    SETDIJ:  cpu time    1.2547: real time    1.2600
    TRIAL :  cpu time  197.5719: real time  198.1506
    CORREC:  cpu time    0.0008: real time    0.0008
    CHARGE:  cpu time    0.9375: real time    0.9399
    --------------------------------------------
      LOOP:  cpu time  200.8895: real time  201.4824

 eigenvalue-minimisations  :     0
 total energy-change (2. order) :-0.3222109E-02  (-0.2617488E-02)
 number of electron     249.0000012 magnetization       3.0000002
 augmentation part       13.3365763 magnetization       2.1069317

 DIPCOR: dipole corrections for dipol
 direction  3 min pos     1,
 dipolmoment           0.000075      0.000013     -0.501689 electrons x Angstroem
 Tr[quadrupol]     -6841.842711

 energy correction for charged system         0.000000 eV
 dipol+quadrupol energy correction           -0.007197 eV
 added-field ion interaction          0.117851 eV  (added to PSCEN)


 Free energy of the ion-electron system (eV)
  ---------------------------------------------------
  alpha Z        PSCENC =       108.08789929
  Ewald energy   TEWEN  =     40324.59828632
  -Hartree energ DENC   =    -49499.14004992
  -exchange      EXHF   =       578.58374994
  -V(xc)+E(xc)   XCENC  =       663.53912842
  PAW double counting   =     27757.42140157   -27786.20574329
  entropy T*S    EENTRO =        -0.00000000
  eigenvalues    EBANDS =     -3456.40965049
  atomic energy  EATOM  =     10700.56923162
  ---------------------------------------------------
  free energy    TOTEN  =      -608.95574654 eV

  energy without entropy =     -608.95574654  energy(sigma->0) =     -608.95574654
  exchange ACFDT corr.  =        -0.00000000  see jH, gK, PRB 81, 115126


--------------------------------------------------------------------------------------------------------




--------------------------------------- Iteration      1(  15)  ---------------------------------------


    POTLOK:  cpu time    1.1247: real time    1.1301
    SETDIJ:  cpu time    1.2285: real time    1.2317
    TRIAL :  cpu time  198.5910: real time  199.1744
    CORREC:  cpu time    0.0008: real time    0.0008
    CHARGE:  cpu time    0.9328: real time    0.9352
    --------------------------------------------
      LOOP:  cpu time  201.8807: real time  202.4794

 eigenvalue-minimisations  :     0
 total energy-change (2. order) :-0.2406434E-02  (-0.1967521E-02)
 number of electron     249.0000012 magnetization       3.0000002
 augmentation part       13.3375336 magnetization       2.1103209

 DIPCOR: dipole corrections for dipol
 direction  3 min pos     1,
 dipolmoment           0.000075      0.000013     -0.501969 electrons x Angstroem
 Tr[quadrupol]     -6841.844874

 energy correction for charged system         0.000000 eV
 dipol+quadrupol energy correction           -0.007205 eV
 added-field ion interaction          0.117917 eV  (added to PSCEN)


 Free energy of the ion-electron system (eV)
  ---------------------------------------------------
  alpha Z        PSCENC =       108.08795704
  Ewald energy   TEWEN  =     40324.59828632
  -Hartree energ DENC   =    -49499.25650368
  -exchange      EXHF   =       578.59771260
  -V(xc)+E(xc)   XCENC  =       663.54807729
  PAW double counting   =     27758.20505478   -27786.99780819
  entropy T*S    EENTRO =        -0.00000000
  eigenvalues    EBANDS =     -3456.31016076
  atomic energy  EATOM  =     10700.56923162
  ---------------------------------------------------
  free energy    TOTEN  =      -608.95815297 eV

  energy without entropy =     -608.95815297  energy(sigma->0) =     -608.95815297
  exchange ACFDT corr.  =        -0.00000000  see jH, gK, PRB 81, 115126


--------------------------------------------------------------------------------------------------------




--------------------------------------- Iteration      1(  16)  ---------------------------------------


    POTLOK:  cpu time    1.1210: real time    1.1242
    SETDIJ:  cpu time    1.2282: real time    1.2313
    TRIAL :  cpu time  198.0524: real time  198.6436
    CORREC:  cpu time    0.0007: real time    0.0007
    CHARGE:  cpu time    0.9341: real time    0.9364
    --------------------------------------------
      LOOP:  cpu time  201.3385: real time  201.9423

 eigenvalue-minimisations  :     0
 total energy-change (2. order) :-0.1822056E-02  (-0.1503703E-02)
 number of electron     249.0000012 magnetization       3.0000002
 augmentation part       13.3381939 magnetization       2.1132935

 DIPCOR: dipole corrections for dipol
 direction  3 min pos     1,
 dipolmoment           0.000075      0.000013     -0.501959 electrons x Angstroem
 Tr[quadrupol]     -6841.846902

 energy correction for charged system         0.000000 eV
 dipol+quadrupol energy correction           -0.007204 eV
 added-field ion interaction          0.117915 eV  (added to PSCEN)


 Free energy of the ion-electron system (eV)
  ---------------------------------------------------
  alpha Z        PSCENC =       108.08795510
  Ewald energy   TEWEN  =     40324.59828632
  -Hartree energ DENC   =    -49499.37118693
  -exchange      EXHF   =       578.61000451
  -V(xc)+E(xc)   XCENC  =       663.55603123
  PAW double counting   =     27759.27242414   -27788.07330331
  entropy T*S    EENTRO =        -0.00000000
  eigenvalues    EBANDS =     -3456.20941770
  atomic energy  EATOM  =     10700.56923162
  ---------------------------------------------------
  free energy    TOTEN  =      -608.95997503 eV

  energy without entropy =     -608.95997503  energy(sigma->0) =     -608.95997503
  exchange ACFDT corr.  =        -0.00000000  see jH, gK, PRB 81, 115126


--------------------------------------------------------------------------------------------------------




--------------------------------------- Iteration      1(  17)  ---------------------------------------


    POTLOK:  cpu time    1.1193: real time    1.1221
    SETDIJ:  cpu time    1.2271: real time    1.2302
    TRIAL :  cpu time  198.8843: real time  199.5137
    CORREC:  cpu time    0.0008: real time    0.0008
    CHARGE:  cpu time    0.9330: real time    0.9352
    --------------------------------------------
      LOOP:  cpu time  202.1663: real time  202.8076

 eigenvalue-minimisations  :     0
 total energy-change (2. order) :-0.1401654E-02  (-0.1169735E-02)
 number of electron     249.0000012 magnetization       3.0000002
 augmentation part       13.3386216 magnetization       2.1159574

 DIPCOR: dipole corrections for dipol
 direction  3 min pos     1,
 dipolmoment           0.000075      0.000013     -0.501850 electrons x Angstroem
 Tr[quadrupol]     -6841.848535

 energy correction for charged system         0.000000 eV
 dipol+quadrupol energy correction           -0.007201 eV
 added-field ion interaction          0.117889 eV  (added to PSCEN)


 Free energy of the ion-electron system (eV)
  ---------------------------------------------------
  alpha Z        PSCENC =       108.08793252
  Ewald energy   TEWEN  =     40324.59828632
  -Hartree energ DENC   =    -49499.45984606
  -exchange      EXHF   =       578.62053612
  -V(xc)+E(xc)   XCENC  =       663.56270847
  PAW double counting   =     27760.54853947   -27789.35604083
  entropy T*S    EENTRO =        -0.00000000
  eigenvalues    EBANDS =     -3456.13272431
  atomic energy  EATOM  =     10700.56923162
  ---------------------------------------------------
  free energy    TOTEN  =      -608.96137668 eV

  energy without entropy =     -608.96137668  energy(sigma->0) =     -608.96137668
  exchange ACFDT corr.  =        -0.00000000  see jH, gK, PRB 81, 115126


--------------------------------------------------------------------------------------------------------




--------------------------------------- Iteration      1(  18)  ---------------------------------------


    POTLOK:  cpu time    1.1178: real time    1.1207
    SETDIJ:  cpu time    1.2303: real time    1.2335
[...]
  augment    47.14022    45.04984    46.12820    -0.46071     0.00657     1.25652
  Kinetic  3725.21035  3752.41651  4265.11840     7.77857    -4.33654     2.74316
  Fock     -353.87809  -351.34962  -324.48657     0.98484    -0.36287    -0.78544
  -------------------------------------------------------------------------------------
  Total     -41.72226   -47.26211    -0.85188    -0.30213    -0.43259     0.38919
  in kB     -21.04145   -23.83532    -0.42962    -0.15237    -0.21817     0.19628
  external pressure =      -15.10 kB  Pullay stress =        0.00 kB


 VOLUME and BASIS-vectors are now :
 -----------------------------------------------------------------------------
  energy-cutoff  :      500.00
  volume of cell :     3176.89
      direct lattice vectors                 reciprocal lattice vectors
    12.716600000  0.000000000  0.000000000     0.078637372 -0.000571374  0.000011789
     0.090932938 12.514969648  0.000000000     0.000000000  0.079904309  0.000002005
    -0.002996248 -0.000500845 19.961899769     0.000000000  0.000000000  0.050095432

  length of vectors
    12.716600000 12.515300000 19.961900000     0.078639448  0.079904309  0.050095432


 FORCES acting on ions:
    Electron-Ion                     Ewald-Force                    Non-Local-Force
 -----------------------------------------------------------------------------------------------
   0.897E+01 0.529E+01 -.691E+01   -.903E+01 -.548E+01 0.685E+01   0.124E+00 0.312E+00 0.653E-01
   0.748E+01 0.388E+01 0.205E+01   -.770E+01 -.409E+01 -.209E+01   0.252E+00 0.166E+00 0.406E-01
   0.125E+02 0.103E+01 -.173E+01   -.126E+02 -.109E+01 0.172E+01   0.100E+00 0.614E-01 0.135E-01
   0.892E+01 0.138E+02 -.111E+02   -.900E+01 -.144E+02 0.112E+02   0.505E-02 0.505E+00 -.116E+00
   0.218E+02 0.212E+02 -.937E+01   -.225E+02 -.222E+02 0.939E+01   0.710E+00 0.999E+00 -.169E-01
   0.228E+02 -.225E+00 -.935E+00   -.233E+02 0.473E+00 0.946E+00   0.632E+00 -.185E+00 -.411E-01
   0.220E+02 0.586E+01 0.504E+00   -.227E+02 -.578E+01 -.677E+00   0.627E+00 -.238E-01 0.173E+00
   0.285E+02 0.373E+02 -.119E+02   -.311E+02 -.407E+02 0.119E+02   0.224E+01 0.349E+01 -.112E+00
   0.174E+02 -.352E+01 0.101E+02   -.174E+02 0.368E+01 -.101E+02   0.102E-01 -.138E+00 0.135E-01
   0.457E+02 -.144E+02 0.558E+01   -.499E+02 0.150E+02 -.547E+01   0.406E+01 -.623E+00 -.137E+00
   0.153E+02 -.358E+00 0.245E+01   -.156E+02 0.189E+00 -.247E+01   0.263E+00 0.145E+00 0.263E-01
   0.486E+02 0.112E+02 0.803E+01   -.517E+02 -.115E+02 -.798E+01   0.330E+01 0.340E+00 -.471E-01
   0.387E+01 -.389E+02 -.604E+01   -.283E+01 0.415E+02 0.622E+01   -.110E+01 -.261E+01 -.233E+00
   0.112E+02 -.145E+02 -.883E+01   -.111E+02 0.150E+02 0.883E+01   -.448E-01 -.382E+00 -.254E-01
   0.405E+01 -.972E+00 0.945E+00   -.413E+01 0.101E+01 -.978E+00   0.120E+00 -.394E-01 0.393E-01
   0.170E+02 -.532E+01 -.139E+01   -.173E+02 0.543E+01 0.132E+01   0.294E+00 -.868E-01 0.598E-01
   0.920E+01 -.496E+01 -.847E+01   -.903E+01 0.503E+01 0.846E+01   -.112E+00 -.127E+00 0.465E-02
   -.105E+02 0.395E+01 0.352E+01   0.103E+02 -.399E+01 -.356E+01   0.118E+00 0.122E+00 0.388E-01
   0.133E+01 0.185E+02 -.615E+01   -.103E+01 -.191E+02 0.609E+01   -.200E+00 0.578E+00 0.813E-01
   0.717E+00 0.682E+01 -.150E+01   -.428E+00 -.711E+01 0.146E+01   -.239E+00 0.320E+00 0.499E-01
   -.102E+02 0.145E+02 0.730E+00   0.101E+02 -.150E+02 -.786E+00   0.275E-01 0.470E+00 0.776E-01
   -.599E+01 0.368E+02 -.795E+01   0.473E+01 -.398E+02 0.735E+01   0.997E+00 0.278E+01 0.567E+00
   -.132E+02 0.404E+02 -.711E+01   0.152E+02 -.440E+02 0.639E+01   -.172E+01 0.320E+01 0.660E+00
   -.231E+02 -.466E+02 0.585E+02   0.254E+02 0.508E+02 -.593E+02   -.216E+01 -.413E+01 0.823E+00
   0.816E+01 -.376E+02 0.164E+01   -.103E+02 0.410E+02 -.129E+01   0.197E+01 -.313E+01 -.323E+00
   -.202E+02 -.229E+02 0.244E+02   0.210E+02 0.242E+02 -.244E+02   -.663E+00 -.126E+01 0.647E-02
   -.911E+01 -.148E+02 0.131E+02   0.917E+01 0.156E+02 -.132E+02   0.235E-01 -.666E+00 0.119E+00
   -.173E+01 -.565E+01 -.406E+01   0.140E+01 0.592E+01 0.403E+01   0.243E+00 -.283E+00 0.236E-01
   -.149E+01 -.183E+02 0.156E+01   0.113E+01 0.188E+02 -.153E+01   0.199E+00 -.559E+00 -.480E-01
   -.783E+01 -.538E+01 0.881E+01   0.791E+01 0.563E+01 -.883E+01   -.100E+00 -.359E+00 0.210E-01
   -.584E+01 0.146E+01 0.626E+01   0.587E+01 -.146E+01 -.628E+01   0.136E-01 0.487E-02 0.298E-01
   -.167E+02 0.507E+01 0.107E+01   0.171E+02 -.530E+01 -.997E+00   -.288E+00 0.120E+00 -.590E-01
   -.341E+01 0.103E+01 0.600E+01   0.350E+01 -.989E+00 -.606E+01   -.135E+00 0.401E-01 0.658E-01
   0.632E+01 -.169E+01 0.572E+01   -.653E+01 0.174E+01 -.577E+01   0.170E+00 -.715E-01 0.479E-01
   -.435E+01 -.312E+00 0.524E+01   0.461E+01 0.599E+00 -.534E+01   -.200E+00 -.229E+00 0.984E-01
   -.467E+02 -.682E+01 -.360E+01   0.502E+02 0.696E+01 0.305E+01   -.333E+01 -.167E+00 0.512E+00
   -.151E+02 0.157E+01 0.224E+01   0.154E+02 -.143E+01 -.224E+01   -.379E+00 -.677E-02 0.191E-01
   0.376E+01 -.119E+01 0.643E+00   -.411E+01 0.143E+01 -.656E+00   0.242E+00 -.218E+00 0.109E-01
   0.112E+01 -.448E+01 0.268E+01   -.105E+01 0.447E+01 -.275E+01   0.158E-01 -.499E-01 0.553E-01
   -.503E+02 0.141E+02 0.245E+02   0.550E+02 -.145E+02 -.246E+02   -.442E+01 0.530E+00 0.719E-01
   -.208E+02 0.604E+01 0.269E+01   0.209E+02 -.627E+01 -.279E+01   -.176E+00 0.165E+00 0.722E-01
   -.353E+01 0.458E+01 0.730E+01   0.366E+01 -.457E+01 -.733E+01   -.182E+00 0.504E-01 0.345E-01
   -.611E+01 0.226E+01 0.921E+01   0.661E+01 -.251E+01 -.922E+01   -.400E+00 0.211E+00 0.877E-02
   -.214E+02 -.811E+01 0.185E+02   0.220E+02 0.815E+01 -.185E+02   -.637E+00 -.202E-01 0.134E-01
   -.250E+02 -.295E+01 0.192E+02   0.257E+02 0.269E+01 -.193E+02   -.834E+00 0.909E-01 0.536E-01
   0.387E+01 -.104E+00 0.568E+01   -.405E+01 -.159E+00 -.572E+01   0.126E+00 0.224E+00 0.296E-01
   -.597E+01 0.106E+01 0.640E+01   0.622E+01 -.112E+01 -.641E+01   -.196E+00 0.902E-01 0.436E-02
   -.128E+02 -.172E+01 0.898E+01   0.129E+02 0.177E+01 -.901E+01   -.108E+00 -.918E-01 0.283E-01
   -.727E+01 -.437E+01 0.108E+02   0.753E+01 0.460E+01 -.108E+02   -.296E+00 -.216E+00 0.217E-01
   0.611E+01 -.158E+01 0.529E+01   -.612E+01 0.157E+01 -.533E+01   -.218E-01 -.837E-02 0.387E-01
   0.394E+02 -.403E+02 0.202E+02   -.307E+02 0.575E+02 -.217E+02   -.831E+01 -.167E+02 0.163E+01
   0.265E+02 0.273E+02 0.167E+02   -.158E+02 -.460E+02 -.176E+02   -.105E+02 0.179E+02 0.930E+00
   -.111E+02 -.614E+01 -.339E+02   0.216E+02 0.239E+02 0.357E+02   -.972E+01 -.164E+02 -.169E+01
   -.243E+02 -.227E+02 -.373E+02   0.133E+02 0.415E+02 0.389E+02   0.100E+02 -.174E+02 -.149E+01
   -.436E+02 0.466E+02 0.928E+02   0.345E+02 -.663E+02 -.957E+02   0.830E+01 0.187E+02 0.287E+01
   0.170E+02 0.288E+00 0.688E+02   -.269E+02 -.149E+02 -.723E+02   0.975E+01 0.136E+02 0.339E+01
   0.149E+02 0.176E+02 0.312E+03   -.197E+02 -.145E+02 -.308E+03   0.427E+01 -.265E+01 -.450E+01
   -.856E+01 -.120E+02 -.648E+03   0.106E+02 0.811E+01 0.637E+03   -.143E+01 0.318E+01 0.916E+01
 -----------------------------------------------------------------------------------------------
   -.172E+01 0.541E+00 -.149E+02   -.711E-13 -.142E-13 0.114E-12   0.137E+01 -.428E+00 0.133E+02
 
 
 POSITION                                       TOTAL-FORCE (eV/Angst)
 -----------------------------------------------------------------------------------
      2.90913     12.49026     10.02500         0.068122      0.142953      0.004407
      0.69790      1.23537      9.98809         0.037976     -0.030873      0.002174
      1.49060     12.50083      9.99690        -0.003780     -0.000445     -0.000798
      3.52976      1.19457     10.05641        -0.079121     -0.119991     -0.005649
      2.82616      2.42511     10.04641         0.065092      0.059496      0.005597
      0.74164      3.74164      9.98319         0.114042      0.051398     -0.033691
      1.40983      2.47123     10.00070         0.051270      0.048598      0.009266
      3.55684      3.62989     10.05812        -0.277706      0.262708     -0.058101
      0.85664      6.22841      9.92242        -0.013775      0.008272      0.014938
      1.52801      4.94220      9.94694         0.101951     -0.128903     -0.036417
      0.81785      8.74021      9.93990        -0.020445     -0.014869     -0.001012
      1.56929      7.50866      9.91272         0.321075      0.116804      0.004540
      3.61557      8.78862      9.94669        -0.123477     -0.140682     -0.070348
      2.91849     10.02128      9.98762         0.090795      0.056100     -0.031861
      0.79494     11.24995      9.97176         0.032993      0.001181      0.007380
      1.49791     10.00518      9.96783         0.001701      0.019358     -0.003742
      3.61821     11.25557     10.01211         0.059857     -0.065768     -0.007029
      7.15610     12.50961      9.99775        -0.063571      0.094833      0.009807
      4.95154      1.20844     10.06392         0.087561      0.046740      0.025372
      5.74582     12.49156     10.01964         0.042238      0.047123      0.008572
      7.76173      1.23632     10.03640        -0.079689      0.000864      0.027113
      7.06703      2.47341     10.11923        -0.207419     -0.067136      0.000472
      5.63824      2.44613     10.11675         0.225592     -0.186868     -0.032283
      7.12270      7.59623      9.83138        -0.013970     -0.192505      0.050408
      5.03993      8.78910      9.92466        -0.090440      0.133443      0.004655
      7.84695      8.81259      9.87306         0.033754     -0.045355     -0.021472
      7.15163     10.04809      9.91714         0.090768      0.056681      0.003219
      5.02892     11.25993      9.99933        -0.076416     -0.026624     -0.003462
      5.73114     10.02314      9.95256        -0.144747     -0.102521     -0.019873
      7.86150     11.27148      9.94675        -0.013714     -0.134144      0.005277
     11.39324     12.51209      9.95931         0.035224      0.005672      0.007912
      9.18362      1.24898     10.00874         0.017449     -0.104230      0.006074
      9.88270      0.00229      9.96498        -0.048699      0.085766      0.010514
     11.99186      1.25192      9.97229        -0.022017     -0.025962      0.006707
     11.29850      2.51600      9.98380         0.038354      0.047140      0.009150
      9.11792      3.75169     10.07038         0.050702     -0.040953     -0.012808
      9.86570      2.51638     10.01650        -0.071199      0.128219      0.022564
     12.01693      3.76308      9.98296        -0.103371      0.012374     -0.002661
     11.31304      5.01356      9.97124         0.094759     -0.066847     -0.009583
      9.17964      6.30850      9.91624         0.120195      0.147803     -0.001294
      9.84219      5.02201      9.99492        -0.053631     -0.053761     -0.027315
     12.10225      6.23745      9.93566        -0.065960      0.069730     -0.001740
     11.39508      7.48985      9.91983         0.089258     -0.019328     -0.000010
      9.27003      8.77350      9.88785        -0.063240      0.019216      0.002590
      9.95576      7.51078      9.89651        -0.151811     -0.166487      0.018404
     12.10345      8.73910      9.92968        -0.035864     -0.029185     -0.003686
     11.40370      9.99878      9.93178         0.035349      0.030048     -0.002189
      9.27945     11.26385      9.93842        -0.031434     -0.047470      0.001303
      9.97967     10.01316      9.91584        -0.044163      0.008297      0.001580
     12.09220     11.25498      9.95111        -0.017309     -0.023717      0.004347
      2.92796      4.83518      9.92926        -0.303029     -1.005860      0.237287
      2.95616      7.57551      9.88150        -0.679439      0.816694      0.120999
      4.93212      3.65064     10.17712        -0.089102     -0.024421      0.006069
      7.72638      3.70158     10.20141        -0.038005     -0.127528      0.069103
      7.78591      6.40036      9.87488        -0.125354      0.560020      0.239859
      5.71758      7.54891      9.82198         0.679619      0.172676      0.150425
      4.28900      6.15711      9.58477        -0.010002      0.096695     -0.188001
      6.27845      5.24378     10.76528         0.576203     -0.354472     -0.523062
 -----------------------------------------------------------------------------------
    total drift:                                0.002631     -0.005641      0.026736


--------------------------------------------------------------------------------------------------------



  FREE ENERGIE OF THE ION-ELECTRON SYSTEM (eV)
  ---------------------------------------------------
  free  energy   TOTEN  =      -608.96996313 eV

  energy  without entropy=     -608.96996313  energy(sigma->0) =     -608.96996313
 


--------------------------------------------------------------------------------------------------------


    POTLOK:  cpu time    2.3076: real time    2.3144


--------------------------------------------------------------------------------------------------------


 stress matrix after NEB project (eV)
    -41.72226     -0.30042      0.38919
     -0.30213    -47.26211     -0.43527
      0.38686     -0.43259     -0.85188
  FORCES: max atom, RMS     1.076980    0.292378
  FORCE total and by dimension    2.226685    1.005860
  Stress total and by dimension   63.055843   47.262115
 writing wavefunctions
     LOOP+:  cpu time10304.4206: real time10340.5956
    4ORBIT:  cpu time    0.0000: real time    0.0000
 


 total charge     
 
# of ion       s       p       d       tot
------------------------------------------
    1        0.870   1.793   0.000   2.664
    2        0.866   1.774   0.000   2.640
    3        0.867   1.768   0.000   2.634
    4        0.872   1.788   0.000   2.661
    5        0.871   1.816   0.000   2.687
    6        0.859   1.760   0.000   2.620
    7        0.868   1.766   0.000   2.634
    8        0.863   1.723   0.000   2.586
    9        0.842   1.726   0.000   2.568
   10        0.848   1.697   0.000   2.545
   11        0.861   1.761   0.000   2.622
   12        0.849   1.689   0.000   2.539
   13        0.863   1.756   0.000   2.619
   14        0.871   1.792   0.000   2.663
   15        0.865   1.779   0.000   2.644
   16        0.867   1.763   0.000   2.629
   17        0.870   1.795   0.000   2.665
   18        0.867   1.793   0.000   2.660
   19        0.870   1.792   0.000   2.662
   20        0.870   1.792   0.000   2.661
   21        0.869   1.783   0.000   2.652
   22        0.857   1.745   0.000   2.602
   23        0.858   1.751   0.000   2.609
   24        0.857   1.706   0.000   2.563
   25        0.857   1.744   0.000   2.601
   26        0.869   1.804   0.000   2.673
   27        0.871   1.789   0.000   2.660
   28        0.868   1.791   0.000   2.659
   29        0.869   1.789   0.000   2.659
   30        0.870   1.789   0.000   2.659
   31        0.865   1.767   0.000   2.632
   32        0.865   1.762   0.000   2.627
   33        0.865   1.776   0.000   2.641
   34        0.864   1.761   0.000   2.625
   35        0.860   1.750   0.000   2.610
   36        0.846   1.686   0.000   2.533
   37        0.860   1.754   0.000   2.614
   38        0.858   1.752   0.000   2.610
   39        0.852   1.716   0.000   2.569
   40        0.850   1.709   0.000   2.559
   41        0.844   1.726   0.000   2.569
   42        0.852   1.712   0.000   2.564
   43        0.858   1.756   0.000   2.614
   44        0.866   1.761   0.000   2.627
   45        0.861   1.761   0.000   2.622
   46        0.861   1.753   0.000   2.614
   47        0.863   1.762   0.000   2.625
   48        0.866   1.768   0.000   2.634
   49        0.865   1.771   0.000   2.636
   50        0.865   1.765   0.000   2.630
   51        1.228   2.688   0.000   3.916
   52        1.231   2.675   0.000   3.906
   53        1.229   2.686   0.000   3.915
   54        1.227   2.656   0.000   3.883
   55        1.233   2.697   0.000   3.930
   56        1.214   2.649   0.000   3.863
   57        0.428   0.475   6.259   7.162
   58        2.209   6.166   1.078   9.453
--------------------------------------------------
tot         53.109 110.674   7.337 171.121
 


 magnetization (x)
 
# of ion       s       p       d       tot
------------------------------------------
    1        0.000   0.001   0.000   0.001
    2        0.000   0.001   0.000   0.001
    3       -0.000   0.000   0.000   0.000
    4        0.000   0.003   0.000   0.003
    5       -0.000   0.000   0.000   0.000
    6        0.000   0.001   0.000   0.002
    7        0.000   0.001   0.000   0.001
    8        0.001   0.007   0.000   0.009
    9        0.000   0.005   0.000   0.005
   10       -0.000  -0.003   0.000  -0.003
   11        0.001   0.004   0.000   0.005
   12        0.001   0.001   0.000   0.001
   13       -0.001  -0.000   0.000  -0.001
   14       -0.000   0.000   0.000   0.000
   15        0.000   0.001   0.000   0.001
   16       -0.000  -0.001   0.000  -0.001
   17        0.000   0.001   0.000   0.001
   18        0.000   0.001   0.000   0.001
   19        0.000   0.001   0.000   0.001
   20       -0.000  -0.001   0.000  -0.001
   21       -0.000  -0.001   0.000  -0.001
   22        0.000   0.003   0.000   0.003
   23        0.001   0.004   0.000   0.004
   24       -0.000  -0.001   0.000  -0.001
   25       -0.001  -0.001   0.000  -0.002
   26       -0.000  -0.002   0.000  -0.002
   27        0.000  -0.000   0.000  -0.000
   28       -0.000   0.000   0.000   0.000
   29       -0.000  -0.001   0.000  -0.001
   30       -0.000   0.000   0.000   0.000
   31        0.000   0.002   0.000   0.002
   32        0.000   0.002   0.000   0.002
   33       -0.000  -0.002   0.000  -0.002
   34       -0.000  -0.002   0.000  -0.002
   35        0.000   0.001   0.000   0.002
   36        0.000   0.002   0.000   0.002
   37       -0.000   0.000   0.000   0.000
   38       -0.000  -0.002   0.000  -0.002
   39        0.000   0.001   0.000   0.002
   40        0.000   0.002   0.000   0.002
   41       -0.000  -0.001   0.000  -0.001
   42       -0.000  -0.000   0.000  -0.000
   43        0.000   0.003   0.000   0.003
   44        0.000   0.001   0.000   0.001
   45       -0.000   0.000   0.000   0.000
   46       -0.000  -0.002   0.000  -0.002
   47        0.000   0.002   0.000   0.002
   48        0.000   0.001   0.000   0.001
   49       -0.000  -0.001   0.000  -0.001
   50       -0.000  -0.001   0.000  -0.001
   51       -0.002  -0.014   0.000  -0.016
   52        0.008   0.020   0.000   0.028
   53        0.006   0.020   0.000   0.026
   54       -0.000   0.003   0.000   0.003
   55        0.001   0.009   0.000   0.010
   56       -0.003  -0.010   0.000  -0.014
   57        0.029   0.043   2.816   2.887
   58       -0.007  -0.007  -0.084  -0.098
--------------------------------------------------
tot          0.034   0.094   2.731   2.859
 

 total amount of memory used by VASP MPI-rank0   158874. kBytes
=======================================================================

   base      :      30000. kBytes
   nonl-proj :       4261. kBytes
   fftplans  :      11851. kBytes
   grid      :      31266. kBytes
   one-center:         62. kBytes
   HF        :         23. kBytes
   nonlr-proj:      18465. kBytes
   wavefun   :      62946. kBytes
 
  
  
 General timing and accounting informations for this job:
 ========================================================
  
                  Total CPU time used (sec):    10345.992
                            User time (sec):    10315.212
                          System time (sec):       30.781
                         Elapsed time (sec):    10389.127
  
                   Maximum memory used (kb):      389884.
                   Average memory used (kb):           0.
  
                          Minor page faults:       924471
                          Major page faults:          182
                 Voluntary context switches:       154726
