 vasp.5.4.4.18Apr17-6-g9f103f2a35 (build Feb 25 2019 10:51:38) complex          
  
 executed on             LinuxIFC date 2021.07.24  10:49:07
 running on   32 total cores
 distrk:  each k-point on   32 cores,    1 groups
 distr:  one band on NCORES_PER_BAND=  32 cores,    1 groups


--------------------------------------------------------------------------------------------------------


 INCAR:
 POTCAR:    PAW_PBE C 08Apr2002                   
 POTCAR:    PAW_PBE N 08Apr2002                   
 POTCAR:    PAW_PBE Ni 02Aug2007                  
 POTCAR:    PAW_PBE Fe 06Sep2000                  

 ----------------------------------------------------------------------------- 
|                                                                             |
|           W    W    AA    RRRRR   N    N  II  N    N   GGGG   !!!           |
|           W    W   A  A   R    R  NN   N  II  NN   N  G    G  !!!           |
|           W    W  A    A  R    R  N N  N  II  N N  N  G       !!!           |
|           W WW W  AAAAAA  RRRRR   N  N N  II  N  N N  G  GGG   !            |
|           WW  WW  A    A  R   R   N   NN  II  N   NN  G    G                |
|           W    W  A    A  R    R  N    N  II  N    N   GGGG   !!!           |
|                                                                             |
|      For optimal performance we recommend to set                            |
|        NCORE= 4 - approx SQRT( number of cores)                             |
|      NCORE specifies how many cores store one orbital (NPAR=cpu/NCORE).     |
|      This setting can  greatly improve the performance of VASP for DFT.     |
|      The default,   NCORE=1            might be grossly inefficient         |
|      on modern multi-core architectures or massively parallel machines.     |
|      Do your own testing !!!!                                               |
|      Unfortunately you need to use the default for GW and RPA calculations. |
|      (for HF NCORE is supported but not extensively tested yet)             |
|                                                                             |
 ----------------------------------------------------------------------------- 

 POTCAR:    PAW_PBE C 08Apr2002                   
   VRHFIN =C: s2p2                                                              
   LEXCH  = PE                                                                  
   EATOM  =   147.1560 eV,   10.8157 Ry                                         
                                                                                
   TITEL  = PAW_PBE C 08Apr2002                                                 
   LULTRA =        F    use ultrasoft PP ?                                      
   IUNSCR =        1    unscreen: 0-lin 1-nonlin 2-no                           
   RPACOR =    1.200    partial core radius                                     
   POMASS =   12.011; ZVAL   =    4.000    mass and valenz                      
   RCORE  =    1.500    outmost cutoff radius                                   
   RWIGS  =    1.630; RWIGS  =    0.863    wigner-seitz radius (au A)           
   ENMAX  =  400.000; ENMIN  =  300.000 eV                                      
   ICORE  =        2    local potential                                         
   LCOR   =        T    correct aug charges                                     
   LPAW   =        T    paw PP                                                  
   EAUG   =  644.873                                                            
   DEXC   =    0.000                                                            
   RMAX   =    1.529    core radius for proj-oper                               
   RAUG   =    1.300    factor for augmentation sphere                          
   RDEP   =    1.501    radius for radial grids                                 
   RDEPT  =    1.300    core radius for aug-charge                              
                                                                                
   Atomic configuration                                                         
    4 entries                                                                   
     n  l   j            E        occ.                                          
     1  0  0.50      -273.3789   2.0000                                         
     2  0  0.50       -13.7508   2.0000                                         
     2  1  0.50        -5.2854   2.0000                                         
     3  2  1.50        -5.4423   0.0000                                         
   Description                                                                  
     l       E           TYP  RCUT    TYP  RCUT                                 
     0    -13.7508458     23  1.200                                             
     0     -8.2022199     23  1.200                                             
     1     -5.2854383     23  1.500                                             
     1     34.0145650     23  1.500                                             
     2     -5.4423304      7  1.500                                             
  local pseudopotential read in
  partial core-charges read in
  partial kinetic energy density read in
  atomic valenz-charges read in
  non local Contribution for L=           0  read in
    real space projection operators read in
  non local Contribution for L=           0  read in
    real space projection operators read in
  non local Contribution for L=           1  read in
    real space projection operators read in
  non local Contribution for L=           1  read in
    real space projection operators read in
    PAW grid and wavefunctions read in
 
   number of l-projection  operators is LMAX  =           4
   number of lm-projection operators is LMMAX =           8
 
 POTCAR:    PAW_PBE N 08Apr2002                   
   VRHFIN =N: s2p3                                                              
   LEXCH  = PE                                                                  
   EATOM  =   264.5486 eV,   19.4438 Ry                                         
                                                                                
   TITEL  = PAW_PBE N 08Apr2002                                                 
   LULTRA =        F    use ultrasoft PP ?                                      
   IUNSCR =        1    unscreen: 0-lin 1-nonlin 2-no                           
   RPACOR =    1.200    partial core radius                                     
   POMASS =   14.001; ZVAL   =    5.000    mass and valenz                      
   RCORE  =    1.500    outmost cutoff radius                                   
   RWIGS  =    1.400; RWIGS  =    0.741    wigner-seitz radius (au A)           
   ENMAX  =  400.000; ENMIN  =  300.000 eV                                      
   ICORE  =        2    local potential                                         
   LCOR   =        T    correct aug charges                                     
   LPAW   =        T    paw PP                                                  
   EAUG   =  627.112                                                            
   DEXC   =    0.000                                                            
   RMAX   =    1.529    core radius for proj-oper                               
   RAUG   =    1.300    factor for augmentation sphere                          
   RDEP   =    1.514    radius for radial grids                                 
   RDEPT  =    1.338    core radius for aug-charge                              
                                                                                
   Atomic configuration                                                         
    4 entries                                                                   
     n  l   j            E        occ.                                          
     1  0  0.50      -384.7179   2.0000                                         
     2  0  0.50       -18.5828   2.0000                                         
     2  1  0.50        -7.0898   3.0000                                         
     3  2  1.50        -6.8029   0.0000                                         
   Description                                                                  
     l       E           TYP  RCUT    TYP  RCUT                                 
     0    -18.5828119     23  1.200                                             
     0    -13.5018863     23  1.200                                             
     1     -7.0897853     23  1.500                                             
     1      9.5240782     23  1.500                                             
     2     -6.8029130      7  1.500                                             
  local pseudopotential read in
  partial core-charges read in
  partial kinetic energy density read in
  atomic valenz-charges read in
  non local Contribution for L=           0  read in
    real space projection operators read in
  non local Contribution for L=           0  read in
    real space projection operators read in
  non local Contribution for L=           1  read in
    real space projection operators read in
  non local Contribution for L=           1  read in
    real space projection operators read in
    PAW grid and wavefunctions read in
 
   number of l-projection  operators is LMAX  =           4
   number of lm-projection operators is LMMAX =           8
 
 POTCAR:    PAW_PBE Ni 02Aug2007                  
   VRHFIN =Ni:                                                                  
   LEXCH  = PE                                                                  
   EATOM  =  1077.6739 eV,   79.2068 Ry                                         
                                                                                
   TITEL  = PAW_PBE Ni 02Aug2007                                                
   LULTRA =        F    use ultrasoft PP ?                                      
   IUNSCR =        1    unscreen: 0-lin 1-nonlin 2-no                           
   RPACOR =    2.000    partial core radius                                     
   POMASS =   58.690; ZVAL   =   10.000    mass and valenz                      
   RCORE  =    2.300    outmost cutoff radius                                   
   RWIGS  =    2.430; RWIGS  =    1.286    wigner-seitz radius (au A)           
   ENMAX  =  269.532; ENMIN  =  202.149 eV                                      
   RCLOC  =    1.201    cutoff for local pot                                    
   LCOR   =        T    correct aug charges                                     
   LPAW   =        T    paw PP                                                  
   EAUG   =  544.565                                                            
   DEXC   =    0.000                                                            
   RMAX   =    2.357    core radius for proj-oper                               
   RAUG   =    1.300    factor for augmentation sphere                          
   RDEP   =    2.390    radius for radial grids                                 
   RDEPT  =    1.838    core radius for aug-charge                              
                                                                                
   Atomic configuration                                                         
    9 entries                                                                   
     n  l   j            E        occ.                                          
     1  0  0.50     -8206.4253   2.0000                                         
     2  0  0.50      -976.1748   2.0000                                         
     2  1  1.50      -839.0571   6.0000                                         
     3  0  0.50      -105.9991   2.0000                                         
     3  1  1.50       -66.4603   6.0000                                         
     3  2  2.50        -4.6458   9.0000                                         
     4  0  0.50        -4.4926   1.0000                                         
     4  1  1.50        -4.0817   0.0000                                         
     4  3  2.50        -1.3606   0.0000                                         
   Description                                                                  
     l       E           TYP  RCUT    TYP  RCUT                                 
     2     -4.6457903     23  2.300                                             
     2     -6.0063729     23  2.300                                             
     0     -4.4925590     23  2.300                                             
     0      5.0102601     23  2.300                                             
     1     -2.7211652     23  2.300                                             
     1     16.5183231     23  2.300                                             
  local pseudopotential read in
  partial core-charges read in
  partial kinetic energy density read in
  atomic valenz-charges read in
  non local Contribution for L=           2  read in
    real space projection operators read in
  non local Contribution for L=           2  read in
    real space projection operators read in
  non local Contribution for L=           0  read in
    real space projection operators read in
  non local Contribution for L=           0  read in
    real space projection operators read in
  non local Contribution for L=           1  read in
    real space projection operators read in
  non local Contribution for L=           1  read in
    real space projection operators read in
    PAW grid and wavefunctions read in
 
   number of l-projection  operators is LMAX  =           6
   number of lm-projection operators is LMMAX =          18
 
 POTCAR:    PAW_PBE Fe 06Sep2000                  
   VRHFIN =Fe:  d7 s1                                                           
   LEXCH  = PE                                                                  
   EATOM  =   594.3153 eV,   43.6809 Ry                                         
                                                                                
   TITEL  = PAW_PBE Fe 06Sep2000                                                
   LULTRA =        F    use ultrasoft PP ?                                      
   IUNSCR =        1    unscreen: 0-lin 1-nonlin 2-no                           
   RPACOR =    2.000    partial core radius                                     
   POMASS =   55.847; ZVAL   =    8.000    mass and valenz                      
   RCORE  =    2.300    outmost cutoff radius                                   
   RWIGS  =    2.460; RWIGS  =    1.302    wigner-seitz radius (au A)           
   ENMAX  =  267.882; ENMIN  =  200.911 eV                                      
   RCLOC  =    1.701    cutoff for local pot                                    
   LCOR   =        T    correct aug charges                                     
   LPAW   =        T    paw PP                                                  
   EAUG   =  511.368                                                            
   DEXC   =    0.000                                                            
   RMAX   =    2.356    core radius for proj-oper                               
   RAUG   =    1.300    factor for augmentation sphere                          
   RDEP   =    2.442    radius for radial grids                                 
   RDEPT  =    1.890    core radius for aug-charge                              
                                                                                
   Atomic configuration                                                         
    9 entries                                                                   
     n  l   j            E        occ.                                          
     1  0  0.50     -6993.8440   2.0000                                         
     2  0  0.50      -814.6047   2.0000                                         
     2  1  1.50      -693.3689   6.0000                                         
     3  0  0.50       -89.4732   2.0000                                         
     3  1  1.50       -55.6373   6.0000                                         
     3  2  2.50        -3.8151   7.0000                                         
     4  0  0.50        -4.2551   1.0000                                         
     4  1  1.50        -3.4015   0.0000                                         
     4  3  2.50        -1.3606   0.0000                                         
   Description                                                                  
     l       E           TYP  RCUT    TYP  RCUT                                 
     2     -3.8151135     23  2.300                                             
     2     -5.1756961     23  2.300                                             
     0     -4.2550963     23  2.300                                             
     0      7.2035603     23  2.300                                             
     1     -2.7211652     23  2.300                                             
     1     18.4316424     23  2.300                                             
  local pseudopotential read in
  partial core-charges read in
  partial kinetic energy density read in
  atomic valenz-charges read in
  non local Contribution for L=           2  read in
    real space projection operators read in
  non local Contribution for L=           2  read in
    real space projection operators read in
  non local Contribution for L=           0  read in
    real space projection operators read in
  non local Contribution for L=           0  read in
    real space projection operators read in
  non local Contribution for L=           1  read in
    real space projection operators read in
  non local Contribution for L=           1  read in
    real space projection operators read in
    PAW grid and wavefunctions read in
 
   number of l-projection  operators is LMAX  =           6
   number of lm-projection operators is LMMAX =          18
 

 ----------------------------------------------------------------------------- 
|                                                                             |
|  ADVICE TO THIS USER RUNNING 'VASP/VAMP'   (HEAR YOUR MASTER'S VOICE ...):  |
|                                                                             |
|      You have a (more or less) 'large supercell' and for larger cells       |
|      it might be more efficient to use real space projection opertators     |
|      So try LREAL= Auto  in the INCAR   file.                               |
|      Mind:          For very  accurate calculation you might also keep the  |
|      reciprocal projection scheme          (i.e. LREAL=.FALSE.)             |
|                                                                             |
 ----------------------------------------------------------------------------- 

  PAW_PBE C 08Apr2002                   :
 energy of atom  1       EATOM= -147.1560
 kinetic energy error for atom=    0.0076 (will be added to EATOM!!)
  PAW_PBE N 08Apr2002                   :
 energy of atom  2       EATOM= -264.5486
 kinetic energy error for atom=    0.0138 (will be added to EATOM!!)
  PAW_PBE Ni 02Aug2007                  :
 energy of atom  3       EATOM=-1077.6739
 kinetic energy error for atom=    0.0030 (will be added to EATOM!!)
  PAW_PBE Fe 06Sep2000                  :
 energy of atom  4       EATOM= -594.3153
 kinetic energy error for atom=    0.0026 (will be added to EATOM!!)
 
 
 POSCAR:  C  N Ni Fe                             
  positions in cartesian coordinates
  No initial velocities read in
 exchange correlation table for  LEXCH =        8
   RHO(1)=    0.500       N(1)  =     2000
   RHO(2)=  100.500       N(2)  =     4000

 VTST: version 3.2, (02/03/18)

 CHAIN: initializing optimizer
 
 OPT: Using VASP Conjugate-Gradient optimizer
 CHAIN: Read ICHAIN            0
 
 POSCAR:  C  N Ni Fe                             
  positions in cartesian coordinates
  No initial velocities read in
 


--------------------------------------------------------------------------------------------------------


 ion  position               nearest neighbor table
   1  0.222  0.999  0.500-   3 1.41  17 1.42   4 1.42
   2  0.055  0.099  0.500-  34 1.41   7 1.43   3 1.43
   3  0.110  1.000  0.500-   1 1.41  15 1.43   2 1.43
   4  0.278  0.097  0.500-  19 1.41   5 1.42   1 1.42
   5  0.222  0.196  0.500-   7 1.41   8 1.42   4 1.42
   6  0.057  0.299  0.500-  38 1.43   7 1.44  10 1.45
   7  0.110  0.198  0.500-   5 1.41   2 1.43   6 1.44
   8  0.279  0.293  0.500-  53 1.38   5 1.42  51 1.42
   9  0.063  0.499  0.500-  42 1.45  10 1.46  12 1.46
  10  0.118  0.397  0.500-  53 1.37   6 1.45   9 1.46
  11  0.058  0.700  0.500-  46 1.42  16 1.43  12 1.45
  12  0.118  0.601  0.500-  54 1.37  11 1.45   9 1.46
  13  0.276  0.704  0.500-  54 1.37  14 1.41  25 1.44
  14  0.222  0.802  0.500-  13 1.41  16 1.41  17 1.42
  15  0.056  0.900  0.500-  50 1.41  16 1.43   3 1.43
  16  0.111  0.800  0.500-  14 1.41  15 1.43  11 1.43
  17  0.278  0.900  0.500-  28 1.41   1 1.42  14 1.42
  18  0.556  0.998  0.500-  20 1.41  30 1.42  21 1.43
  19  0.389  0.097  0.500-   4 1.41  20 1.42  23 1.42
  20  0.445  0.998  0.500-  18 1.41  28 1.42  19 1.42
  21  0.612  0.097  0.500-  22 1.41  32 1.41  18 1.43
  22  0.557  0.195  0.500-  55 1.37  21 1.41  23 1.43
  23  0.444  0.196  0.500-  51 1.42  19 1.42  22 1.43
  24  0.555  0.605  0.500-  56 1.39  26 1.42  52 1.43  58 2.57
  25  0.390  0.702  0.500-  52 1.42  29 1.43  13 1.44
  26  0.611  0.703  0.500-  44 1.42  27 1.42  24 1.42
  27  0.556  0.801  0.500-  29 1.41  26 1.42  30 1.42
  28  0.389  0.900  0.500-  17 1.41  20 1.42  29 1.42
  29  0.444  0.801  0.500-  27 1.41  28 1.42  25 1.43
  30  0.612  0.900  0.500-  48 1.41  18 1.42  27 1.42
  31  0.889  1.000  0.500-  33 1.41  34 1.43  50 1.44
  32  0.723  0.099  0.500-  21 1.41  33 1.43  37 1.43
  33  0.778  0.999  0.500-  31 1.41  32 1.43  48 1.43
  34  0.943  0.100  0.500-   2 1.41  31 1.43  35 1.44
  35  0.888  0.201  0.500-  37 1.42  38 1.44  34 1.44
  36  0.716  0.298  0.500-  55 1.38  37 1.45  41 1.46
  37  0.776  0.200  0.500-  35 1.42  32 1.43  36 1.45
  38  0.944  0.301  0.500-   6 1.43  35 1.44  39 1.44
  39  0.887  0.400  0.500-  38 1.44  41 1.46  42 1.46
  40  0.717  0.503  0.500-  56 1.37  45 1.44  41 1.46
  41  0.772  0.400  0.500-  39 1.46  40 1.46  36 1.46
  42  0.948  0.499  0.500-  43 1.45   9 1.45  39 1.46
  43  0.891  0.599  0.500-  45 1.43  46 1.44  42 1.45
  44  0.723  0.701  0.500-  26 1.42  49 1.43  45 1.44
  45  0.778  0.600  0.500-  43 1.43  44 1.44  40 1.44
  46  0.946  0.699  0.500-  11 1.42  43 1.44  47 1.44
  47  0.890  0.799  0.500-  49 1.41  50 1.43  46 1.44
  48  0.723  0.900  0.500-  30 1.41  33 1.43  49 1.43
  49  0.779  0.800  0.500-  47 1.41  44 1.43  48 1.43
  50  0.944  0.900  0.500-  15 1.41  47 1.43  31 1.44
  51  0.391  0.296  0.500-  23 1.42   8 1.42  58 1.93
  52  0.442  0.601  0.500-  25 1.42  24 1.43  57 1.90  58 2.48
  53  0.227  0.390  0.500-  10 1.37   8 1.38  57 1.90
  54  0.226  0.607  0.500-  13 1.37  12 1.37  57 1.97
  55  0.607  0.292  0.500-  22 1.37  36 1.38  58 2.06
  56  0.609  0.509  0.500-  40 1.37  24 1.39  58 1.93
  57  0.335  0.495  0.500-  53 1.90  52 1.90  54 1.97  58 2.26
  58  0.493  0.410  0.501-  51 1.93  56 1.93  55 2.06  57 2.26  52 2.48  24 2.57
 
  LATTYP: Found a triclinic cell.
 ALAT       =    17.8033188971
 B/A-ratio  =     0.7042394776
 C/A-ratio  =     1.1240488426
 COS(alpha) =     0.0000994838
 COS(beta)  =     0.0004809228
 COS(gamma) =     0.7029919957
  
  Lattice vectors:
  
 A1 = (  12.6397080092, -12.5377807124,   0.0000000000)
 A2 = (  -0.0219919908, -12.5377807124,   0.0000000000)
 A3 = (   0.0115608959,  -0.0020111308, -20.0117965596)


Analysis of symmetry for initial positions (statically):
=====================================================================
 Subroutine PRICEL returns:
 Original cell was already a primitive cell.
 

 Routine SETGRP: Setting up the symmetry group for a 
 triclinic supercell.


 Subroutine GETGRP returns: Found  1 space group operations
 (whereof  1 operations were pure point group operations)
 out of a pool of  2 trial point group operations.


The static configuration has the point symmetry C_1 .


Analysis of symmetry for dynamics (positions and initial velocities):
=====================================================================
 Subroutine PRICEL returns:
 Original cell was already a primitive cell.
 

 Routine SETGRP: Setting up the symmetry group for a 
 triclinic supercell.


 Subroutine GETGRP returns: Found  1 space group operations
 (whereof  1 operations were pure point group operations)
 out of a pool of  2 trial point group operations.


The dynamic configuration has the point symmetry C_1 .


Analysis of structural, dynamic, and magnetic symmetry:
=====================================================================
 Subroutine PRICEL returns:
 Original cell was already a primitive cell.
 

 Routine SETGRP: Setting up the symmetry group for a 
 triclinic supercell.


 Subroutine GETGRP returns: Found  1 space group operations
 (whereof  1 operations were pure point group operations)
 out of a pool of  2 trial point group operations.


The magnetic configuration has the point symmetry C_1 .


 Subroutine INISYM returns: Found  1 space group operations
 (whereof  1 operations are pure point group operations),
 and found     1 'primitive' translations

 
 
 KPOINTS: KPOINTS created by Atomic Simulation Env

Automatic generation of k-mesh.
Space group operators:
 irot       det(A)        alpha          n_x          n_y          n_z        tau_x        tau_y        tau_z
    1     1.000000     0.000000     1.000000     0.000000     0.000000     0.000000     0.000000     0.000000
 
 Subroutine IBZKPT returns following result:
 ===========================================
 
 Found      2 irreducible k-points:
 
 Following reciprocal coordinates:
            Coordinates               Weight
  0.250000  0.250000 -0.000000      2.000000
 -0.250000  0.250000  0.000000      2.000000
 
 Following cartesian coordinates:
            Coordinates               Weight
  0.019745  0.019905  0.000009      2.000000
 -0.019745  0.019974 -0.000013      2.000000
 
 
 Subroutine IBZKPT_HF returns following result:
 ==============================================
 
 Found      4 k-points in 1st BZ
 the following      4 k-points will be used (e.g. in the exchange kernel)
 Following reciprocal coordinates:   # in IRBZ
  0.250000  0.250000 -0.000000    0.25000000   1 t-inv F
 -0.250000  0.250000  0.000000    0.25000000   2 t-inv F
 -0.250000 -0.250000  0.000000    0.25000000   1 t-inv T
  0.250000 -0.250000 -0.000000    0.25000000   2 t-inv T


--------------------------------------------------------------------------------------------------------




 Dimension of arrays:
   k-points           NKPTS =      2   k-points in BZ     NKDIM =      4   number of bands    NBANDS=    157
   number of dos      NEDOS =    301   number of ions     NIONS =     58
   non local maximal  LDIM  =      6   non local SUM 2l+1 LMDIM =     18
   total plane-waves  NPLWV = ******
   max r-space proj   IRMAX =      1   max aug-charges    IRDMAX=  15698
   dimension x,y,z NGX =    96 NGY =   96 NGZ =  150
   dimension x,y,z NGXF=   192 NGYF=  192 NGZF=  300
   support grid    NGXF=   192 NGYF=  192 NGZF=  300
   ions per type =              52   4   1   1
   NGX,Y,Z   is equivalent  to a cutoff of  12.60, 12.73, 12.46 a.u.
   NGXF,Y,Z  is equivalent  to a cutoff of  25.21, 25.46, 24.92 a.u.

 SYSTEM =  unknown system                          
 POSCAR =   C  N Ni Fe                             

 Startparameter for this run:
   NWRITE =      2    write-flag & timer
   PREC   = accura    normal or accurate (medium, high low for compatibility)
   ISTART =      1    job   : 0-new  1-cont  2-samecut
   ICHARG =      0    charge: 1-file 2-atom 10-const
   ISPIN  =      2    spin polarized calculation?
   LNONCOLLINEAR =      F non collinear calculations
   LSORBIT =      F    spin-orbit coupling
   INIWAV =      1    electr: 0-lowe 1-rand  2-diag
   LASPH  =      T    aspherical Exc in radial PAW
   METAGGA=      F    non-selfconsistent MetaGGA calc.

 Electronic Relaxation 1
   ENCUT  =  500.0 eV  36.75 Ry    6.06 a.u.  23.09 22.86 36.49*2*pi/ulx,y,z
   ENINI  =  500.0     initial cutoff
   ENAUG  =  644.9 eV  augmentation charge cutoff
   NELM   =    250;   NELMIN=  2; NELMDL=  0     # of ELM steps 
   EDIFF  = 0.1E-03   stopping-criterion for ELM
   LREAL  =      F    real-space projection
   NLSPLINE    = F    spline interpolate recip. space projectors
   LCOMPAT=      F    compatible to vasp.4.4
   GGA_COMPAT  = T    GGA compatible to vasp.4.4-vasp.4.6
   LMAXPAW     = -100 max onsite density
   LMAXMIX     =    2 max onsite mixed and CHGCAR
   VOSKOWN=      0    Vosko Wilk Nusair interpolation
   ROPT   =    0.00000   0.00000   0.00000   0.00000
 Ionic relaxation
   EDIFFG = -.3E-01   stopping-criterion for IOM
   NSW    =      0    number of steps for IOM
   NBLOCK =      1;   KBLOCK =      1    inner block; outer block 
   IBRION =     -1    ionic relax: 0-MD 1-quasi-New 2-CG
   NFREE  =      1    steps in history (QN), initial steepest desc. (CG)
   ISIF   =      2    stress and relaxation
   IWAVPR =     10    prediction:  0-non 1-charg 2-wave 3-comb
   ISYM   =      3    0-nonsym 1-usesym 2-fastsym
   LCORR  =      T    Harris-Foulkes like correction to forces

   POTIM  = 0.5000    time-step for ionic-motion
   TEIN   =    0.0    initial temperature
   TEBEG  =    0.0;   TEEND  =   0.0 temperature during run
   SMASS  =  -3.00    Nose mass-parameter (am)
   estimated Nose-frequenzy (Omega)   =  0.10E-29 period in steps =****** mass=  -0.366E-26a.u.
   SCALEE = 1.0000    scale energy and forces
   NPACO  =    256;   APACO  = 16.0  distance and # of slots for P.C.
   PSTRESS=    0.0 pullay stress

  Mass of Ions in am
   POMASS =  12.01 14.00 58.69 55.85
  Ionic Valenz
   ZVAL   =   4.00  5.00 10.00  8.00
  Atomic Wigner-Seitz radii
   RWIGS  =  -1.00 -1.00 -1.00 -1.00
  virtual crystal weights 
   VCA    =   1.00  1.00  1.00  1.00
   NELECT =     246.0000    total number of electrons
   NUPDOWN=      -1.0000    fix difference up-down

 DOS related values:
   EMIN   =  10.00;   EMAX   =-10.00  energy-range for DOS
   EFERMI =   0.00
   ISMEAR =     0;   SIGMA  =   0.10  broadening in eV -4-tet -1-fermi 0-gaus

 Electronic relaxation 2 (details)
   IALGO  =     53    algorithm
   LDIAG  =      T    sub-space diagonalisation (order eigenvalues)
   LSUBROT=      F    optimize rotation matrix (better conditioning)
   TURBO    =      0    0=normal 1=particle mesh
   IRESTART =      0    0=no restart 2=restart with 2 vectors
   NREBOOT  =      0    no. of reboots
   NMIN     =      0    reboot dimension
   EREF     =   0.00    reference energy to select bands
   IMIX   =      4    mixing-type and parameters
     AMIX     =   0.40;   BMIX     =  1.00
     AMIX_MAG =   1.60;   BMIX_MAG =  1.00
     AMIN     =   0.10
     WC   =   100.;   INIMIX=   1;  MIXPRE=   1;  MAXMIX= -45

 Intra band minimization:
   WEIMIN = 0.0000     energy-eigenvalue tresh-hold
   EBREAK =  0.16E-06  absolut break condition
   DEPER  =   0.30     relativ break condition  

   TIME   =   0.20     timestep for ELM

  volume/ion in A,a.u.               =      54.77       369.63
  Fermi-wavevector in a.u.,A,eV,Ry     =   0.697783  1.318618  6.624689  0.486901
  Thomas-Fermi vector in A             =   1.781206
 
 Write flags
   LWAVE        =      T    write WAVECAR
   LDOWNSAMPLE  =      F    k-point downsampling of WAVECAR
   LCHARG       =      T    write CHGCAR
   LVTOT        =      F    write LOCPOT, total local potential
   LVHAR        =      F    write LOCPOT, Hartree potential only
   LELF         =      F    write electronic localiz. function (ELF)
   LORBIT       =     11    0 simple, 1 ext, 2 COOP (PROOUT), +10 PAW based schemes


 Dipole corrections
   LMONO  =      F    monopole corrections only (constant potential shift)
   LDIPOL =      T    correct potential (dipole corrections)
   IDIPOL =      3    1-x, 2-y, 3-z, 4-all directions 
   EPSILON=  1.0000000 bulk dielectric constant

 Exchange correlation treatment:
   GGA     =    PE    GGA type
   LEXCH   =     8    internal setting for exchange type
   VOSKOWN=      0    Vosko Wilk Nusair interpolation
   EXXOEP  =     0    0=HF, 1=EXX-LHF (local Hartree Fock) 2=EXX OEP
   LHFCALC =     T    Hartree Fock is set to
   LSYMGRAD=     F    symmetrize gradient (conserves proper symmetry)
   PRECFOCK=normal    Normal, Fast or Accurate (Low or Medium for compatibility)
   LRHFCALC=     F    long range Hartree Fock
   LRSCOR  =     F    long range correlation only (use DFT for short range part)
   LTHOMAS =     F    Thomas Fermi screening in HF
   LMODELHF=     F    short range full HF, long range fraction AEXX
   ENCUT4O =  -1.0   cutoff for four orbital integrals eV
   LMAXFOCK=     4    L truncation for augmentation on plane wave grid
   LMAXFOCKAE=  -1    L truncation for all-electron charge restoration on plane wave grid
   NMAXFOCKAE=   1    number of basis functions for all-electron charge restoration
   LFOCKAEDFT=     F  apply the AE augmentation even for DFT
   NKREDX  =     1    reduce k-point grid by
   NKREDY  =     1    reduce k-point grid by
   NKREDZ  =     1    reduce k-point grid by
   SHIFTRED=     F    shift reduced grid of Gamma
   HFKIDENT=     F    idential grid for each k-point
   ODDONLY =     F    use only odd q-grid points
   EVENONLY=     F    use only even q-grid points
   HFALPHA =   -1.0000 decay constant for conv. correction
   MCALPHA =    0.0000 extent of test-charge in conv. correction in multipole expansion
   AEXX    =    0.2500 exact exchange contribution
   HFSCREEN=    0.2000 screening length (either q_TF or 0.3 A-1)
   HFSCREENC=   0.2000 screening length for correlation (either q_TF or 0.3 A-1)
   HFRCUT  =    0.0000 spherical cutoff for potential kernel
   ALDAX   =    0.7500 LDA exchange part
   AGGAX   =    0.7500 GGA exchange part
   ALDAC   =    1.0000 LDA correlation
   AGGAC   =    1.0000 GGA correlation
   ENCUTFOCK=  -1.0 apply spherical cutoff to Coloumb kernel
   NBANDSGWLOW=     1    first orbital included in HF term
   NBLOCK_FOCK=    64    blocking factor in FOCK_ACC
 Linear response parameters
   LEPSILON=     F    determine dielectric tensor
   LRPA    =     F    only Hartree local field effects (RPA)
   LNABLA  =     F    use nabla operator in PAW spheres
   LVEL    =     F    velocity operator in full k-point grid
   LINTERFAST=   F  fast interpolation
   KINTER  =     0    interpolate to denser k-point grid
   CSHIFT  =0.1000    complex shift for real part using Kramers Kronig
   OMEGAMAX=  -1.0    maximum frequency
   DEG_THRESHOLD= 0.2000000E-02 threshold for treating states as degnerate
   RTIME   =   -0.100 relaxation time in fs
  (WPLASMAI=    0.000 imaginary part of plasma frequency in eV, 0.658/RTIME)
   DFIELD  = 0.0000000 0.0000000 0.0000000 field for delta impulse in time
 
 Orbital magnetization related:
   ORBITALMAG=     F  switch on orbital magnetization
   LCHIMAG   =     F  perturbation theory with respect to B field
   DQ        =  0.001000  dq finite difference perturbation B field
   LLRAUG    =     F  two centre corrections for induced B field



--------------------------------------------------------------------------------------------------------


 Static calculation
 charge density and potential will be updated during run
 spin polarized calculation
 Conjugate gradient for all bands (Freysoldt, et al. PRB 79, 241103 (2009))
 perform sub-space diagonalisation
    before iterative eigenvector-optimisation
 modified Broyden-mixing scheme, WC =      100.0
 initial mixing is a Kerker type mixing with AMIX =  0.4000 and BMIX =      1.0000
 Hartree-type preconditioning will be used
 using additional bands           34
 reciprocal scheme for non local part
 use partial core corrections
 no Harris-corrections to forces 
 use gradient corrections 
 use of overlap-Matrix (Vanderbilt PP)
 Gauss-broadening in eV      SIGMA  =   0.10


--------------------------------------------------------------------------------------------------------


  energy-cutoff  :      500.00
  volume of cell :     3176.87
      direct lattice vectors                 reciprocal lattice vectors
    12.661700000  0.000000000  0.000000000     0.078978336 -0.000138533  0.000045640
     0.021991991 12.537780712  0.000000000     0.000000000  0.079758932 -0.000008016
    -0.011560896  0.002011131 20.011796560     0.000000000  0.000000000  0.049970526

  length of vectors
    12.661700000 12.537800000 20.011800000     0.078978471  0.079758932  0.049970526


 
 old parameters found on file WAVECAR:
  energy-cutoff  :      500.00
  volume of cell :     3176.87
      direct lattice vectors                 reciprocal lattice vectors
    12.661700000  0.000000000  0.000000000     0.078978336 -0.000138533  0.000045640
     0.021991991 12.537780712  0.000000000     0.000000000  0.079758932 -0.000008016
    -0.011560896  0.002011131 20.011796560     0.000000000  0.000000000  0.049970526

  length of vectors

 
 k-points in units of 2pi/SCALE and weight: KPOINTS created by Atomic Simulation Env
   0.01974458  0.01990510  0.00000941       0.500
  -0.01974458  0.01997437 -0.00001341       0.500
 
 k-points in reciprocal lattice and weights: KPOINTS created by Atomic Simulation Env
   0.25000000  0.25000000 -0.00000000       0.500
  -0.25000000  0.25000000  0.00000000       0.500
 
 position of ions in fractional coordinates (direct lattice) 
   0.22201280  0.99887701  0.50000050
   0.05488703  0.09918059  0.49997231
   0.11031857  0.99953487  0.49997714
   0.27768165  0.09718142  0.50003675
   0.22213239  0.19571321  0.50007250
   0.05688826  0.29928152  0.49997946
   0.11048845  0.19831187  0.49999042
   0.27893254  0.29330490  0.50022648
   0.06265907  0.49870068  0.49996331
   0.11839264  0.39657244  0.49998751
   0.05785827  0.69954339  0.50001045
   0.11784165  0.60123673  0.50000612
   0.27630968  0.70366517  0.50007638
   0.22198209  0.80181628  0.50008146
   0.05550202  0.89985096  0.49998444
   0.11067885  0.80034510  0.50003614
   0.27757580  0.90046579  0.50003744
   0.55616284  0.99825011  0.49986268
   0.38927931  0.09695077  0.50002681
   0.44464864  0.99816469  0.49992680
   0.61172004  0.09712434  0.49987394
   0.55709517  0.19502538  0.50007686
   0.44415193  0.19588661  0.50020362
   0.55474461  0.60539365  0.50017068
   0.38966218  0.70167721  0.50007499
   0.61143165  0.70309589  0.50000186
   0.55598509  0.80144981  0.49993813
   0.38904733  0.89988374  0.49998486
   0.44441473  0.80089843  0.49999980
   0.61169620  0.89996724  0.49988683
   0.88921223  0.99969961  0.49998371
   0.72299687  0.09890026  0.49990045
   0.77805806  0.99938995  0.49994262
   0.94320388  0.10015412  0.49998091
   0.88813278  0.20075623  0.49997206
   0.71557051  0.29834948  0.50009476
   0.77567903  0.20008886  0.49995556
   0.94379748  0.30072782  0.49998133
   0.88667938  0.40030928  0.50000857
   0.71714270  0.50281288  0.50019750
   0.77176255  0.40039053  0.50011992
   0.94790980  0.49874238  0.49996664
   0.89070588  0.59857183  0.49995395
   0.72337859  0.70071534  0.49997988
   0.77795781  0.60011972  0.50001476
   0.94568544  0.69877290  0.49995623
   0.89036670  0.79911744  0.49995219
   0.72326691  0.89961440  0.49992418
   0.77868109  0.79989521  0.49994196
   0.94438477  0.89960875  0.49997152
   0.39124742  0.29561983  0.50047319
   0.44210535  0.60142559  0.50013897
   0.22672894  0.39022171  0.50008760
   0.22597573  0.60727264  0.50001725
   0.60652184  0.29243172  0.50025260
   0.60940317  0.50928374  0.50042110
   0.33494007  0.49509093  0.50005888
   0.49261353  0.41018702  0.50079503
 
 position of ions in cartesian coordinates  (Angst):
   2.82724635 12.52470650 10.00590829
   0.69136415  1.24451003 10.00534424
   1.41302222 12.53295451 10.00544075
   3.51227813  1.21944491 10.00663372
   2.81109652  2.45481502 10.00734923
   0.72110365  3.75333161 10.00548722
   1.39755258  2.48739633 10.00570651
   3.53242739  3.67839848 10.01043060
   0.79855772  6.25360531 10.00516411
   1.50199326  4.97314383 10.00564842
   0.74218780  8.77172716 10.00610735
   1.49951754  7.53917981 10.00602080
   3.50824389  8.82340534 10.00742674
   2.82252280 10.05400248 10.00752844
   0.71675915 11.28313959 10.00558682
   1.41320268 10.03555704 10.00662159
   3.52860370 11.29084826 10.00664755
   7.05814167 12.51684632 10.00315033
   4.92528918  1.21655309 10.00643485
   5.64617971 12.51577542 10.00443334
   7.74177257  1.21872895 10.00337565
   7.05227963  2.44619123 10.00743635
   5.62224362  2.45698933 10.00997312
   7.03154124  7.59129871 10.00931382
   4.94343557  8.79848066 10.00739894
   7.75144612  8.81626768 10.00593557
   7.05156212 10.04940744 10.00466022
   4.94001059 11.28355054 10.00559532
   5.63887894 10.04249446 10.00589419
   7.75912669 11.28459719 10.00363353
  11.27514364 12.53502008 10.00557228
   9.15076513  1.24099514 10.00390613
   9.86773650 12.53113750 10.00474991
  11.93898697  1.25671586 10.00551618
  11.24390576  2.51804305 10.00533918
   9.06111882  3.74164605 10.00779469
   9.82003561  2.50967574 10.00500897
  11.95091392  3.77146505 10.00552476
  11.22989140  5.01999556 10.00606970
   9.08552085  6.30516359 10.00985054
   9.77484943  5.02101453 10.00829803
  12.00733779  6.25412813 10.00523075
  11.28523447  7.50576784 10.00497681
   9.16883266  8.78642083 10.00549563
   9.85768559  7.52517500 10.00619359
  11.98357284  8.76206689 10.00502232
  11.28535031 10.02016465 10.00494156
   9.17179338 11.28017346 10.00438108
   9.87123789 10.02991625 10.00473679
  11.97152069 11.28010277 10.00532827
   4.95457284  3.70742316 10.01536773
   5.60524981  7.54154802 10.00867937
   2.87357410  4.89352003 10.00765122
   2.86881138  7.61485680 10.00624341
   7.68024538  3.66745086 10.01095325
   7.72149496  6.38629422 10.01432529
   4.24601759  6.20834722 10.00707652
   6.24055589  5.14384211 10.02180827
 


--------------------------------------------------------------------------------------------------------


 k-point  1 :   0.2500 0.2500-0.0000  plane waves:   80657
 k-point  2 :  -0.2500 0.2500 0.0000  plane waves:   80666

 maximum and minimum number of plane-waves per node :      2554     2481

 maximum number of plane-waves:     80666
 maximum index in each direction: 
   IXMAX=   23   IYMAX=   22   IZMAX=   36
   IXMIN=  -23   IYMIN=  -23   IZMIN=  -36


 parallel 3D FFT for wavefunctions:
    minimum data exchange during FFTs selected (reduces bandwidth)
 parallel 3D FFT for charge:
    minimum data exchange during FFTs selected (reduces bandwidth)


 FFT grid for exact exchange (Hartree Fock) 
  NGX = 70; NGY = 70; NGZ =112

 
 Radii for the augmentation spheres in the non-local exchange
 for species   1 augmentation radius   0.874 (default was   0.699)
       energy cutoff for augmentation   2000.0
 for species   2 augmentation radius   0.886 (default was   0.709)
       energy cutoff for augmentation   2000.0
 for species   3 augmentation radius   1.224 (default was   0.979)
       energy cutoff for augmentation   2000.0
 for species   4 augmentation radius   1.263 (default was   1.010)
       energy cutoff for augmentation   2000.0

 real space projection operators:
  total allocation   :       2427.51 KBytes
  max/ min on nodes  :        109.30         40.36

 Maximum index for augmentation-charges in exchange          137
  SETUP_FOCK is finished

 total amount of memory used by VASP MPI-rank0   166130. kBytes
=======================================================================

   base      :      30000. kBytes
   nonl-proj :       5328. kBytes
   fftplans  :      14250. kBytes
   grid      :      36827. kBytes
   one-center:         62. kBytes
   HF        :         23. kBytes
   nonlr-proj:       1628. kBytes
   wavefun   :      78012. kBytes
 
     INWAV:  cpu time    3.6216: real time    3.6228
 Broyden mixing: mesh for mixing (old mesh)
   NGX = 47   NGY = 45   NGZ = 73
  (NGX  =192   NGY  =192   NGZ  =300)
  gives a total of 154395 points

 charge density for first step will be calculated from the start-wavefunctions


--------------------------------------------------------------------------------------------------------


 Maximum index for augmentation-charges          730 (set IRDMAX)


--------------------------------------------------------------------------------------------------------


 initial charge from wavefunction
 First call to EWALD:  gamma=   0.121
 Maximum number of real-space cells 3x 3x 2
 Maximum number of reciprocal cells 2x 2x 4

    FEWALD:  cpu time    0.0030: real time    0.0030


--------------------------------------- Iteration      1(   1)  ---------------------------------------


    POTLOK:  cpu time    1.3864: real time    1.3872
    SETDIJ:  cpu time    2.0836: real time    2.0899
    TRIAL :  cpu time  530.2857: real time  530.4438
    CORREC:  cpu time    0.0022: real time    0.0024
    CHARGE:  cpu time    1.6880: real time    1.6882
    --------------------------------------------
      LOOP:  cpu time  535.4619: real time  535.6307

 eigenvalue-minimisations  :     0
 total energy-change (2. order) :-0.6042679E+03  (-0.4841455E+00)
 number of electron     245.9999996 magnetization       3.1269943
 augmentation part       16.0891335 magnetization       2.3442976

 DIPCOR: dipole corrections for dipol
 direction  3 min pos     1,
 dipolmoment           0.000001     -0.000000     -0.001493 electrons x Angstroem
 Tr[quadrupol]     -6640.964475

 energy correction for charged system         0.000000 eV
 dipol+quadrupol energy correction            0.000000 eV
 added-field ion interaction          0.000000 eV  (added to PSCEN)


 Free energy of the ion-electron system (eV)
  ---------------------------------------------------
  alpha Z        PSCENC =       100.00674866
  Ewald energy   TEWEN  =     40009.47965198
  -Hartree energ DENC   =    -48900.19415907
  -exchange      EXHF   =       559.88455319
  -V(xc)+E(xc)   XCENC  =       637.27967256
  PAW double counting   =     26851.41026585   -26952.31531505
  entropy T*S    EENTRO =        -0.04715406
  eigenvalues    EBANDS =     -3179.82028882
  atomic energy  EATOM  =     10270.04882705
  ---------------------------------------------------
  free energy    TOTEN  =      -604.26794695 eV

  energy without entropy =     -604.22079289  energy(sigma->0) =     -604.24436992
  exchange ACFDT corr.  =        -0.05433450  see jH, gK, PRB 81, 115126


--------------------------------------------------------------------------------------------------------




--------------------------------------- Iteration      1(   2)  ---------------------------------------


    POTLOK:  cpu time    1.3954: real time    1.3958
    SETDIJ:  cpu time    2.0854: real time    2.0857
    TRIAL :  cpu time  528.4185: real time  528.5732
    CORREC:  cpu time    0.0022: real time    0.0025
    CHARGE:  cpu time    1.6789: real time    1.6792
    --------------------------------------------
      LOOP:  cpu time  533.5834: real time  533.7400

 eigenvalue-minimisations  :     0
 total energy-change (2. order) :-0.3661176E+00  (-0.4305019E+00)
 number of electron     245.9999996 magnetization       3.1277239
 augmentation part       16.0706632 magnetization       2.3845672

 DIPCOR: dipole corrections for dipol
 direction  3 min pos     1,
 dipolmoment           0.000001     -0.000000     -0.002025 electrons x Angstroem
 Tr[quadrupol]     -6640.813168

 energy correction for charged system         0.000000 eV
 dipol+quadrupol energy correction            0.000000 eV
 added-field ion interaction          0.000000 eV  (added to PSCEN)


 Free energy of the ion-electron system (eV)
  ---------------------------------------------------
  alpha Z        PSCENC =       100.00674871
  Ewald energy   TEWEN  =     40009.47965198
  -Hartree energ DENC   =    -48891.65151918
  -exchange      EXHF   =       559.86826664
  -V(xc)+E(xc)   XCENC  =       637.05753886
  PAW double counting   =     26979.95485974   -27081.62954570
  entropy T*S    EENTRO =        -0.04600376
  eigenvalues    EBANDS =     -3187.72173862
  atomic energy  EATOM  =     10270.04882705
  ---------------------------------------------------
  free energy    TOTEN  =      -604.63406459 eV

  energy without entropy =     -604.58806083  energy(sigma->0) =     -604.61106271
  exchange ACFDT corr.  =        -0.05050069  see jH, gK, PRB 81, 115126


--------------------------------------------------------------------------------------------------------




--------------------------------------- Iteration      1(   3)  ---------------------------------------


    POTLOK:  cpu time    1.4046: real time    1.4049
    SETDIJ:  cpu time    2.0783: real time    2.0787
    TRIAL :  cpu time  527.8571: real time  527.9918
    CORREC:  cpu time    0.0023: real time    0.0025
    CHARGE:  cpu time    1.6776: real time    1.6778
    --------------------------------------------
      LOOP:  cpu time  533.0226: real time  533.1583

 eigenvalue-minimisations  :     0
 total energy-change (2. order) :-0.3242050E+00  (-0.2404500E+00)
 number of electron     245.9999996 magnetization       3.1621165
 augmentation part       16.0467772 magnetization       2.4226345

 DIPCOR: dipole corrections for dipol
 direction  3 min pos     1,
 dipolmoment           0.000001     -0.000000     -0.001639 electrons x Angstroem
 Tr[quadrupol]     -6640.633976

 energy correction for charged system         0.000000 eV
 dipol+quadrupol energy correction            0.000000 eV
 added-field ion interaction          0.000000 eV  (added to PSCEN)


 Free energy of the ion-electron system (eV)
  ---------------------------------------------------
  alpha Z        PSCENC =       100.00674867
  Ewald energy   TEWEN  =     40009.47965198
  -Hartree energ DENC   =    -48875.29033067
  -exchange      EXHF   =       559.77215969
  -V(xc)+E(xc)   XCENC  =       636.63586384
  PAW double counting   =     27134.86905158   -27235.65187314
  entropy T*S    EENTRO =        -0.04493870
  eigenvalues    EBANDS =     -3204.78236478
  atomic energy  EATOM  =     10270.04882705
  ---------------------------------------------------
  free energy    TOTEN  =      -604.95826954 eV

  energy without entropy =     -604.91333084  energy(sigma->0) =     -604.93580019
  exchange ACFDT corr.  =        -0.04475473  see jH, gK, PRB 81, 115126


--------------------------------------------------------------------------------------------------------




--------------------------------------- Iteration      1(   4)  ---------------------------------------


    POTLOK:  cpu time    1.4057: real time    1.4062
    SETDIJ:  cpu time    2.0856: real time    2.0859
    TRIAL :  cpu time  526.3395: real time  526.4951
    CORREC:  cpu time    0.0023: real time    0.0025
    CHARGE:  cpu time    1.6842: real time    1.6846
    --------------------------------------------
      LOOP:  cpu time  531.5195: real time  531.6766

 eigenvalue-minimisations  :     0
 total energy-change (2. order) :-0.1830284E+00  (-0.1449720E+00)
 number of electron     245.9999996 magnetization       3.1975818
 augmentation part       16.0528973 magnetization       2.4443250

 DIPCOR: dipole corrections for dipol
 direction  3 min pos     1,
 dipolmoment           0.000001     -0.000000     -0.001773 electrons x Angstroem
 Tr[quadrupol]     -6640.554734

 energy correction for charged system         0.000000 eV
 dipol+quadrupol energy correction            0.000000 eV
 added-field ion interaction          0.000000 eV  (added to PSCEN)


 Free energy of the ion-electron system (eV)
  ---------------------------------------------------
  alpha Z        PSCENC =       100.00674868
  Ewald energy   TEWEN  =     40009.47965198
  -Hartree energ DENC   =    -48866.60399603
  -exchange      EXHF   =       559.88535808
  -V(xc)+E(xc)   XCENC  =       636.45120207
  PAW double counting   =     27269.59500539   -27369.66627747
  entropy T*S    EENTRO =        -0.04384487
  eigenvalues    EBANDS =     -3214.29287900
  atomic energy  EATOM  =     10270.04882705
  ---------------------------------------------------
  free energy    TOTEN  =      -605.14129794 eV

  energy without entropy =     -605.09745306  energy(sigma->0) =     -605.11937550
  exchange ACFDT corr.  =        -0.04096948  see jH, gK, PRB 81, 115126


--------------------------------------------------------------------------------------------------------




--------------------------------------- Iteration      1(   5)  ---------------------------------------


    POTLOK:  cpu time    1.4035: real time    1.4038
    SETDIJ:  cpu time    2.0826: real time    2.0830
    TRIAL :  cpu time  525.7731: real time  525.9065
    CORREC:  cpu time    0.0022: real time    0.0025
    CHARGE:  cpu time    1.6747: real time    1.6751
    --------------------------------------------
      LOOP:  cpu time  530.9385: real time  531.0731

 eigenvalue-minimisations  :     0
 total energy-change (2. order) :-0.1137717E+00  (-0.9211331E-01)
 number of electron     245.9999996 magnetization       3.2211851
 augmentation part       16.0705680 magnetization       2.4518851

 DIPCOR: dipole corrections for dipol
 direction  3 min pos     1,
 dipolmoment           0.000001     -0.000000     -0.002015 electrons x Angstroem
 Tr[quadrupol]     -6640.584105

 energy correction for charged system         0.000000 eV
 dipol+quadrupol energy correction            0.000000 eV
 added-field ion interaction          0.000000 eV  (added to PSCEN)


 Free energy of the ion-electron system (eV)
  ---------------------------------------------------
  alpha Z        PSCENC =       100.00674871
  Ewald energy   TEWEN  =     40009.47965198
  -Hartree energ DENC   =    -48868.40256368
  -exchange      EXHF   =       560.18283908
  -V(xc)+E(xc)   XCENC  =       636.52988838
  PAW double counting   =     27372.00141048   -27472.20144315
  entropy T*S    EENTRO =        -0.04275446
  eigenvalues    EBANDS =     -3212.85658360
  atomic energy  EATOM  =     10270.04882705
  ---------------------------------------------------
  free energy    TOTEN  =      -605.25506963 eV

  energy without entropy =     -605.21231517  energy(sigma->0) =     -605.23369240
  exchange ACFDT corr.  =        -0.03811729  see jH, gK, PRB 81, 115126


--------------------------------------------------------------------------------------------------------




--------------------------------------- Iteration      1(   6)  ---------------------------------------


    POTLOK:  cpu time    1.4023: real time    1.4026
    SETDIJ:  cpu time    2.0813: real time    2.0817
    TRIAL :  cpu time  526.1341: real time  526.2263
    CORREC:  cpu time    0.0022: real time    0.0025
    CHARGE:  cpu time    1.6879: real time    1.6881
    --------------------------------------------
      LOOP:  cpu time  531.3098: real time  531.4031

 eigenvalue-minimisations  :     0
 total energy-change (2. order) :-0.7701101E-01  (-0.6336505E-01)
 number of electron     245.9999996 magnetization       3.2439513
 augmentation part       16.0805928 magnetization       2.4528292

 DIPCOR: dipole corrections for dipol
 direction  3 min pos     1,
 dipolmoment           0.000001     -0.000000     -0.001982 electrons x Angstroem
 Tr[quadrupol]     -6640.649824

 energy correction for charged system         0.000000 eV
 dipol+quadrupol energy correction            0.000000 eV
 added-field ion interaction          0.000000 eV  (added to PSCEN)


 Free energy of the ion-electron system (eV)
  ---------------------------------------------------
  alpha Z        PSCENC =       100.00674871
  Ewald energy   TEWEN  =     40009.47965198
  -Hartree energ DENC   =    -48873.37304345
  -exchange      EXHF   =       560.49391320
  -V(xc)+E(xc)   XCENC  =       636.67691949
  PAW double counting   =     27440.91694319   -27541.34929419
  entropy T*S    EENTRO =        -0.04174265
  eigenvalues    EBANDS =     -3208.18999216
  atomic energy  EATOM  =     10270.04882705
  ---------------------------------------------------
  free energy    TOTEN  =      -605.33208065 eV

  energy without entropy =     -605.29033800  energy(sigma->0) =     -605.31120932
  exchange ACFDT corr.  =        -0.03562704  see jH, gK, PRB 81, 115126


--------------------------------------------------------------------------------------------------------




--------------------------------------- Iteration      1(   7)  ---------------------------------------


    POTLOK:  cpu time    1.3994: real time    1.3995
    SETDIJ:  cpu time    2.0864: real time    2.0866
    TRIAL :  cpu time  526.6628: real time  526.7249
    CORREC:  cpu time    0.0022: real time    0.0025
    CHARGE:  cpu time    1.6784: real time    1.6785
    --------------------------------------------
      LOOP:  cpu time  531.8316: real time  531.8943

 eigenvalue-minimisations  :     0
 total energy-change (2. order) :-0.5380093E-01  (-0.4422845E-01)
 number of electron     245.9999996 magnetization       3.2694055
 augmentation part       16.0832358 magnetization       2.4511789

 DIPCOR: dipole corrections for dipol
 direction  3 min pos     1,
 dipolmoment           0.000001     -0.000000     -0.001900 electrons x Angstroem
 Tr[quadrupol]     -6640.701778

 energy correction for charged system         0.000000 eV
 dipol+quadrupol energy correction            0.000000 eV
 added-field ion interaction          0.000000 eV  (added to PSCEN)


 Free energy of the ion-electron system (eV)
  ---------------------------------------------------
  alpha Z        PSCENC =       100.00674870
  Ewald energy   TEWEN  =     40009.47965198
  -Hartree energ DENC   =    -48877.07332983
  -exchange      EXHF   =       560.73353060
  -V(xc)+E(xc)   XCENC  =       636.79254603
  PAW double counting   =     27482.17161168   -27582.63176928
  entropy T*S    EENTRO =        -0.04081959
  eigenvalues    EBANDS =     -3204.87195586
  atomic energy  EATOM  =     10270.04882705
  ---------------------------------------------------
  free energy    TOTEN  =      -605.38588158 eV

  energy without entropy =     -605.34506199  energy(sigma->0) =     -605.36547179
  exchange ACFDT corr.  =        -0.03365347  see jH, gK, PRB 81, 115126


--------------------------------------------------------------------------------------------------------




--------------------------------------- Iteration      1(   8)  ---------------------------------------


    POTLOK:  cpu time    1.3967: real time    1.3968
    SETDIJ:  cpu time    2.0832: real time    2.0834
    TRIAL :  cpu time  526.1569: real time  526.2269
    CORREC:  cpu time    0.0020: real time    0.0023
    CHARGE:  cpu time    1.6804: real time    1.6805
    --------------------------------------------
      LOOP:  cpu time  531.3213: real time  531.3919

 eigenvalue-minimisations  :     0
 total energy-change (2. order) :-0.3840431E-01  (-0.3140350E-01)
 number of electron     245.9999996 magnetization       3.2935160
 augmentation part       16.0857390 magnetization       2.4487738

 DIPCOR: dipole corrections for dipol
 direction  3 min pos     1,
 dipolmoment           0.000001     -0.000000     -0.001915 electrons x Angstroem
 Tr[quadrupol]     -6640.729292

 energy correction for charged system         0.000000 eV
 dipol+quadrupol energy correction            0.000000 eV
 added-field ion interaction          0.000000 eV  (added to PSCEN)


 Free energy of the ion-electron system (eV)
  ---------------------------------------------------
  alpha Z        PSCENC =       100.00674870
  Ewald energy   TEWEN  =     40009.47965198
  -Hartree energ DENC   =    -48879.07247647
  -exchange      EXHF   =       560.89703546
  -V(xc)+E(xc)   XCENC  =       636.86657071
  PAW double counting   =     27504.44763389   -27604.87489286
  entropy T*S    EENTRO =        -0.03997781
  eigenvalues    EBANDS =     -3203.18256476
  atomic energy  EATOM  =     10270.04882705
  ---------------------------------------------------
  free energy    TOTEN  =      -605.42428589 eV

  energy without entropy =     -605.38430808  energy(sigma->0) =     -605.40429698
  exchange ACFDT corr.  =        -0.03213652  see jH, gK, PRB 81, 115126


--------------------------------------------------------------------------------------------------------




--------------------------------------- Iteration      1(   9)  ---------------------------------------


    POTLOK:  cpu time    1.3899: real time    1.3902
    SETDIJ:  cpu time    2.0799: real time    2.0828
    TRIAL :  cpu time  526.3255: real time  526.3855
    CORREC:  cpu time    0.0022: real time    0.0025
    CHARGE:  cpu time    1.6761: real time    1.6763
    --------------------------------------------
      LOOP:  cpu time  531.4758: real time  531.5395

 eigenvalue-minimisations  :     0
 total energy-change (2. order) :-0.2760983E-01  (-0.2267996E-01)
 number of electron     245.9999996 magnetization       3.3152247
 augmentation part       16.0903025 magnetization       2.4468590

 DIPCOR: dipole corrections for dipol
 direction  3 min pos     1,
 dipolmoment           0.000001     -0.000000     -0.001943 electrons x Angstroem
 Tr[quadrupol]     -6640.739948

 energy correction for charged system         0.000000 eV
 dipol+quadrupol energy correction            0.000000 eV
 added-field ion interaction          0.000000 eV  (added to PSCEN)


 Free energy of the ion-electron system (eV)
  ---------------------------------------------------
  alpha Z        PSCENC =       100.00674870
  Ewald energy   TEWEN  =     40009.47965198
  -Hartree energ DENC   =    -48880.06642335
  -exchange      EXHF   =       561.00587590
  -V(xc)+E(xc)   XCENC  =       636.91029097
  PAW double counting   =     27515.96910222   -27616.42252391
  entropy T*S    EENTRO =        -0.03921562
  eigenvalues    EBANDS =     -3202.34346746
  atomic energy  EATOM  =     10270.04882705
  ---------------------------------------------------
  free energy    TOTEN  =      -605.45189572 eV

  energy without entropy =     -605.41268010  energy(sigma->0) =     -605.43228791
  exchange ACFDT corr.  =        -0.03087361  see jH, gK, PRB 81, 115126


--------------------------------------------------------------------------------------------------------




--------------------------------------- Iteration      1(  10)  ---------------------------------------


    POTLOK:  cpu time    1.3861: real time    1.3862
    SETDIJ:  cpu time    2.0839: real time    2.0842
    TRIAL :  cpu time  526.4056: real time  526.4962
    CORREC:  cpu time    0.0022: real time    0.0024
    CHARGE:  cpu time    1.6765: real time    1.6766
    --------------------------------------------
      LOOP:  cpu time  531.5564: real time  531.6477

 eigenvalue-minimisations  :     0
 total energy-change (2. order) :-0.2036816E-01  (-0.1691584E-01)
 number of electron     245.9999996 magnetization       3.3372024
 augmentation part       16.0941398 magnetization       2.4456281

 DIPCOR: dipole corrections for dipol
 direction  3 min pos     1,
 dipolmoment           0.000001     -0.000000     -0.001919 electrons x Angstroem
 Tr[quadrupol]     -6640.743036

 energy correction for charged system         0.000000 eV
 dipol+quadrupol energy correction            0.000000 eV
 added-field ion interaction          0.000000 eV  (added to PSCEN)


 Free energy of the ion-electron system (eV)
  ---------------------------------------------------
  alpha Z        PSCENC =       100.00674870
  Ewald energy   TEWEN  =     40009.47965198
  -Hartree energ DENC   =    -48880.54003926
  -exchange      EXHF   =       561.08123930
  -V(xc)+E(xc)   XCENC  =       636.93455645
  PAW double counting   =     27521.96098129   -27622.48399171
  entropy T*S    EENTRO =        -0.03851912
  eigenvalues    EBANDS =     -3201.92102205
  atomic energy  EATOM  =     10270.04882705
  ---------------------------------------------------
  free energy    TOTEN  =      -605.47226388 eV

  energy without entropy =     -605.43374476  energy(sigma->0) =     -605.45300432
  exchange ACFDT corr.  =        -0.02977392  see jH, gK, PRB 81, 115126


--------------------------------------------------------------------------------------------------------




--------------------------------------- Iteration      1(  11)  ---------------------------------------


    POTLOK:  cpu time    1.3865: real time    1.3866
    SETDIJ:  cpu time    2.0741: real time    2.0743
    TRIAL :  cpu time  525.6122: real time  525.7103
    CORREC:  cpu time    0.0022: real time    0.0024
    CHARGE:  cpu time    1.6705: real time    1.6706
    --------------------------------------------
      LOOP:  cpu time  530.7477: real time  530.8465

 eigenvalue-minimisations  :     0
 total energy-change (2. order) :-0.1532817E-01  (-0.1284463E-01)
 number of electron     245.9999996 magnetization       3.3610950
 augmentation part       16.0958118 magnetization       2.4448947

 DIPCOR: dipole corrections for dipol
 direction  3 min pos     1,
 dipolmoment           0.000001     -0.000000     -0.001888 electrons x Angstroem
 Tr[quadrupol]     -6640.743861

 energy correction for charged system         0.000000 eV
 dipol+quadrupol energy correction            0.000000 eV
 added-field ion interaction          0.000000 eV  (added to PSCEN)


 Free energy of the ion-electron system (eV)
  ---------------------------------------------------
  alpha Z        PSCENC =       100.00674870
  Ewald energy   TEWEN  =     40009.47965198
  -Hartree energ DENC   =    -48880.71237557
  -exchange      EXHF   =       561.13676074
  -V(xc)+E(xc)   XCENC  =       636.94776968
  PAW double counting   =     27524.87856742   -27625.45623314
  entropy T*S    EENTRO =        -0.03786169
  eigenvalues    EBANDS =     -3201.77878978
  atomic energy  EATOM  =     10270.04882705
  ---------------------------------------------------
  free energy    TOTEN  =      -605.48759205 eV

  energy without entropy =     -605.44973036  energy(sigma->0) =     -605.46866121
  exchange ACFDT corr.  =        -0.02883270  see jH, gK, PRB 81, 115126


--------------------------------------------------------------------------------------------------------




--------------------------------------- Iteration      1(  12)  ---------------------------------------


    POTLOK:  cpu time    1.3814: real time    1.3815
    SETDIJ:  cpu time    2.0847: real time    2.0849
    TRIAL :  cpu time  526.3467: real time  526.4383
    CORREC:  cpu time    0.0023: real time    0.0025
    CHARGE:  cpu time    1.6732: real time    1.6734
    --------------------------------------------
      LOOP:  cpu time  531.4901: real time  531.5824

 eigenvalue-minimisations  :     0
 total energy-change (2. order) :-0.1178743E-01  (-0.1000105E-01)
 number of electron     245.9999996 magnetization       3.3863789
 augmentation part       16.0965094 magnetization       2.4442437

 DIPCOR: dipole corrections for dipol
 direction  3 min pos     1,
 dipolmoment           0.000001     -0.000000     -0.001887 electrons x Angstroem
 Tr[quadrupol]     -6640.744797

 energy correction for charged system         0.000000 eV
 dipol+quadrupol energy correction            0.000000 eV
 added-field ion interaction          0.000000 eV  (added to PSCEN)


 Free energy of the ion-electron system (eV)
  ---------------------------------------------------
  alpha Z        PSCENC =       100.00674870
  Ewald energy   TEWEN  =     40009.47965198
  -Hartree energ DENC   =    -48880.76474560
  -exchange      EXHF   =       561.18100211
  -V(xc)+E(xc)   XCENC  =       636.95657907
  PAW double counting   =     27526.21904599   -27626.82143812
  entropy T*S    EENTRO =        -0.03721716
  eigenvalues    EBANDS =     -3201.76718896
  atomic energy  EATOM  =     10270.04882705
  ---------------------------------------------------
  free energy    TOTEN  =      -605.49937949 eV

  energy without entropy =     -605.46216233  energy(sigma->0) =     -605.48077091
  exchange ACFDT corr.  =        -0.02802307  see jH, gK, PRB 81, 115126


--------------------------------------------------------------------------------------------------------




--------------------------------------- Iteration      1(  13)  ---------------------------------------


    POTLOK:  cpu time    1.3787: real time    1.3789
    SETDIJ:  cpu time    2.0778: real time    2.0779
    TRIAL :  cpu time  526.1632: real time  526.2556
    CORREC:  cpu time    0.0022: real time    0.0025
    CHARGE:  cpu time    1.6726: real time    1.6729
    --------------------------------------------
      LOOP:  cpu time  531.2964: real time  531.3895

 eigenvalue-minimisations  :     0
 total energy-change (2. order) :-0.9249430E-02  (-0.7894299E-02)
 number of electron     245.9999996 magnetization       3.4122128
 augmentation part       16.0976889 magnetization       2.4434936

 DIPCOR: dipole corrections for dipol
 direction  3 min pos     1,
 dipolmoment           0.000001     -0.000000     -0.001900 electrons x Angstroem
 Tr[quadrupol]     -6640.746551

 energy correction for charged system         0.000000 eV
 dipol+quadrupol energy correction            0.000000 eV
 added-field ion interaction          0.000000 eV  (added to PSCEN)


 Free energy of the ion-electron system (eV)
  ---------------------------------------------------
  alpha Z        PSCENC =       100.00674870
  Ewald energy   TEWEN  =     40009.47965198
  -Hartree energ DENC   =    -48880.83544016
  -exchange      EXHF   =       561.21889896
  -V(xc)+E(xc)   XCENC  =       636.96434425
  PAW double counting   =     27527.19494347   -27627.81003744
  entropy T*S    EENTRO =        -0.03656640
  eigenvalues    EBANDS =     -3201.73934857
  atomic energy  EATOM  =     10270.04882705
  ---------------------------------------------------
  free energy    TOTEN  =      -605.50862892 eV

  energy without entropy =     -605.47206252  energy(sigma->0) =     -605.49034572
  exchange ACFDT corr.  =        -0.02728894  see jH, gK, PRB 81, 115126


--------------------------------------------------------------------------------------------------------




--------------------------------------- Iteration      1(  14)  ---------------------------------------


    POTLOK:  cpu time    1.3758: real time    1.3759
    SETDIJ:  cpu time    2.0785: real time    2.0789
    TRIAL :  cpu time  526.8310: real time  526.9095
    CORREC:  cpu time    0.0022: real time    0.0022
    CHARGE:  cpu time    1.6703: real time    1.6704
    --------------------------------------------
      LOOP:  cpu time  531.9603: real time  532.0393

 eigenvalue-minimisations  :     0
 total energy-change (2. order) :-0.7380362E-02  (-0.6393571E-02)
 number of electron     245.9999995 magnetization       3.4386290
 augmentation part       16.0991334 magnetization       2.4427159

 DIPCOR: dipole corrections for dipol
 direction  3 min pos     1,
 dipolmoment           0.000001     -0.000000     -0.001900 electrons x Angstroem
 Tr[quadrupol]     -6640.748953

 energy correction for charged system         0.000000 eV
 dipol+quadrupol energy correction            0.000000 eV
 added-field ion interaction          0.000000 eV  (added to PSCEN)


 Free energy of the ion-electron system (eV)
  ---------------------------------------------------
  alpha Z        PSCENC =       100.00674870
  Ewald energy   TEWEN  =     40009.47965198
  -Hartree energ DENC   =    -48880.97436463
  -exchange      EXHF   =       561.25280446
  -V(xc)+E(xc)   XCENC  =       636.97191362
  PAW double counting   =     27528.49687211   -27629.13007882
  entropy T*S    EENTRO =        -0.03589160
  eigenvalues    EBANDS =     -3201.63181735
  atomic energy  EATOM  =     10270.04882705
  ---------------------------------------------------
  free energy    TOTEN  =      -605.51600928 eV

  energy without entropy =     -605.48011768  energy(sigma->0) =     -605.49806348
  exchange ACFDT corr.  =        -0.02658486  see jH, gK, PRB 81, 115126


--------------------------------------------------------------------------------------------------------




--------------------------------------- Iteration      1(  15)  ---------------------------------------


    POTLOK:  cpu time    1.3773: real time    1.3774
    SETDIJ:  cpu time    2.0769: real time    2.0771
    TRIAL :  cpu time  526.2613: real time  526.3656
    CORREC:  cpu time    0.0023: real time    0.0026
    CHARGE:  cpu time    1.6695: real time    1.6696
    --------------------------------------------
      LOOP:  cpu time  531.3893: real time  531.4941

 eigenvalue-minimisations  :     0
 total energy-change (2. order) :-0.6026298E-02  (-0.5298586E-02)
 number of electron     245.9999995 magnetization       3.4659393
 augmentation part       16.1001167 magnetization       2.4419683

 DIPCOR: dipole corrections for dipol
 direction  3 min pos     1,
 dipolmoment           0.000001     -0.000000     -0.001889 electrons x Angstroem
 Tr[quadrupol]     -6640.751347

 energy correction for charged system         0.000000 eV
 dipol+quadrupol energy correction            0.000000 eV
 added-field ion interaction          0.000000 eV  (added to PSCEN)


 Free energy of the ion-electron system (eV)
  ---------------------------------------------------
  alpha Z        PSCENC =       100.00674870
  Ewald energy   TEWEN  =     40009.47965198
  -Hartree energ DENC   =    -48881.13383349
  -exchange      EXHF   =       561.28286286
  -V(xc)+E(xc)   XCENC  =       636.97854851
  PAW double counting   =     27530.13171747   -27630.78541903
  entropy T*S    EENTRO =        -0.03517399
  eigenvalues    EBANDS =     -3201.49524802
  atomic energy  EATOM  =     10270.04882705
  ---------------------------------------------------
  free energy    TOTEN  =      -605.52203558 eV

  energy without entropy =     -605.48686159  energy(sigma->0) =     -605.50444858
  exchange ACFDT corr.  =        -0.02588639  see jH, gK, PRB 81, 115126


--------------------------------------------------------------------------------------------------------




--------------------------------------- Iteration      1(  16)  ---------------------------------------


    POTLOK:  cpu time    1.3758: real time    1.3763
    SETDIJ:  cpu time    2.0761: real time    2.0762
    TRIAL :  cpu time  526.9233: real time  527.0141
    CORREC:  cpu time    0.0022: real time    0.0025
    CHARGE:  cpu time    1.6710: real time    1.6711
    --------------------------------------------
      LOOP:  cpu time  532.0508: real time  532.1425

 eigenvalue-minimisations  :     0
 total energy-change (2. order) :-0.5035271E-02  (-0.4504974E-02)
 number of electron     245.9999995 magnetization       3.4940958
 augmentation part       16.1006960 magnetization       2.4413943

 DIPCOR: dipole corrections for dipol
 direction  3 min pos     1,
 dipolmoment           0.000001     -0.000000     -0.001880 electrons x Angstroem
 Tr[quadrupol]     -6640.753265

 energy correction for charged system         0.000000 eV
 dipol+quadrupol energy correction            0.000000 eV
 added-field ion interaction          0.000000 eV  (added to PSCEN)


 Free energy of the ion-electron system (eV)
  ---------------------------------------------------
  alpha Z        PSCENC =       100.00674870
  Ewald energy   TEWEN  =     40009.47965198
  -Hartree energ DENC   =    -48881.26011825
  -exchange      EXHF   =       561.30890776
  -V(xc)+E(xc)   XCENC  =       636.98361266
  PAW double counting   =     27531.80815176   -27632.47591531
  entropy T*S    EENTRO =        -0.03439835
  eigenvalues    EBANDS =     -3201.39176320
  atomic energy  EATOM  =     10270.04882705
  ---------------------------------------------------
  free energy    TOTEN  =      -605.52707085 eV

  energy without entropy =     -605.49267250  energy(sigma->0) =     -605.50987167
  exchange ACFDT corr.  =        -0.02517505  see jH, gK, PRB 81, 115126


--------------------------------------------------------------------------------------------------------




--------------------------------------- Iteration      1(  17)  ---------------------------------------


    POTLOK:  cpu time    1.3775: real time    1.3776
    SETDIJ:  cpu time    2.0723: real time    2.0725
    TRIAL :  cpu time  526.7215: real time  526.8207
    CORREC:  cpu time    0.0022: real time    0.0025
    CHARGE:  cpu time    1.6808: real time    1.6810
    --------------------------------------------
      LOOP:  cpu time  531.8562: real time  531.9561

 eigenvalue-minimisations  :     0
 total energy-change (2. order) :-0.4311069E-02  (-0.3917182E-02)
 number of electron     245.9999995 magnetization       3.5228730
 augmentation part       16.1013269 magnetization       2.4411847

 DIPCOR: dipole corrections for dipol
 direction  3 min pos     1,
 dipolmoment           0.000001     -0.000000     -0.001874 electrons x Angstroem
 Tr[quadrupol]     -6640.754716

 energy correction for charged system         0.000000 eV
 dipol+quadrupol energy correction            0.000000 eV
 added-field ion interaction          0.000000 eV  (added to PSCEN)


 Free energy of the ion-electron system (eV)
  ---------------------------------------------------
  alpha Z        PSCENC =       100.00674869
  Ewald energy   TEWEN  =     40009.47965198
  -Hartree energ DENC   =    -48881.35127529
  -exchange      EXHF   =       561.33172443
  -V(xc)+E(xc)   XCENC  =       636.98751707
  PAW double counting   =     27533.40727877   -27634.08309023
  entropy T*S    EENTRO =        -0.03355342
  eigenvalues    EBANDS =     -3201.32436604
  atomic energy  EATOM  =     10270.04882705
  ---------------------------------------------------
  free energy    TOTEN  =      -605.53138192 eV

  energy without entropy =     -605.49782849  energy(sigma->0) =     -605.51460521
  exchange ACFDT corr.  =        -0.02443255  see jH, gK, PRB 81, 115126


--------------------------------------------------------------------------------------------------------




--------------------------------------- Iteration      1(  18)  ---------------------------------------


    POTLOK:  cpu time    1.3783: real time    1.3785
    SETDIJ:  cpu time    2.0748: real time    2.0750
    TRIAL :  cpu time  527.2336: real time  527.3051
    CORREC:  cpu time    0.0023: real time    0.0026
    CHARGE:  cpu time    1.6811: real time    1.6814
    --------------------------------------------
      LOOP:  cpu time  532.3724: real time  532.4448

 eigenvalue-minimisations  :     0
 total energy-change (2. order) :-0.3774316E-02  (-0.3483416E-02)
 number of electron     245.9999995 magnetization       3.5521579
 augmentation part       16.1020011 magnetization       2.4413099

 DIPCOR: dipole corrections for dipol
 direction  3 min pos     1,
 dipolmoment           0.000001     -0.000000     -0.001868 electrons x Angstroem
 Tr[quadrupol]     -6640.755914

 energy correction for charged system         0.000000 eV
 dipol+quadrupol energy correction            0.000000 eV
 added-field ion interaction          0.000000 eV  (added to PSCEN)


 Free energy of the ion-electron system (eV)
  ---------------------------------------------------
  alpha Z        PSCENC =       100.00674869
  Ewald energy   TEWEN  =     40009.47965198
  -Hartree energ DENC   =    -48881.43231574
  -exchange      EXHF   =       561.35238332
  -V(xc)+E(xc)   XCENC  =       636.99110241
  PAW double counting   =     27534.96868341   -27635.65282881
[...]
  augment   178.89151   181.43031   198.42171    -0.53017     0.00105     0.00987
  Kinetic  3608.99843  3627.98304  4108.36682     5.57131     0.01352     0.08404
  Fock     -353.97838  -355.20782  -336.01385     1.32982    -0.01890    -0.02002
  -------------------------------------------------------------------------------------
  Total     -28.41375   -44.69587    -0.45757     2.52664    -0.00498     0.01440
  in kB     -14.32981   -22.54131    -0.23076     1.27425    -0.00251     0.00726
  external pressure =      -12.37 kB  Pullay stress =        0.00 kB


 VOLUME and BASIS-vectors are now :
 -----------------------------------------------------------------------------
  energy-cutoff  :      500.00
  volume of cell :     3176.87
      direct lattice vectors                 reciprocal lattice vectors
    12.661700000  0.000000000  0.000000000     0.078978336 -0.000138533  0.000045640
     0.021991991 12.537780712  0.000000000     0.000000000  0.079758932 -0.000008016
    -0.011560896  0.002011131 20.011796560     0.000000000  0.000000000  0.049970526

  length of vectors
    12.661700000 12.537800000 20.011800000     0.078978471  0.079758932  0.049970526


 FORCES acting on ions:
    Electron-Ion                     Ewald-Force                    Non-Local-Force
 -----------------------------------------------------------------------------------------------
   0.347E+01 -.319E+00 0.235E+00   -.325E+01 0.331E+00 -.237E+00   -.198E+00 -.583E-01 0.354E-02
   0.255E+01 0.147E+01 0.290E+00   -.263E+01 -.150E+01 -.291E+00   0.239E-01 0.514E-01 0.116E-02
   0.100E+02 -.138E+01 0.280E+00   -.995E+01 0.142E+01 -.277E+00   -.862E-01 -.986E-01 0.477E-03
   0.590E+01 0.583E+01 0.126E+00   -.555E+01 -.581E+01 -.121E+00   -.298E+00 0.443E-02 -.444E-02
   0.708E+01 0.162E+02 0.452E-01   -.671E+01 -.162E+02 -.486E-01   -.351E+00 -.628E-02 0.377E-02
   0.186E+02 0.118E+00 0.350E+00   -.189E+02 0.327E-01 -.347E+00   0.245E+00 -.163E+00 -.141E-02
   0.178E+02 0.565E+01 0.350E+00   -.179E+02 -.567E+01 -.353E+00   0.378E-01 0.371E-01 0.348E-02
   -.537E+01 0.480E+02 -.806E+00   0.867E+01 -.509E+02 0.814E+00   -.338E+01 0.293E+01 -.829E-02
   0.192E+02 0.598E+00 0.477E+00   -.192E+02 -.840E+00 -.478E+00   -.857E-01 0.164E+00 0.216E-02
   0.573E+02 -.708E+01 0.515E+00   -.603E+02 0.735E+01 -.516E+00   0.319E+01 -.395E+00 0.573E-02
   0.153E+02 0.578E+00 -.170E-03   -.156E+02 -.652E+00 0.673E-03   0.295E+00 0.116E+00 -.242E-02
   0.574E+02 0.100E+02 0.143E+00   -.605E+02 -.103E+02 -.141E+00   0.339E+01 0.465E+00 -.366E-02
   -.829E+01 -.488E+02 -.248E+00   0.105E+02 0.514E+02 0.247E+00   -.250E+01 -.280E+01 -.361E-02
   0.397E+01 -.194E+02 -.424E+00   -.378E+01 0.198E+02 0.424E+00   -.247E+00 -.371E+00 -.456E-02
   0.490E+00 -.278E+01 0.190E+00   -.601E+00 0.306E+01 -.192E+00   0.178E-01 -.157E+00 0.339E-02
   0.178E+02 -.791E+01 -.135E+00   -.178E+02 0.791E+01 0.134E+00   0.145E+00 -.124E+00 -.423E-03
   0.511E+01 -.522E+01 -.115E+00   -.486E+01 0.546E+01 0.118E+00   -.264E+00 -.184E+00 -.320E-02
   -.604E+01 0.898E+00 0.984E+00   0.581E+01 -.107E+01 -.982E+00   0.261E+00 0.165E+00 0.208E-03
   -.175E+01 0.623E+01 0.344E+00   0.202E+01 -.585E+01 -.349E+00   -.281E+00 -.396E+00 0.571E-02
   0.932E+00 0.112E+01 0.693E+00   -.113E+01 -.106E+01 -.695E+00   0.119E+00 -.699E-01 0.314E-02
   -.331E+01 0.134E+02 0.125E+01   0.317E+01 -.138E+02 -.125E+01   0.181E+00 0.351E+00 0.111E-01
   0.712E+01 0.307E+02 0.412E+00   -.942E+01 -.333E+02 -.415E+00   0.237E+01 0.275E+01 0.786E-02
   0.305E+01 0.146E+02 -.470E+00   -.429E+01 -.130E+02 0.487E+00   0.100E+01 -.139E+01 -.165E-01
   -.158E+01 -.356E+02 -.206E-01   -.162E+01 0.389E+02 0.252E-02   0.323E+01 -.313E+01 0.183E-01
   -.121E+02 -.276E+02 -.620E-01   0.134E+02 0.261E+02 0.614E-01   -.952E+00 0.126E+01 0.967E-04
   -.102E+02 -.131E+02 0.484E+00   0.971E+01 0.132E+02 -.485E+00   0.397E+00 -.267E-01 0.284E-02
   -.846E+01 -.802E+01 0.595E+00   0.810E+01 0.801E+01 -.596E+00   0.301E+00 -.336E-01 0.298E-02
   -.335E+01 -.378E+01 0.232E+00   0.351E+01 0.372E+01 -.232E+00   -.118E+00 0.891E-01 -.571E-03
   -.132E+01 -.986E+01 0.201E+00   0.111E+01 0.944E+01 -.199E+00   0.242E+00 0.412E+00 -.294E-02
   -.368E+01 -.704E+00 0.694E+00   0.353E+01 0.678E+00 -.696E+00   0.172E+00 0.687E-01 0.838E-03
   -.725E+01 -.437E+00 -.435E-01   0.719E+01 0.505E+00 0.435E-01   0.135E-01 -.355E-01 -.410E-02
   -.158E+02 0.294E+01 0.748E+00   0.159E+02 -.300E+01 -.746E+00   -.148E+00 0.113E+00 0.370E-03
   0.792E+00 0.973E+00 0.213E+00   -.742E+00 -.118E+01 -.213E+00   -.866E-03 0.151E+00 -.362E-02
   0.784E+01 -.269E+01 0.933E-01   -.779E+01 0.276E+01 -.948E-01   0.164E-01 -.113E+00 -.112E-02
   -.466E+01 -.270E+01 0.256E+00   0.484E+01 0.296E+01 -.255E+00   -.225E+00 -.218E+00 -.150E-02
   -.419E+02 -.140E+02 0.148E+00   0.451E+02 0.145E+02 -.152E+00   -.328E+01 -.438E+00 0.905E-02
   -.103E+02 -.339E+01 0.602E+00   0.106E+02 0.346E+01 -.604E+00   -.267E+00 -.118E+00 0.513E-02
   0.721E+01 -.331E+01 0.273E+00   -.733E+01 0.359E+01 -.272E+00   0.130E+00 -.278E+00 -.180E-02
   0.210E+01 -.358E+01 0.244E+00   -.235E+01 0.367E+01 -.245E+00   0.219E+00 -.948E-01 0.168E-02
   -.486E+02 0.148E+02 -.389E+00   0.518E+02 -.152E+02 0.378E+00   -.354E+01 0.447E+00 0.105E-01
   -.960E+01 0.290E+01 -.205E+00   0.964E+01 -.288E+01 0.208E+00   0.285E-01 -.871E-01 -.143E-02
   0.412E+01 0.497E+01 0.395E+00   -.383E+01 -.515E+01 -.393E+00   -.196E+00 0.129E+00 -.102E-02
   -.413E+01 0.554E+01 0.527E+00   0.427E+01 -.577E+01 -.528E+00   -.197E+00 0.306E+00 0.415E-02
   -.156E+02 -.325E+01 0.383E+00   0.156E+02 0.331E+01 -.377E+00   -.309E-02 -.639E-01 -.329E-02
   -.144E+02 0.164E+01 0.389E+00   0.148E+02 -.162E+01 -.392E+00   -.330E+00 0.814E-01 0.413E-02
   0.876E+01 0.180E+01 0.372E+00   -.898E+01 -.203E+01 -.373E+00   0.215E+00 0.190E+00 0.250E-02
   -.548E+01 0.132E+01 0.285E+00   0.539E+01 -.144E+01 -.284E+00   0.133E-01 0.985E-01 -.314E-03
   -.100E+02 -.429E-01 0.339E+00   0.991E+01 0.403E-01 -.339E+00   0.694E-01 0.670E-01 -.259E-02
   -.125E+01 -.200E+01 0.361E+00   0.130E+01 0.204E+01 -.362E+00   0.206E-01 -.777E-01 0.986E-03
   0.915E+01 -.964E+00 0.148E+00   -.909E+01 0.941E+00 -.149E+00   0.165E-01 0.119E-01 0.125E-02
   -.129E+02 0.143E+01 -.232E+01   0.171E+02 0.526E+01 0.236E+01   -.415E+01 -.661E+01 -.522E-01
   -.221E+02 -.954E+01 -.498E-01   0.181E+02 0.364E+01 0.490E-01   0.419E+01 0.600E+01 0.229E-02
   0.426E+02 -.642E+00 0.114E+00   -.310E+02 0.182E+02 -.113E+00   -.112E+02 -.167E+02 0.294E-02
   0.344E+02 0.115E+02 0.438E+00   -.220E+02 -.306E+02 -.459E+00   -.116E+02 0.182E+02 0.236E-01
   -.495E+01 -.439E+02 -.876E+00   -.745E+01 0.628E+02 0.993E+00   0.117E+02 -.180E+02 -.109E+00
   -.226E+02 0.372E+02 -.230E+01   0.119E+02 -.542E+02 0.244E+01   0.103E+02 0.163E+02 -.141E+00
   -.388E+01 0.871E+01 0.196E+01   0.351E+01 -.648E+01 -.193E+01   -.138E+01 -.227E+01 -.340E-01
   -.489E+02 0.311E+02 -.851E+01   0.481E+02 -.349E+02 0.842E+01   0.221E+01 0.355E+01 0.813E-01
 -----------------------------------------------------------------------------------------------
   0.209E+00 0.372E-01 0.197E+00   -.355E-12 0.853E-13 -.178E-14   -.506E+00 0.318E-02 -.183E+00
 
 
 POSITION                                       TOTAL-FORCE (eV/Angst)
 -----------------------------------------------------------------------------------
      2.82725     12.52471     10.00591         0.010354     -0.048943      0.002192
      0.69136      1.24451     10.00534        -0.064849      0.027838      0.000129
      1.41302     12.53295     10.00544         0.013876     -0.067105      0.002855
      3.51228      1.21944     10.00663         0.037831      0.016820      0.000594
      2.81110      2.45482     10.00735        -0.003336     -0.009502      0.000607
      0.72110      3.75333     10.00549        -0.028427     -0.023074      0.001325
      1.39755      2.48740     10.00571         0.023519      0.014208      0.000871
      3.53243      3.67840     10.01043        -0.258015      0.209005     -0.001230
      0.79856      6.25361     10.00516        -0.105355     -0.070580      0.001359
      1.50199      4.97314     10.00565         0.377358     -0.152598      0.005564
      0.74219      8.77173     10.00611        -0.006653      0.052217     -0.002069
      1.49952      7.53918     10.00602         0.436272      0.164788     -0.002274
      3.50824      8.82341     10.00743        -0.434672     -0.407797     -0.004585
      2.82252     10.05400     10.00753        -0.079862      0.019673     -0.005089
      0.71676     11.28314     10.00559        -0.105314      0.116836      0.002506
      1.41320     10.03556     10.00662         0.124424     -0.134911     -0.001733
      3.52860     11.29085     10.00665        -0.023483      0.048469     -0.001277
      7.05814     12.51685     10.00315         0.038123     -0.005181      0.002355
      4.92529      1.21655     10.00643        -0.028960     -0.033969      0.001256
      5.64618     12.51578     10.00443        -0.070473     -0.016897      0.001809
      7.74177      1.21873     10.00338         0.056070     -0.065809      0.006580
      7.05228      2.44619     10.00744         0.200732      0.375735      0.006084
      5.62224      2.45699     10.00997        -0.180005      0.067791     -0.000388
      7.03154      7.59130     10.00931         0.205599     -0.017532      0.001297
      4.94344      8.79848     10.00740         0.328048     -0.198200     -0.000464
      7.75145      8.81627     10.00594        -0.067325      0.007107      0.002469
      7.05156     10.04941     10.00466        -0.044734     -0.050674      0.001605
      4.94001     11.28355     10.00560         0.024252      0.032297     -0.000811
      5.63888     10.04249     10.00589         0.057723      0.018700     -0.000660
      7.75913     11.28460     10.00363         0.039970      0.047599     -0.000529
     11.27514     12.53502     10.00557        -0.058617      0.031553     -0.004380
      9.15077      1.24100     10.00391        -0.087529      0.055674      0.002759
      9.86774     12.53114     10.00475         0.061345     -0.050709     -0.004284
     11.93899      1.25672     10.00552         0.083767     -0.046004     -0.002705
     11.24391      2.51804     10.00534        -0.066247      0.034650     -0.000538
      9.06112      3.74165     10.00779        -0.331624     -0.019570      0.005688
      9.82004      2.50968     10.00501         0.058541     -0.050113      0.003439
     11.95091      3.77147     10.00552         0.024018     -0.016190     -0.000413
     11.22989      5.02000     10.00607        -0.014663     -0.015783      0.001374
      9.08552      6.30516     10.00985        -0.599438      0.046711      0.000344
      9.77485      5.02101     10.00830         0.070233     -0.062888      0.001286
     12.00734      6.25413     10.00523         0.074918     -0.040320      0.001393
     11.28523      7.50577     10.00498        -0.070916      0.094345      0.002659
      9.16883      8.78642     10.00550         0.011749     -0.006269      0.001604
      9.85769      7.52517     10.00619         0.083979      0.104456      0.001206
     11.98357      8.76207     10.00502         0.012765     -0.027920      0.001006
     11.28535     10.02016     10.00494        -0.091466     -0.007807      0.000870
      9.17179     11.28017     10.00438        -0.063105      0.069380     -0.002529
      9.87124     10.02992     10.00474         0.085347     -0.042541      0.000457
     11.97152     11.28010     10.00533         0.095738     -0.011436      0.000533
      4.95457      3.70742     10.01537        -0.245687     -0.270067     -0.015069
      5.60525      7.54155     10.00868         0.424065      0.423922      0.001589
      2.87357      4.89352     10.00765        -0.503639     -0.581189      0.004428
      2.86881      7.61486     10.00624        -0.263033      0.711840      0.004204
      7.68025      3.66745     10.01095         0.280994     -0.619608     -0.001445
      7.72149      6.38629     10.01433         0.520059      0.782841     -0.010999
      4.24602      6.20835     10.00708        -0.867742      0.035143      0.006895
      6.24056      5.14384     10.02181         0.903497     -0.438411     -0.019720
 -----------------------------------------------------------------------------------
    total drift:                                0.020683     -0.013039      0.000287


--------------------------------------------------------------------------------------------------------



  FREE ENERGIE OF THE ION-ELECTRON SYSTEM (eV)
  ---------------------------------------------------
  free  energy   TOTEN  =      -605.62421263 eV

  energy  without entropy=     -605.62043088  energy(sigma->0) =     -605.62232176
 


--------------------------------------------------------------------------------------------------------


    POTLOK:  cpu time    3.4413: real time    3.4418


--------------------------------------------------------------------------------------------------------


 stress matrix after NEB project (eV)
    -28.41375      2.52802      0.01440
      2.52664    -44.69587     -0.00485
      0.01447     -0.00498     -0.45757
  FORCES: max atom, RMS     1.004440    0.341511
  FORCE total and by dimension    2.600869    0.903497
  Stress total and by dimension   53.085276   44.695868
 writing wavefunctions
     LOOP+:  cpu time84135.9529: real time84155.0865
    4ORBIT:  cpu time    0.0000: real time    0.0000
 


 total charge     
 
# of ion       s       p       d       tot
------------------------------------------
    1        0.872   1.787   0.000   2.660
    2        0.868   1.778   0.000   2.645
    3        0.868   1.774   0.000   2.642
    4        0.871   1.793   0.000   2.663
    5        0.874   1.795   0.000   2.668
    6        0.862   1.753   0.000   2.614
    7        0.868   1.769   0.000   2.638
    8        0.871   1.734   0.000   2.605
    9        0.847   1.725   0.000   2.572
   10        0.851   1.707   0.000   2.558
   11        0.865   1.766   0.000   2.631
   12        0.853   1.704   0.000   2.557
   13        0.872   1.753   0.000   2.625
   14        0.874   1.805   0.000   2.680
   15        0.869   1.784   0.000   2.653
   16        0.870   1.775   0.000   2.645
   17        0.870   1.794   0.000   2.664
   18        0.870   1.791   0.000   2.661
   19        0.872   1.786   0.000   2.658
   20        0.872   1.790   0.000   2.662
   21        0.874   1.805   0.000   2.679
   22        0.872   1.751   0.000   2.623
   23        0.874   1.780   0.000   2.654
   24        0.867   1.730   0.000   2.597
   25        0.872   1.769   0.000   2.641
   26        0.873   1.793   0.000   2.666
   27        0.871   1.793   0.000   2.664
   28        0.872   1.787   0.000   2.659
   29        0.871   1.785   0.000   2.656
   30        0.872   1.788   0.000   2.660
   31        0.868   1.774   0.000   2.642
   32        0.870   1.774   0.000   2.643
   33        0.869   1.784   0.000   2.653
   34        0.866   1.767   0.000   2.632
   35        0.863   1.756   0.000   2.619
   36        0.851   1.693   0.000   2.544
   37        0.863   1.761   0.000   2.624
   38        0.860   1.751   0.000   2.611
   39        0.854   1.719   0.000   2.572
   40        0.854   1.711   0.000   2.566
   41        0.845   1.731   0.000   2.576
   42        0.853   1.720   0.000   2.573
   43        0.861   1.752   0.000   2.613
   44        0.868   1.765   0.000   2.633
   45        0.863   1.759   0.000   2.621
   46        0.864   1.761   0.000   2.625
   47        0.866   1.766   0.000   2.632
   48        0.868   1.775   0.000   2.642
   49        0.867   1.779   0.000   2.646
   50        0.868   1.774   0.000   2.642
   51        0.871   1.676   0.000   2.548
   52        0.863   1.669   0.000   2.532
   53        1.237   2.659   0.000   3.896
   54        1.240   2.657   0.000   3.896
   55        1.236   2.649   0.000   3.885
   56        1.235   2.686   0.000   3.921
   57        0.510   0.558   8.426   9.494
   58        0.443   0.526   6.222   7.191
--------------------------------------------------
tot         50.934 103.293  14.648 168.875
 


 magnetization (x)
 
# of ion       s       p       d       tot
------------------------------------------
    1        0.000   0.004   0.000   0.004
    2        0.001   0.012   0.000   0.013
    3        0.000   0.003   0.000   0.003
    4       -0.001  -0.008   0.000  -0.008
    5        0.000   0.008   0.000   0.008
    6        0.001   0.012   0.000   0.013
    7       -0.000  -0.000   0.000  -0.001
    8       -0.002  -0.007   0.000  -0.009
    9        0.003   0.047   0.000   0.050
   10       -0.002  -0.015   0.000  -0.017
   11        0.001   0.003   0.000   0.003
   12       -0.001  -0.009   0.000  -0.010
   13        0.000   0.012   0.000   0.012
   14        0.000   0.007   0.000   0.007
   15        0.000   0.006   0.000   0.006
   16       -0.000   0.001   0.000   0.001
   17       -0.000   0.001   0.000   0.001
   18        0.001   0.016   0.000   0.017
   19        0.001   0.016   0.000   0.018
   20       -0.001  -0.006   0.000  -0.007
   21       -0.001  -0.002   0.000  -0.003
   22        0.001   0.022   0.000   0.023
   23       -0.002  -0.018   0.000  -0.020
   24        0.001  -0.004   0.000  -0.003
   25        0.001  -0.001   0.000   0.000
   26        0.000   0.002   0.000   0.002
   27       -0.000  -0.001   0.000  -0.002
   28        0.000   0.007   0.000   0.007
   29        0.000   0.006   0.000   0.006
   30       -0.000  -0.004   0.000  -0.004
   31        0.000   0.006   0.000   0.006
   32        0.000   0.003   0.000   0.003
   33       -0.000  -0.003   0.000  -0.003
   34       -0.000  -0.002   0.000  -0.002
   35        0.001   0.013   0.000   0.014
   36        0.001   0.001   0.000   0.002
   37       -0.000  -0.006   0.000  -0.006
   38       -0.001  -0.007   0.000  -0.008
   39        0.001   0.021   0.000   0.022
   40       -0.000   0.010   0.000   0.009
   41        0.001   0.022   0.000   0.023
   42       -0.000   0.004   0.000   0.004
   43        0.000   0.005   0.000   0.005
   44        0.001   0.011   0.000   0.012
   45       -0.000  -0.001   0.000  -0.002
   46        0.000   0.002   0.000   0.002
   47        0.000   0.008   0.000   0.009
   48        0.001   0.009   0.000   0.010
   49       -0.000   0.003   0.000   0.003
   50       -0.000  -0.003   0.000  -0.003
   51       -0.003   0.015   0.000   0.012
   52       -0.004  -0.001   0.000  -0.005
   53        0.006   0.100   0.000   0.105
   54        0.007   0.042   0.000   0.049
   55       -0.002  -0.019   0.000  -0.021
   56       -0.000   0.049   0.000   0.049
   57        0.006   0.015   0.564   0.585
   58        0.063   0.030   2.417   2.509
--------------------------------------------------
tot          0.077   0.437   2.981   3.495
 

 total amount of memory used by VASP MPI-rank0   179576. kBytes
=======================================================================

   base      :      30000. kBytes
   nonl-proj :       5328. kBytes
   fftplans  :      14250. kBytes
   grid      :      36827. kBytes
   one-center:         62. kBytes
   HF        :         23. kBytes
   nonlr-proj:      15074. kBytes
   wavefun   :      78012. kBytes
 
  
  
 General timing and accounting informations for this job:
 ========================================================
  
                  Total CPU time used (sec):    84228.320
                            User time (sec):    84127.290
                          System time (sec):      101.030
                         Elapsed time (sec):    84252.183
  
                   Maximum memory used (kb):      437980.
                   Average memory used (kb):           0.
  
                          Minor page faults:       636568
                          Major page faults:            0
                 Voluntary context switches:         1164
