 vasp.5.4.4.18Apr17-6-g9f103f2a35 (build Feb 25 2019 10:51:38) complex          
  
 executed on             LinuxIFC date 2021.06.15  04:18:23
 running on   48 total cores
 distrk:  each k-point on   16 cores,    3 groups
 distr:  one band on NCORES_PER_BAND=  16 cores,    1 groups


--------------------------------------------------------------------------------------------------------


 INCAR:
 POTCAR:    PAW_PBE C 08Apr2002                   
 POTCAR:    PAW_PBE N 08Apr2002                   
 POTCAR:    PAW_PBE Fe 06Sep2000                  
 POTCAR:    PAW_PBE Sc_sv 07Sep2000               

 ----------------------------------------------------------------------------- 
|                                                                             |
|           W    W    AA    RRRRR   N    N  II  N    N   GGGG   !!!           |
|           W    W   A  A   R    R  NN   N  II  NN   N  G    G  !!!           |
|           W    W  A    A  R    R  N N  N  II  N N  N  G       !!!           |
|           W WW W  AAAAAA  RRRRR   N  N N  II  N  N N  G  GGG   !            |
|           WW  WW  A    A  R   R   N   NN  II  N   NN  G    G                |
|           W    W  A    A  R    R  N    N  II  N    N   GGGG   !!!           |
|                                                                             |
|      For optimal performance we recommend to set                            |
|        NCORE= 4 - approx SQRT( number of cores)                             |
|      NCORE specifies how many cores store one orbital (NPAR=cpu/NCORE).     |
|      This setting can  greatly improve the performance of VASP for DFT.     |
|      The default,   NCORE=1            might be grossly inefficient         |
|      on modern multi-core architectures or massively parallel machines.     |
|      Do your own testing !!!!                                               |
|      Unfortunately you need to use the default for GW and RPA calculations. |
|      (for HF NCORE is supported but not extensively tested yet)             |
|                                                                             |
 ----------------------------------------------------------------------------- 


 ----------------------------------------------------------------------------- 
|                                                                             |
|           W    W    AA    RRRRR   N    N  II  N    N   GGGG   !!!           |
|           W    W   A  A   R    R  NN   N  II  NN   N  G    G  !!!           |
|           W    W  A    A  R    R  N N  N  II  N N  N  G       !!!           |
|           W WW W  AAAAAA  RRRRR   N  N N  II  N  N N  G  GGG   !            |
|           WW  WW  A    A  R   R   N   NN  II  N   NN  G    G                |
|           W    W  A    A  R    R  N    N  II  N    N   GGGG   !!!           |
|                                                                             |
|      You have enabled k-point parallelism (KPAR>1).                         |
|      This developmental code was originally  written by Paul Kent at ORNL,  |
|      and carefully double checked in Vienna.                                |
|      GW as well as linear response parallelism added by Martijn Marsman     |
|      and Georg Kresse.                                                      |
|      Carefully verify results versus KPAR=1.                                |
|      Report problems to Paul Kent and Vienna.                               |
|                                                                             |
 ----------------------------------------------------------------------------- 

 POTCAR:    PAW_PBE C 08Apr2002                   
   VRHFIN =C: s2p2                                                              
   LEXCH  = PE                                                                  
   EATOM  =   147.1560 eV,   10.8157 Ry                                         
                                                                                
   TITEL  = PAW_PBE C 08Apr2002                                                 
   LULTRA =        F    use ultrasoft PP ?                                      
   IUNSCR =        1    unscreen: 0-lin 1-nonlin 2-no                           
   RPACOR =    1.200    partial core radius                                     
   POMASS =   12.011; ZVAL   =    4.000    mass and valenz                      
   RCORE  =    1.500    outmost cutoff radius                                   
   RWIGS  =    1.630; RWIGS  =    0.863    wigner-seitz radius (au A)           
   ENMAX  =  400.000; ENMIN  =  300.000 eV                                      
   ICORE  =        2    local potential                                         
   LCOR   =        T    correct aug charges                                     
   LPAW   =        T    paw PP                                                  
   EAUG   =  644.873                                                            
   DEXC   =    0.000                                                            
   RMAX   =    1.529    core radius for proj-oper                               
   RAUG   =    1.300    factor for augmentation sphere                          
   RDEP   =    1.501    radius for radial grids                                 
   RDEPT  =    1.300    core radius for aug-charge                              
                                                                                
   Atomic configuration                                                         
    4 entries                                                                   
     n  l   j            E        occ.                                          
     1  0  0.50      -273.3789   2.0000                                         
     2  0  0.50       -13.7508   2.0000                                         
     2  1  0.50        -5.2854   2.0000                                         
     3  2  1.50        -5.4423   0.0000                                         
   Description                                                                  
     l       E           TYP  RCUT    TYP  RCUT                                 
     0    -13.7508458     23  1.200                                             
     0     -8.2022199     23  1.200                                             
     1     -5.2854383     23  1.500                                             
     1     34.0145650     23  1.500                                             
     2     -5.4423304      7  1.500                                             
  local pseudopotential read in
  partial core-charges read in
  partial kinetic energy density read in
  atomic valenz-charges read in
  non local Contribution for L=           0  read in
    real space projection operators read in
  non local Contribution for L=           0  read in
    real space projection operators read in
  non local Contribution for L=           1  read in
    real space projection operators read in
  non local Contribution for L=           1  read in
    real space projection operators read in
    PAW grid and wavefunctions read in
 
   number of l-projection  operators is LMAX  =           4
   number of lm-projection operators is LMMAX =           8
 
 POTCAR:    PAW_PBE N 08Apr2002                   
   VRHFIN =N: s2p3                                                              
   LEXCH  = PE                                                                  
   EATOM  =   264.5486 eV,   19.4438 Ry                                         
                                                                                
   TITEL  = PAW_PBE N 08Apr2002                                                 
   LULTRA =        F    use ultrasoft PP ?                                      
   IUNSCR =        1    unscreen: 0-lin 1-nonlin 2-no                           
   RPACOR =    1.200    partial core radius                                     
   POMASS =   14.001; ZVAL   =    5.000    mass and valenz                      
   RCORE  =    1.500    outmost cutoff radius                                   
   RWIGS  =    1.400; RWIGS  =    0.741    wigner-seitz radius (au A)           
   ENMAX  =  400.000; ENMIN  =  300.000 eV                                      
   ICORE  =        2    local potential                                         
   LCOR   =        T    correct aug charges                                     
   LPAW   =        T    paw PP                                                  
   EAUG   =  627.112                                                            
   DEXC   =    0.000                                                            
   RMAX   =    1.529    core radius for proj-oper                               
   RAUG   =    1.300    factor for augmentation sphere                          
   RDEP   =    1.514    radius for radial grids                                 
   RDEPT  =    1.338    core radius for aug-charge                              
                                                                                
   Atomic configuration                                                         
    4 entries                                                                   
     n  l   j            E        occ.                                          
     1  0  0.50      -384.7179   2.0000                                         
     2  0  0.50       -18.5828   2.0000                                         
     2  1  0.50        -7.0898   3.0000                                         
     3  2  1.50        -6.8029   0.0000                                         
   Description                                                                  
     l       E           TYP  RCUT    TYP  RCUT                                 
     0    -18.5828119     23  1.200                                             
     0    -13.5018863     23  1.200                                             
     1     -7.0897853     23  1.500                                             
     1      9.5240782     23  1.500                                             
     2     -6.8029130      7  1.500                                             
  local pseudopotential read in
  partial core-charges read in
  partial kinetic energy density read in
  atomic valenz-charges read in
  non local Contribution for L=           0  read in
    real space projection operators read in
  non local Contribution for L=           0  read in
    real space projection operators read in
  non local Contribution for L=           1  read in
    real space projection operators read in
  non local Contribution for L=           1  read in
    real space projection operators read in
    PAW grid and wavefunctions read in
 
   number of l-projection  operators is LMAX  =           4
   number of lm-projection operators is LMMAX =           8
 
 POTCAR:    PAW_PBE Fe 06Sep2000                  
   VRHFIN =Fe:  d7 s1                                                           
   LEXCH  = PE                                                                  
   EATOM  =   594.3153 eV,   43.6809 Ry                                         
                                                                                
   TITEL  = PAW_PBE Fe 06Sep2000                                                
   LULTRA =        F    use ultrasoft PP ?                                      
   IUNSCR =        1    unscreen: 0-lin 1-nonlin 2-no                           
   RPACOR =    2.000    partial core radius                                     
   POMASS =   55.847; ZVAL   =    8.000    mass and valenz                      
   RCORE  =    2.300    outmost cutoff radius                                   
   RWIGS  =    2.460; RWIGS  =    1.302    wigner-seitz radius (au A)           
   ENMAX  =  267.882; ENMIN  =  200.911 eV                                      
   RCLOC  =    1.701    cutoff for local pot                                    
   LCOR   =        T    correct aug charges                                     
   LPAW   =        T    paw PP                                                  
   EAUG   =  511.368                                                            
   DEXC   =    0.000                                                            
   RMAX   =    2.356    core radius for proj-oper                               
   RAUG   =    1.300    factor for augmentation sphere                          
   RDEP   =    2.442    radius for radial grids                                 
   RDEPT  =    1.890    core radius for aug-charge                              
                                                                                
   Atomic configuration                                                         
    9 entries                                                                   
     n  l   j            E        occ.                                          
     1  0  0.50     -6993.8440   2.0000                                         
     2  0  0.50      -814.6047   2.0000                                         
     2  1  1.50      -693.3689   6.0000                                         
     3  0  0.50       -89.4732   2.0000                                         
     3  1  1.50       -55.6373   6.0000                                         
     3  2  2.50        -3.8151   7.0000                                         
     4  0  0.50        -4.2551   1.0000                                         
     4  1  1.50        -3.4015   0.0000                                         
     4  3  2.50        -1.3606   0.0000                                         
   Description                                                                  
     l       E           TYP  RCUT    TYP  RCUT                                 
     2     -3.8151135     23  2.300                                             
     2     -5.1756961     23  2.300                                             
     0     -4.2550963     23  2.300                                             
     0      7.2035603     23  2.300                                             
     1     -2.7211652     23  2.300                                             
     1     18.4316424     23  2.300                                             
  local pseudopotential read in
  partial core-charges read in
  partial kinetic energy density read in
  atomic valenz-charges read in
  non local Contribution for L=           2  read in
    real space projection operators read in
  non local Contribution for L=           2  read in
    real space projection operators read in
  non local Contribution for L=           0  read in
    real space projection operators read in
  non local Contribution for L=           0  read in
    real space projection operators read in
  non local Contribution for L=           1  read in
    real space projection operators read in
  non local Contribution for L=           1  read in
    real space projection operators read in
    PAW grid and wavefunctions read in
 
   number of l-projection  operators is LMAX  =           6
   number of lm-projection operators is LMMAX =          18
 
 POTCAR:    PAW_PBE Sc_sv 07Sep2000               
   VRHFIN =Sc: 3p4s3d                                                           
   LEXCH  = PE                                                                  
   EATOM  =  1273.2868 eV,   93.5839 Ry                                         
                                                                                
   TITEL  = PAW_PBE Sc_sv 07Sep2000                                             
   LULTRA =        F    use ultrasoft PP ?                                      
   IUNSCR =        1    unscreen: 0-lin 1-nonlin 2-no                           
   RPACOR =    2.200    partial core radius                                     
   POMASS =   44.956; ZVAL   =   11.000    mass and valenz                      
   RCORE  =    2.500    outmost cutoff radius                                   
   RWIGS  =    2.700; RWIGS  =    1.429    wigner-seitz radius (au A)           
   ENMAX  =  222.660; ENMIN  =  166.995 eV                                      
   RCLOC  =    1.805    cutoff for local pot                                    
   LCOR   =        T    correct aug charges                                     
   LPAW   =        T    paw PP                                                  
   EAUG   =  443.063                                                            
   RMAX   =    2.551    core radius for proj-oper                               
   RAUG   =    1.300    factor for augmentation sphere                          
   RDEP   =    2.650    radius for radial grids                                 
   RDEPT  =    2.038    core radius for aug-charge                              
                                                                                
   Atomic configuration                                                         
    8 entries                                                                   
     n  l   j            E        occ.                                          
     1  0  0.50     -4394.2533   2.0000                                         
     2  0  0.50      -471.0040   2.0000                                         
     2  1  1.50      -384.9788   6.0000                                         
     3  0  0.50       -52.1410   2.0000                                         
     4  0  0.50        -3.5584   1.0000                                         
     3  1  1.50       -30.8841   6.0000                                         
     3  2  2.50        -1.3655   2.0000                                         
     4  3  2.50        -1.3606   0.0000                                         
   Description                                                                  
     l       E           TYP  RCUT    TYP  RCUT                                 
     0    -52.1409870     23  1.800                                             
     0     -3.5583698     23  2.500                                             
     1    -30.8840697     23  2.300                                             
     1      4.0817478     23  2.300                                             
     2     -1.3655397     23  2.500                                             
     2      0.3564476     23  2.500                                             
  local pseudopotential read in
  partial core-charges read in
  partial kinetic energy density read in
  atomic valenz-charges read in
  non local Contribution for L=           0  read in
    real space projection operators read in
  non local Contribution for L=           0  read in
    real space projection operators read in
  non local Contribution for L=           1  read in
    real space projection operators read in
  non local Contribution for L=           1  read in
    real space projection operators read in
  non local Contribution for L=           2  read in
    real space projection operators read in
  non local Contribution for L=           2  read in
    real space projection operators read in
    PAW grid and wavefunctions read in
 
   number of l-projection  operators is LMAX  =           6
   number of lm-projection operators is LMMAX =          18
 

 ----------------------------------------------------------------------------- 
|                                                                             |
|  ADVICE TO THIS USER RUNNING 'VASP/VAMP'   (HEAR YOUR MASTER'S VOICE ...):  |
|                                                                             |
|      You have a (more or less) 'large supercell' and for larger cells       |
|      it might be more efficient to use real space projection opertators     |
|      So try LREAL= Auto  in the INCAR   file.                               |
|      Mind:          For very  accurate calculation you might also keep the  |
|      reciprocal projection scheme          (i.e. LREAL=.FALSE.)             |
|                                                                             |
 ----------------------------------------------------------------------------- 

  PAW_PBE C 08Apr2002                   :
 energy of atom  1       EATOM= -147.1560
 kinetic energy error for atom=    0.0076 (will be added to EATOM!!)
  PAW_PBE N 08Apr2002                   :
 energy of atom  2       EATOM= -264.5486
 kinetic energy error for atom=    0.0138 (will be added to EATOM!!)
  PAW_PBE Fe 06Sep2000                  :
 energy of atom  3       EATOM= -594.3153
 kinetic energy error for atom=    0.0026 (will be added to EATOM!!)
  PAW_PBE Sc_sv 07Sep2000               :
 energy of atom  4       EATOM=-1273.2868
 kinetic energy error for atom=    0.0031 (will be added to EATOM!!)
 
 
 POSCAR:  C  N Fe Sc                             
  positions in cartesian coordinates
  No initial velocities read in
 exchange correlation table for  LEXCH =        8
   RHO(1)=    0.500       N(1)  =     2000
   RHO(2)=  100.500       N(2)  =     4000

 VTST: version 3.2, (02/03/18)

 CHAIN: initializing optimizer
 
 OPT: Using VASP Conjugate-Gradient optimizer
 CHAIN: Read ICHAIN            0
 
 POSCAR:  C  N Fe Sc                             
  positions in cartesian coordinates
  No initial velocities read in
 


--------------------------------------------------------------------------------------------------------


 ion  position               nearest neighbor table
   1  0.221  0.001  0.492-   3 1.43  19 1.43   4 1.44
   2  0.057  0.100  0.488-   3 1.43  37 1.43   7 1.44
   3  0.111  0.000  0.490-   1 1.43   2 1.43  17 1.43
   4  0.277  0.102  0.492-  21 1.42   1 1.44   5 1.44
   5  0.224  0.203  0.494-   7 1.44   4 1.44   8 1.45
   6  0.056  0.300  0.492-  41 1.43   7 1.43  11 1.43
   7  0.112  0.202  0.491-   6 1.43   5 1.44   2 1.44
   8  0.281  0.305  0.502-   5 1.45  25 1.46   9 1.47
   9  0.220  0.405  0.505-  54 1.38  11 1.43   8 1.47
  10  0.053  0.501  0.499-  14 1.43  45 1.43  11 1.44
  11  0.110  0.401  0.498-   9 1.43   6 1.43  10 1.44
  12  0.217  0.601  0.513-  54 1.38  14 1.43  15 1.45
  13  0.052  0.700  0.499-  14 1.43  49 1.43  18 1.43
  14  0.107  0.601  0.503-  13 1.43  10 1.43  12 1.43
  15  0.274  0.702  0.516-  16 1.44  12 1.45  29 1.46
  16  0.220  0.800  0.502-  18 1.43  15 1.44  19 1.44
  17  0.055  0.900  0.491-  18 1.43  53 1.43   3 1.43
  18  0.109  0.800  0.496-  17 1.43  16 1.43  13 1.43
  19  0.276  0.901  0.497-   1 1.43  31 1.44  16 1.44
  20  0.554  0.998  0.487-  33 1.42  23 1.43  22 1.43
  21  0.388  0.099  0.489-   4 1.42  26 1.43  22 1.43
  22  0.443  1.000  0.489-  31 1.43  20 1.43  21 1.43
  23  0.611  0.097  0.483-  24 1.42  20 1.43  35 1.43
  24  0.556  0.196  0.486-  27 1.42  23 1.42  26 1.43
  25  0.394  0.298  0.503-  55 1.39  26 1.43   8 1.46
  26  0.445  0.198  0.491-  21 1.43  25 1.43  24 1.43
  27  0.614  0.294  0.490-  28 1.41  24 1.42  39 1.42
  28  0.560  0.389  0.507-  56 1.37  55 1.37  27 1.41
  29  0.381  0.713  0.537-  57 1.35  32 1.46  15 1.46
  30  0.554  0.803  0.508-  58 1.39  33 1.43  32 1.44
  31  0.388  0.901  0.498-  22 1.43  32 1.43  19 1.44
  32  0.442  0.804  0.513-  31 1.43  30 1.44  29 1.46
  33  0.609  0.900  0.492-  20 1.42  30 1.43  51 1.43
  34  0.889  0.999  0.485-  53 1.43  36 1.43  37 1.44
  35  0.722  0.098  0.482-  36 1.43  40 1.43  23 1.43
  36  0.778  0.998  0.484-  51 1.43  35 1.43  34 1.43
  37  0.945  0.099  0.485-  38 1.43   2 1.43  34 1.44
  38  0.890  0.199  0.485-  37 1.43  40 1.43  41 1.43
  39  0.724  0.296  0.488-  27 1.42  40 1.42  44 1.43
  40  0.779  0.197  0.483-  39 1.42  38 1.43  35 1.43
  41  0.945  0.300  0.489-   6 1.43  38 1.43  42 1.43
  42  0.889  0.399  0.493-  44 1.42  45 1.43  41 1.43
  43  0.719  0.493  0.505-  56 1.39  44 1.43  48 1.46
  44  0.778  0.397  0.494-  42 1.42  43 1.43  39 1.43
  45  0.941  0.500  0.497-  42 1.43  10 1.43  46 1.44
  46  0.884  0.599  0.500-  49 1.44  45 1.44  48 1.46
  47  0.717  0.702  0.506-  58 1.39  52 1.43  48 1.47
  48  0.770  0.598  0.506-  46 1.46  43 1.46  47 1.47
  49  0.940  0.699  0.497-  50 1.43  13 1.43  46 1.44
  50  0.887  0.799  0.493-  52 1.43  49 1.43  53 1.44
  51  0.721  0.899  0.490-  36 1.43  52 1.43  33 1.43
  52  0.775  0.800  0.495-  50 1.43  51 1.43  47 1.43
  53  0.943  0.899  0.489-  34 1.43  17 1.43  50 1.44
  54  0.267  0.504  0.517-  12 1.38   9 1.38  59 1.92
  55  0.455  0.388  0.519-  28 1.37  25 1.39  59 1.90
  56  0.613  0.483  0.518-  28 1.37  43 1.39  60 2.11
  57  0.427  0.648  0.582-  29 1.35  59 1.86  60 1.98
  58  0.611  0.709  0.518-  30 1.39  47 1.39  60 2.07
  59  0.393  0.503  0.568-  57 1.86  55 1.90  54 1.92  60 2.62
  60  0.572  0.599  0.592-  57 1.98  58 2.07  56 2.11  59 2.62
 
  LATTYP: Found a triclinic cell.
 ALAT       =    26.5989582611
 B/A-ratio  =     0.4836392416
 C/A-ratio  =     0.4664205221
 COS(alpha) =     0.0083390865
 COS(beta)  =     0.4639494880
 COS(gamma) =     0.4778504209
  
  Lattice vectors:
  
 A1 = (  12.7103234016, -12.2350060010, -19.9062022435)
 A2 = (  12.8643000000,   0.0000000000,   0.0000000000)
 A3 = (   0.1034572090, -12.4058686232,   0.0000000000)


Analysis of symmetry for initial positions (statically):
=====================================================================
 Subroutine PRICEL returns:
 Original cell was already a primitive cell.
 

 Routine SETGRP: Setting up the symmetry group for a 
 triclinic supercell.


 Subroutine GETGRP returns: Found  1 space group operations
 (whereof  1 operations were pure point group operations)
 out of a pool of  2 trial point group operations.


The static configuration has the point symmetry C_1 .


Analysis of symmetry for dynamics (positions and initial velocities):
=====================================================================
 Subroutine PRICEL returns:
 Original cell was already a primitive cell.
 

 Routine SETGRP: Setting up the symmetry group for a 
 triclinic supercell.


 Subroutine GETGRP returns: Found  1 space group operations
 (whereof  1 operations were pure point group operations)
 out of a pool of  2 trial point group operations.


The dynamic configuration has the point symmetry C_1 .


Analysis of structural, dynamic, and magnetic symmetry:
=====================================================================
 Subroutine PRICEL returns:
 Original cell was already a primitive cell.
 

 Routine SETGRP: Setting up the symmetry group for a 
 triclinic supercell.


 Subroutine GETGRP returns: Found  1 space group operations
 (whereof  1 operations were pure point group operations)
 out of a pool of  2 trial point group operations.


The magnetic configuration has the point symmetry C_1 .


 Subroutine INISYM returns: Found  1 space group operations
 (whereof  1 operations are pure point group operations),
 and found     1 'primitive' translations

 
 
 KPOINTS: KPOINTS created by Atomic Simulation Env

Automatic generation of k-mesh.
Space group operators:
 irot       det(A)        alpha          n_x          n_y          n_z        tau_x        tau_y        tau_z
    1     1.000000     0.000000     1.000000     0.000000     0.000000     0.000000     0.000000     0.000000
 
 Subroutine IBZKPT returns following result:
 ===========================================
 
 Found      2 irreducible k-points:
 
 Following reciprocal coordinates:
            Coordinates               Weight
  0.250000  0.250000  0.000000      2.000000
 -0.250000  0.250000  0.000000      2.000000
 
 Following cartesian coordinates:
            Coordinates               Weight
  0.019434  0.020314 -0.000077      2.000000
 -0.019434  0.019990  0.000423      2.000000
 
 
 Subroutine IBZKPT_HF returns following result:
 ==============================================
 
 Found      4 k-points in 1st BZ
 the following      4 k-points will be used (e.g. in the exchange kernel)
 Following reciprocal coordinates:   # in IRBZ
  0.250000  0.250000  0.000000    0.25000000   1 t-inv F
 -0.250000  0.250000  0.000000    0.25000000   2 t-inv F
 -0.250000 -0.250000 -0.000000    0.25000000   1 t-inv T
  0.250000 -0.250000  0.000000    0.25000000   2 t-inv T


--------------------------------------------------------------------------------------------------------




 Dimension of arrays:
   k-points           NKPTS =      2   k-points in BZ     NKDIM =      4   number of bands    NBANDS=    163
   number of dos      NEDOS =    301   number of ions     NIONS =     60
   non local maximal  LDIM  =      6   non local SUM 2l+1 LMDIM =     18
   total plane-waves  NPLWV = ******
   max r-space proj   IRMAX =      1   max aug-charges    IRDMAX=  18216
   dimension x,y,z NGX =    96 NGY =   90 NGZ =  150
   dimension x,y,z NGXF=   192 NGYF=  180 NGZF=  300
   support grid    NGXF=   192 NGYF=  180 NGZF=  300
   ions per type =              53   5   1   1
   NGX,Y,Z   is equivalent  to a cutoff of  12.41, 12.06, 12.53 a.u.
   NGXF,Y,Z  is equivalent  to a cutoff of  24.81, 24.12, 25.05 a.u.

 SYSTEM =  unknown system                          
 POSCAR =   C  N Fe Sc                             

 Startparameter for this run:
   NWRITE =      2    write-flag & timer
   PREC   = accura    normal or accurate (medium, high low for compatibility)
   ISTART =      1    job   : 0-new  1-cont  2-samecut
   ICHARG =      0    charge: 1-file 2-atom 10-const
   ISPIN  =      2    spin polarized calculation?
   LNONCOLLINEAR =      F non collinear calculations
   LSORBIT =      F    spin-orbit coupling
   INIWAV =      1    electr: 0-lowe 1-rand  2-diag
   LASPH  =      T    aspherical Exc in radial PAW
   METAGGA=      F    non-selfconsistent MetaGGA calc.

 Electronic Relaxation 1
   ENCUT  =  500.0 eV  36.75 Ry    6.06 a.u.  23.45 22.62 36.30*2*pi/ulx,y,z
   ENINI  =  500.0     initial cutoff
   ENAUG  =  644.9 eV  augmentation charge cutoff
   NELM   =    250;   NELMIN=  2; NELMDL=  0     # of ELM steps 
   EDIFF  = 0.1E-03   stopping-criterion for ELM
   LREAL  =      F    real-space projection
   NLSPLINE    = F    spline interpolate recip. space projectors
   LCOMPAT=      F    compatible to vasp.4.4
   GGA_COMPAT  = T    GGA compatible to vasp.4.4-vasp.4.6
   LMAXPAW     = -100 max onsite density
   LMAXMIX     =    2 max onsite mixed and CHGCAR
   VOSKOWN=      0    Vosko Wilk Nusair interpolation
   ROPT   =    0.00000   0.00000   0.00000   0.00000
 Ionic relaxation
   EDIFFG = -.3E-01   stopping-criterion for IOM
   NSW    =      0    number of steps for IOM
   NBLOCK =      1;   KBLOCK =      1    inner block; outer block 
   IBRION =     -1    ionic relax: 0-MD 1-quasi-New 2-CG
   NFREE  =      1    steps in history (QN), initial steepest desc. (CG)
   ISIF   =      2    stress and relaxation
   IWAVPR =     10    prediction:  0-non 1-charg 2-wave 3-comb
   ISYM   =      3    0-nonsym 1-usesym 2-fastsym
   LCORR  =      T    Harris-Foulkes like correction to forces

   POTIM  = 0.5000    time-step for ionic-motion
   TEIN   =    0.0    initial temperature
   TEBEG  =    0.0;   TEEND  =   0.0 temperature during run
   SMASS  =  -3.00    Nose mass-parameter (am)
   estimated Nose-frequenzy (Omega)   =  0.10E-29 period in steps =****** mass=  -0.378E-26a.u.
   SCALEE = 1.0000    scale energy and forces
   NPACO  =    256;   APACO  = 16.0  distance and # of slots for P.C.
   PSTRESS=    0.0 pullay stress

  Mass of Ions in am
   POMASS =  12.01 14.00 55.85 44.96
  Ionic Valenz
   ZVAL   =   4.00  5.00  8.00 11.00
  Atomic Wigner-Seitz radii
   RWIGS  =  -1.00 -1.00 -1.00 -1.00
  virtual crystal weights 
   VCA    =   1.00  1.00  1.00  1.00
   NELECT =     256.0000    total number of electrons
   NUPDOWN=      -1.0000    fix difference up-down

 DOS related values:
   EMIN   =  10.00;   EMAX   =-10.00  energy-range for DOS
   EFERMI =   0.00
   ISMEAR =     0;   SIGMA  =   0.10  broadening in eV -4-tet -1-fermi 0-gaus

 Electronic relaxation 2 (details)
   IALGO  =     53    algorithm
   LDIAG  =      T    sub-space diagonalisation (order eigenvalues)
   LSUBROT=      F    optimize rotation matrix (better conditioning)
   TURBO    =      0    0=normal 1=particle mesh
   IRESTART =      0    0=no restart 2=restart with 2 vectors
   NREBOOT  =      0    no. of reboots
   NMIN     =      0    reboot dimension
   EREF     =   0.00    reference energy to select bands
   IMIX   =      4    mixing-type and parameters
     AMIX     =   0.40;   BMIX     =  1.00
     AMIX_MAG =   1.60;   BMIX_MAG =  1.00
     AMIN     =   0.10
     WC   =   100.;   INIMIX=   1;  MIXPRE=   1;  MAXMIX= -45

 Intra band minimization:
   WEIMIN = 0.0000     energy-eigenvalue tresh-hold
   EBREAK =  0.15E-06  absolut break condition
   DEPER  =   0.30     relativ break condition  

   TIME   =   0.20     timestep for ELM

  volume/ion in A,a.u.               =      52.95       357.31
  Fermi-wavevector in a.u.,A,eV,Ry     =   0.707111  1.336246  6.802993  0.500006
  Thomas-Fermi vector in A             =   1.793072
 
 Write flags
   LWAVE        =      T    write WAVECAR
   LDOWNSAMPLE  =      F    k-point downsampling of WAVECAR
   LCHARG       =      T    write CHGCAR
   LVTOT        =      F    write LOCPOT, total local potential
   LVHAR        =      F    write LOCPOT, Hartree potential only
   LELF         =      F    write electronic localiz. function (ELF)
   LORBIT       =     11    0 simple, 1 ext, 2 COOP (PROOUT), +10 PAW based schemes


 Dipole corrections
   LMONO  =      F    monopole corrections only (constant potential shift)
   LDIPOL =      T    correct potential (dipole corrections)
   IDIPOL =      3    1-x, 2-y, 3-z, 4-all directions 
   EPSILON=  1.0000000 bulk dielectric constant

 Exchange correlation treatment:
   GGA     =    PE    GGA type
   LEXCH   =     8    internal setting for exchange type
   VOSKOWN=      0    Vosko Wilk Nusair interpolation
   EXXOEP  =     0    0=HF, 1=EXX-LHF (local Hartree Fock) 2=EXX OEP
   LHFCALC =     T    Hartree Fock is set to
   LSYMGRAD=     F    symmetrize gradient (conserves proper symmetry)
   PRECFOCK=normal    Normal, Fast or Accurate (Low or Medium for compatibility)
   LRHFCALC=     F    long range Hartree Fock
   LRSCOR  =     F    long range correlation only (use DFT for short range part)
   LTHOMAS =     F    Thomas Fermi screening in HF
   LMODELHF=     F    short range full HF, long range fraction AEXX
   ENCUT4O =  -1.0   cutoff for four orbital integrals eV
   LMAXFOCK=     4    L truncation for augmentation on plane wave grid
   LMAXFOCKAE=  -1    L truncation for all-electron charge restoration on plane wave grid
   NMAXFOCKAE=   1    number of basis functions for all-electron charge restoration
   LFOCKAEDFT=     F  apply the AE augmentation even for DFT
   NKREDX  =     1    reduce k-point grid by
   NKREDY  =     1    reduce k-point grid by
   NKREDZ  =     1    reduce k-point grid by
   SHIFTRED=     F    shift reduced grid of Gamma
   HFKIDENT=     F    idential grid for each k-point
   ODDONLY =     F    use only odd q-grid points
   EVENONLY=     F    use only even q-grid points
   HFALPHA =   -1.0000 decay constant for conv. correction
   MCALPHA =    0.0000 extent of test-charge in conv. correction in multipole expansion
   AEXX    =    0.2500 exact exchange contribution
   HFSCREEN=    0.2000 screening length (either q_TF or 0.3 A-1)
   HFSCREENC=   0.2000 screening length for correlation (either q_TF or 0.3 A-1)
   HFRCUT  =    0.0000 spherical cutoff for potential kernel
   ALDAX   =    0.7500 LDA exchange part
   AGGAX   =    0.7500 GGA exchange part
   ALDAC   =    1.0000 LDA correlation
   AGGAC   =    1.0000 GGA correlation
   ENCUTFOCK=  -1.0 apply spherical cutoff to Coloumb kernel
   NBANDSGWLOW=     1    first orbital included in HF term
   NBLOCK_FOCK=    64    blocking factor in FOCK_ACC
 Linear response parameters
   LEPSILON=     F    determine dielectric tensor
   LRPA    =     F    only Hartree local field effects (RPA)
   LNABLA  =     F    use nabla operator in PAW spheres
   LVEL    =     F    velocity operator in full k-point grid
   LINTERFAST=   F  fast interpolation
   KINTER  =     0    interpolate to denser k-point grid
   CSHIFT  =0.1000    complex shift for real part using Kramers Kronig
   OMEGAMAX=  -1.0    maximum frequency
   DEG_THRESHOLD= 0.2000000E-02 threshold for treating states as degnerate
   RTIME   =   -0.100 relaxation time in fs
  (WPLASMAI=    0.000 imaginary part of plasma frequency in eV, 0.658/RTIME)
   DFIELD  = 0.0000000 0.0000000 0.0000000 field for delta impulse in time
 
 Orbital magnetization related:
   ORBITALMAG=     F  switch on orbital magnetization
   LCHIMAG   =     F  perturbation theory with respect to B field
   DQ        =  0.001000  dq finite difference perturbation B field
   LLRAUG    =     F  two centre corrections for induced B field



--------------------------------------------------------------------------------------------------------


 Static calculation
 charge density and potential will be updated during run
 spin polarized calculation
 Conjugate gradient for all bands (Freysoldt, et al. PRB 79, 241103 (2009))
 perform sub-space diagonalisation
    before iterative eigenvector-optimisation
 modified Broyden-mixing scheme, WC =      100.0
 initial mixing is a Kerker type mixing with AMIX =  0.4000 and BMIX =      1.0000
 Hartree-type preconditioning will be used
 using additional bands           35
 reciprocal scheme for non local part
 use partial core corrections
 no Harris-corrections to forces 
 use gradient corrections 
 use of overlap-Matrix (Vanderbilt PP)
 Gauss-broadening in eV      SIGMA  =   0.10


--------------------------------------------------------------------------------------------------------


  energy-cutoff  :      500.00
  volume of cell :     3176.89
      direct lattice vectors                 reciprocal lattice vectors
    12.864300000  0.000000000  0.000000000     0.077734506  0.000648257 -0.000999725
    -0.103457209 12.405868623  0.000000000     0.000000000  0.080607012  0.000691881
     0.257433807 -0.170862622 19.906202244     0.000000000  0.000000000  0.050235599

  length of vectors
    12.864300000 12.406300000 19.908600000     0.077743637  0.080609981  0.050235599


 
 old parameters found on file WAVECAR:
  energy-cutoff  :      500.00
  volume of cell :     3176.89
      direct lattice vectors                 reciprocal lattice vectors
    12.864300000  0.000000000  0.000000000     0.077734506  0.000648257 -0.000999725
    -0.103457209 12.405868623  0.000000000     0.000000000  0.080607012  0.000691881
     0.257433807 -0.170862622 19.906202244     0.000000000  0.000000000  0.050235599

  length of vectors

 
 k-points in units of 2pi/SCALE and weight: KPOINTS created by Atomic Simulation Env
   0.01943363  0.02031382 -0.00007696       0.500
  -0.01943363  0.01998969  0.00042290       0.500
 
 k-points in reciprocal lattice and weights: KPOINTS created by Atomic Simulation Env
   0.25000000  0.25000000  0.00000000       0.500
  -0.25000000  0.25000000  0.00000000       0.500
 
 position of ions in fractional coordinates (direct lattice) 
   0.22147769  0.00057774  0.49219970
   0.05667786  0.10049872  0.48802302
   0.11063489  0.00023775  0.48998563
   0.27731573  0.10162370  0.49152658
   0.22405867  0.20340239  0.49426992
   0.05589822  0.30042802  0.49204640
   0.11234913  0.20151190  0.49113441
   0.28065937  0.30464782  0.50178172
   0.22018295  0.40489639  0.50532744
   0.05256427  0.50091601  0.49935598
   0.10966705  0.40148330  0.49810200
   0.21688942  0.60094458  0.51255084
   0.05184876  0.70028680  0.49857247
   0.10686145  0.60140777  0.50299494
   0.27360521  0.70228935  0.51643633
   0.21977975  0.80028126  0.50199509
   0.05460543  0.89980733  0.49078068
   0.10876966  0.80016560  0.49621236
   0.27591630  0.90082262  0.49746285
   0.55415315  0.99836134  0.48660145
   0.38794200  0.09938253  0.48875125
   0.44313298  0.99959580  0.48897602
   0.61115565  0.09725144  0.48294190
   0.55614296  0.19586347  0.48633649
   0.39359176  0.29830865  0.50321465
   0.44491678  0.19834538  0.49085812
   0.61368212  0.29359857  0.48978716
   0.56026944  0.38879248  0.50705103
   0.38144292  0.71295596  0.53744161
   0.55444064  0.80262983  0.50757777
   0.38750008  0.90059680  0.49791489
   0.44238285  0.80422906  0.51275115
   0.60938698  0.89990688  0.49222814
   0.88906608  0.99893146  0.48519458
   0.72244851  0.09770297  0.48220706
   0.77760473  0.99834446  0.48437131
   0.94547535  0.09939969  0.48515304
   0.89017419  0.19867730  0.48495825
   0.72401740  0.29603019  0.48757586
   0.77909025  0.19736100  0.48328086
   0.94483681  0.29957201  0.48894446
   0.88854242  0.39879053  0.49259470
   0.71914044  0.49281170  0.50519642
   0.77788744  0.39689392  0.49381178
   0.94128622  0.50023121  0.49739752
   0.88355158  0.59916081  0.50022407
   0.71702068  0.70232710  0.50558861
   0.77029362  0.59830875  0.50553220
   0.94041710  0.69915805  0.49715037
   0.88659686  0.79922032  0.49283011
   0.72091018  0.89929032  0.48980580
   0.77549063  0.79967244  0.49501501
   0.94328688  0.89914153  0.48873898
   0.26739250  0.50380450  0.51666841
   0.45512808  0.38766771  0.51895662
   0.61313717  0.48344545  0.51775782
   0.42668079  0.64752372  0.58202130
   0.61061495  0.70946462  0.51789577
   0.39325076  0.50338741  0.56787637
   0.57172628  0.59890361  0.59171272
 
 position of ions in cartesian coordinates  (Angst):
   2.97580449 -0.07693117  9.79782687
   0.84435729  1.16338898  9.71468498
   1.54935470 -0.08077073  9.75375312
   3.68349463  1.17674674  9.78442747
   2.98855625  2.43893102  9.83903707
   0.81467940  3.64299819  9.79477514
   1.55087971  2.41601369  9.77662094
   3.70814393  3.69368505  9.98856847
   2.92069842  4.93674987 10.05915031
   0.75293030  6.12897692  9.94028115
   1.49748179  4.89564206  9.91531912
   2.85990648  7.36766375 10.20294071
   0.72289773  8.60247868  9.92468433
   1.44196572  7.37504270 10.01271905
   3.58003081  8.62426978 10.28028594
   2.87374830  9.84241195  9.99281572
   0.73571256 11.07903540  9.76957942
   1.44420447  9.84196514  9.87770360
   3.58433716 11.09048922  9.90259613
   7.15077240 12.30239761  9.68638683
   5.10614153  1.14941733  9.72918122
   5.72305913 12.31730641  9.73365563
   7.97635379  1.12397184  9.61353906
   7.25932587  2.34675973  9.68111261
   5.16196474  3.61479731 10.01709256
   5.82938617  2.37677746  9.77112102
   7.99030375  3.55865895  9.74980221
   7.29778280  4.73667238 10.09346030
   4.97159137  8.75300929 10.69842135
   7.18012052  9.87059418 10.10394567
   5.01992423 11.08761051  9.91159451
   5.73974182  9.88955000 10.20692814
   7.87295119 11.08002313  9.79839300
  11.45877156 12.30971078  9.65838147
   9.40782267  1.12969904  9.59891133
  10.02474820 12.30256923  9.64199332
  12.27748973  1.15024501  9.65755447
  11.55575788  2.38190327  9.65367694
   9.40886910  3.58920318  9.70578376
  10.12644506  2.36586004  9.62028653
  12.24954213  3.63290870  9.73302740
  11.51602900  4.86317695  9.80568966
   9.33030804  6.02743796 10.05654220
  10.09303968  4.83943985  9.82991722
  12.18528278  6.12081605  9.90129557
  11.43305966  7.34764070  9.95756149
   9.28146388  8.62659152 10.06434918
   9.97753000  7.33616322 10.06322615
  12.15345810  8.58871852  9.89637574
  11.44963400  9.83081600  9.81037581
   9.30705929 11.07278810  9.75017323
  10.02084578  9.83605166  9.85386883
  12.16752071 11.07112446  9.72893693
   3.52070303  6.16185317 10.28490585
   5.94839414  4.72068436 10.33045551
   7.97085296  5.90909527 10.30659184
   5.57179064  7.93364851 11.58583378
   7.91505849  8.71303587 10.30933791
   5.15300729  6.14792921 11.30426183
   7.44522433  7.32881791 11.77875312
 


--------------------------------------------------------------------------------------------------------


 k-point  1 :   0.2500 0.2500 0.0000  plane waves:   80672
 k-point  2 :  -0.2500 0.2500 0.0000  plane waves:   80665

 maximum and minimum number of plane-waves per node :      5065     5008

 maximum number of plane-waves:     80672
 maximum index in each direction: 
   IXMAX=   23   IYMAX=   22   IZMAX=   36
   IXMIN=  -23   IYMIN=  -22   IZMIN=  -36


 parallel 3D FFT for wavefunctions:
    minimum data exchange during FFTs selected (reduces bandwidth)
 parallel 3D FFT for charge:
    minimum data exchange during FFTs selected (reduces bandwidth)


 FFT grid for exact exchange (Hartree Fock) 
  NGX = 72; NGY = 70; NGZ =112

 
 Radii for the augmentation spheres in the non-local exchange
 for species   1 augmentation radius   0.874 (default was   0.699)
       energy cutoff for augmentation   2000.0
 for species   2 augmentation radius   0.886 (default was   0.709)
       energy cutoff for augmentation   2000.0
 for species   3 augmentation radius   1.263 (default was   1.010)
       energy cutoff for augmentation   2000.0
 for species   4 augmentation radius   1.357 (default was   1.085)
       energy cutoff for augmentation   2000.0

 real space projection operators:
  total allocation   :       2670.95 KBytes
  max/ min on nodes  :        187.27        150.42

 Maximum index for augmentation-charges in exchange          116
  SETUP_FOCK is finished

 total amount of memory used by VASP MPI-rank0   298727. kBytes
=======================================================================

   base      :      30000. kBytes
   nonl-proj :      10714. kBytes
   fftplans  :      26523. kBytes
   grid      :      69087. kBytes
   one-center:        124. kBytes
   HF        :         23. kBytes
   nonlr-proj:       2179. kBytes
   wavefun   :     160077. kBytes
 
     INWAV:  cpu time    6.4645: real time    9.1699
 Broyden mixing: mesh for mixing (old mesh)
   NGX = 47   NGY = 45   NGZ = 73
  (NGX  =192   NGY  =180   NGZ  =300)
  gives a total of 154395 points

 charge density for first step will be calculated from the start-wavefunctions


--------------------------------------------------------------------------------------------------------


 Maximum index for augmentation-charges         1013 (set IRDMAX)


--------------------------------------------------------------------------------------------------------


 initial charge from wavefunction
 First call to EWALD:  gamma=   0.121
 Maximum number of real-space cells 3x 3x 2
 Maximum number of reciprocal cells 2x 2x 4

    FEWALD:  cpu time    0.0027: real time    0.0027


--------------------------------------- Iteration      1(   1)  ---------------------------------------


    POTLOK:  cpu time    6.3228: real time    6.3330
    SETDIJ:  cpu time    3.2207: real time    3.2239
    TRIAL :  cpu time  637.3129: real time  638.6365
    CORREC:  cpu time    0.0049: real time    0.0048
    CHARGE:  cpu time    1.7314: real time    1.7357
    --------------------------------------------
      LOOP:  cpu time  648.6459: real time  649.9888

 eigenvalue-minimisations  :     0
 total energy-change (2. order) :-0.6281623E+03  (-0.4555233E+00)
 number of electron     256.0000008 magnetization       2.5712352
 augmentation part       13.3447948 magnetization       2.0023271

 DIPCOR: dipole corrections for dipol
 direction  3 min pos     1,
 dipolmoment          -0.009287      0.006164     -0.718156 electrons x Angstroem
 Tr[quadrupol]     -7175.880071

 energy correction for charged system         0.000000 eV
 dipol+quadrupol energy correction            0.014748 eV
 added-field ion interaction          0.000000 eV  (added to PSCEN)


 Free energy of the ion-electron system (eV)
  ---------------------------------------------------
  alpha Z        PSCENC =       114.25591976
  Ewald energy   TEWEN  =     41088.07278837
  -Hartree energ DENC   =    -50458.05168575
  -exchange      EXHF   =       590.68597194
  -V(xc)+E(xc)   XCENC  =       679.64023307
  PAW double counting   =     27885.81830465   -27914.86075433
  entropy T*S    EENTRO =        -0.03770966
  eigenvalues    EBANDS =     -3488.49381333
  atomic energy  EATOM  =     10874.80873591
  ---------------------------------------------------
  free energy    TOTEN  =      -628.16225313 eV

  energy without entropy =     -628.12454348  energy(sigma->0) =     -628.14339831
  exchange ACFDT corr.  =        -0.02036974  see jH, gK, PRB 81, 115126


--------------------------------------------------------------------------------------------------------




--------------------------------------- Iteration      1(   2)  ---------------------------------------


    POTLOK:  cpu time    6.3852: real time    6.3941
    SETDIJ:  cpu time    3.2123: real time    3.2160
    TRIAL :  cpu time  634.8350: real time  636.1979
    CORREC:  cpu time    0.0011: real time    0.0011
    CHARGE:  cpu time    1.6944: real time    1.6976
    --------------------------------------------
      LOOP:  cpu time  646.1292: real time  647.5105

 eigenvalue-minimisations  :     0
 total energy-change (2. order) :-0.3601517E+00  (-0.3708910E+00)
 number of electron     256.0000008 magnetization       2.5831579
 augmentation part       13.3170951 magnetization       2.0481651

 DIPCOR: dipole corrections for dipol
 direction  3 min pos     1,
 dipolmoment          -0.010042      0.006665     -0.776517 electrons x Angstroem
 Tr[quadrupol]     -7175.856266

 energy correction for charged system         0.000000 eV
 dipol+quadrupol energy correction            0.017242 eV
 added-field ion interaction          0.000000 eV  (added to PSCEN)


 Free energy of the ion-electron system (eV)
  ---------------------------------------------------
  alpha Z        PSCENC =       114.25841414
  Ewald energy   TEWEN  =     41088.07278837
  -Hartree energ DENC   =    -50442.65701879
  -exchange      EXHF   =       590.53337840
  -V(xc)+E(xc)   XCENC  =       679.18741006
  PAW double counting   =     28137.44965314   -28166.54348221
  entropy T*S    EENTRO =        -0.03745079
  eigenvalues    EBANDS =     -3503.59457421
  atomic energy  EATOM  =     10874.80873591
  ---------------------------------------------------
  free energy    TOTEN  =      -628.52240486 eV

  energy without entropy =     -628.48495407  energy(sigma->0) =     -628.50367946
  exchange ACFDT corr.  =        -0.01936232  see jH, gK, PRB 81, 115126


--------------------------------------------------------------------------------------------------------




--------------------------------------- Iteration      1(   3)  ---------------------------------------


    POTLOK:  cpu time    6.4167: real time    6.4284
    SETDIJ:  cpu time    3.2264: real time    3.2291
    TRIAL :  cpu time  633.0218: real time  634.3703
    CORREC:  cpu time    0.0057: real time    0.0057
    CHARGE:  cpu time    1.8065: real time    1.8097
    --------------------------------------------
      LOOP:  cpu time  644.4823: real time  645.8516

 eigenvalue-minimisations  :     0
 total energy-change (2. order) :-0.2788176E+00  (-0.2146439E+00)
 number of electron     256.0000008 magnetization       2.5890908
 augmentation part       13.3190165 magnetization       2.0843617

 DIPCOR: dipole corrections for dipol
 direction  3 min pos     1,
 dipolmoment          -0.010604      0.007038     -0.819953 electrons x Angstroem
 Tr[quadrupol]     -7175.814233

 energy correction for charged system         0.000000 eV
 dipol+quadrupol energy correction            0.019225 eV
 added-field ion interaction          0.000000 eV  (added to PSCEN)


 Free energy of the ion-electron system (eV)
  ---------------------------------------------------
  alpha Z        PSCENC =       114.26039704
  Ewald energy   TEWEN  =     41088.07278837
  -Hartree energ DENC   =    -50427.83635879
  -exchange      EXHF   =       590.43520882
  -V(xc)+E(xc)   XCENC  =       678.77474769
  PAW double counting   =     28349.64658007   -28378.70162922
  entropy T*S    EENTRO =        -0.03708625
  eigenvalues    EBANDS =     -3518.22424152
  atomic energy  EATOM  =     10874.80873591
  ---------------------------------------------------
  free energy    TOTEN  =      -628.80122242 eV

  energy without entropy =     -628.76413617  energy(sigma->0) =     -628.78267930
  exchange ACFDT corr.  =        -0.01859581  see jH, gK, PRB 81, 115126


--------------------------------------------------------------------------------------------------------




--------------------------------------- Iteration      1(   4)  ---------------------------------------


    POTLOK:  cpu time    6.4461: real time    6.4601
    SETDIJ:  cpu time    3.1935: real time    3.1962
    TRIAL :  cpu time  632.8623: real time  634.3571
    CORREC:  cpu time    0.0049: real time    0.0049
    CHARGE:  cpu time    1.6987: real time    1.7024
    --------------------------------------------
      LOOP:  cpu time  644.2131: real time  645.7320

 eigenvalue-minimisations  :     0
 total energy-change (2. order) :-0.1590657E+00  (-0.1101489E+00)
 number of electron     256.0000008 magnetization       2.5895777
 augmentation part       13.3253465 magnetization       2.1087173

 DIPCOR: dipole corrections for dipol
 direction  3 min pos     1,
 dipolmoment          -0.010847      0.007199     -0.838731 electrons x Angstroem
 Tr[quadrupol]     -7175.825434

 energy correction for charged system         0.000000 eV
 dipol+quadrupol energy correction            0.020116 eV
 added-field ion interaction          0.000000 eV  (added to PSCEN)


 Free energy of the ion-electron system (eV)
  ---------------------------------------------------
  alpha Z        PSCENC =       114.26128769
  Ewald energy   TEWEN  =     41088.07278837
  -Hartree energ DENC   =    -50422.11031028
  -exchange      EXHF   =       590.52089982
  -V(xc)+E(xc)   XCENC  =       678.62975873
  PAW double counting   =     28427.67162792   -28456.67215872
  entropy T*S    EENTRO =        -0.03664022
  eigenvalues    EBANDS =     -3524.10583136
  atomic energy  EATOM  =     10874.80873591
  ---------------------------------------------------
  free energy    TOTEN  =      -628.96028817 eV

  energy without entropy =     -628.92364795  energy(sigma->0) =     -628.94196806
  exchange ACFDT corr.  =        -0.01804803  see jH, gK, PRB 81, 115126


--------------------------------------------------------------------------------------------------------




--------------------------------------- Iteration      1(   5)  ---------------------------------------


    POTLOK:  cpu time    6.4290: real time    6.4406
    SETDIJ:  cpu time    3.2041: real time    3.2070
    TRIAL :  cpu time  632.5054: real time  633.9283
    CORREC:  cpu time    0.0038: real time    0.0038
    CHARGE:  cpu time    1.7715: real time    1.7748
    --------------------------------------------
      LOOP:  cpu time  643.9218: real time  645.3665

 eigenvalue-minimisations  :     0
 total energy-change (2. order) :-0.8339754E-01  (-0.6511774E-01)
 number of electron     256.0000008 magnetization       2.5861310
 augmentation part       13.3251145 magnetization       2.1247429

 DIPCOR: dipole corrections for dipol
 direction  3 min pos     1,
 dipolmoment          -0.010995      0.007298     -0.850212 electrons x Angstroem
 Tr[quadrupol]     -7175.899646

 energy correction for charged system         0.000000 eV
 dipol+quadrupol energy correction            0.020670 eV
 added-field ion interaction          0.000000 eV  (added to PSCEN)


 Free energy of the ion-electron system (eV)
  ---------------------------------------------------
  alpha Z        PSCENC =       114.26184215
  Ewald energy   TEWEN  =     41088.07278837
  -Hartree energ DENC   =    -50423.52066795
  -exchange      EXHF   =       590.73941435
  -V(xc)+E(xc)   XCENC  =       678.67594125
  PAW double counting   =     28479.31735051   -28508.33303150
  entropy T*S    EENTRO =        -0.03615599
  eigenvalues    EBANDS =     -3523.02941857
  atomic energy  EATOM  =     10874.80873591
  ---------------------------------------------------
  free energy    TOTEN  =      -629.04368571 eV

  energy without entropy =     -629.00752971  energy(sigma->0) =     -629.02560771
  exchange ACFDT corr.  =        -0.01761612  see jH, gK, PRB 81, 115126


--------------------------------------------------------------------------------------------------------




--------------------------------------- Iteration      1(   6)  ---------------------------------------


    POTLOK:  cpu time    6.4058: real time    6.4150
    SETDIJ:  cpu time    3.2030: real time    3.2059
    TRIAL :  cpu time  630.6228: real time  631.9617
    CORREC:  cpu time    0.0010: real time    0.0010
    CHARGE:  cpu time    1.6839: real time    1.6868
    --------------------------------------------
      LOOP:  cpu time  641.9239: real time  643.2816

 eigenvalue-minimisations  :     0
 total energy-change (2. order) :-0.5207890E-01  (-0.4194472E-01)
 number of electron     256.0000008 magnetization       2.5799755
 augmentation part       13.3245734 magnetization       2.1360919

 DIPCOR: dipole corrections for dipol
 direction  3 min pos     1,
 dipolmoment          -0.011148      0.007399     -0.862033 electrons x Angstroem
 Tr[quadrupol]     -7175.993181

 energy correction for charged system         0.000000 eV
 dipol+quadrupol energy correction            0.021249 eV
 added-field ion interaction          0.000000 eV  (added to PSCEN)


 Free energy of the ion-electron system (eV)
  ---------------------------------------------------
  alpha Z        PSCENC =       114.26242093
  Ewald energy   TEWEN  =     41088.07278837
  -Hartree energ DENC   =    -50427.38639235
  -exchange      EXHF   =       590.98423354
  -V(xc)+E(xc)   XCENC  =       678.78546898
  PAW double counting   =     28541.48471979   -28570.56055754
  entropy T*S    EENTRO =        -0.03567147
  eigenvalues    EBANDS =     -3519.51102623
  atomic energy  EATOM  =     10874.80873591
  ---------------------------------------------------
  free energy    TOTEN  =      -629.09576460 eV

  energy without entropy =     -629.06009313  energy(sigma->0) =     -629.07792887
  exchange ACFDT corr.  =        -0.01725126  see jH, gK, PRB 81, 115126


--------------------------------------------------------------------------------------------------------




--------------------------------------- Iteration      1(   7)  ---------------------------------------


    POTLOK:  cpu time    6.3829: real time    6.3944
    SETDIJ:  cpu time    3.2051: real time    3.2078
    TRIAL :  cpu time  629.5814: real time  630.9140
    CORREC:  cpu time    0.0051: real time    0.0051
    CHARGE:  cpu time    1.6850: real time    1.6888
    --------------------------------------------
      LOOP:  cpu time  640.8666: real time  642.2205

 eigenvalue-minimisations  :     0
 total energy-change (2. order) :-0.3419214E-01  (-0.2709794E-01)
 number of electron     256.0000008 magnetization       2.5719386
 augmentation part       13.3279440 magnetization       2.1450894

 DIPCOR: dipole corrections for dipol
 direction  3 min pos     1,
 dipolmoment          -0.011278      0.007485     -0.872041 electrons x Angstroem
 Tr[quadrupol]     -7176.068001

 energy correction for charged system         0.000000 eV
 dipol+quadrupol energy correction            0.021745 eV
 added-field ion interaction          0.000000 eV  (added to PSCEN)


 Free energy of the ion-electron system (eV)
  ---------------------------------------------------
  alpha Z        PSCENC =       114.26291717
  Ewald energy   TEWEN  =     41088.07278837
  -Hartree energ DENC   =    -50431.04978714
  -exchange      EXHF   =       591.19050672
  -V(xc)+E(xc)   XCENC  =       678.89514552
  PAW double counting   =     28595.67737192   -28624.81093372
  entropy T*S    EENTRO =        -0.03521540
  eigenvalues    EBANDS =     -3516.14103002
  atomic energy  EATOM  =     10874.80873591
  ---------------------------------------------------
  free energy    TOTEN  =      -629.12995674 eV

  energy without entropy =     -629.09474135  energy(sigma->0) =     -629.11234905
  exchange ACFDT corr.  =        -0.01693204  see jH, gK, PRB 81, 115126


--------------------------------------------------------------------------------------------------------




--------------------------------------- Iteration      1(   8)  ---------------------------------------


    POTLOK:  cpu time    6.3755: real time    6.3816
    SETDIJ:  cpu time    3.2008: real time    3.2044
    TRIAL :  cpu time  630.4856: real time  631.8198
    CORREC:  cpu time    0.0055: real time    0.0055
    CHARGE:  cpu time    1.6857: real time    1.6887
    --------------------------------------------
      LOOP:  cpu time  641.7587: real time  643.1094

 eigenvalue-minimisations  :     0
 total energy-change (2. order) :-0.2292681E-01  (-0.1882999E-01)
 number of electron     256.0000008 magnetization       2.5626307
 augmentation part       13.3333445 magnetization       2.1529077

 DIPCOR: dipole corrections for dipol
 direction  3 min pos     1,
 dipolmoment          -0.011352      0.007534     -0.877773 electrons x Angstroem
 Tr[quadrupol]     -7176.111501

 energy correction for charged system         0.000000 eV
 dipol+quadrupol energy correction            0.022032 eV
 added-field ion interaction          0.000000 eV  (added to PSCEN)


 Free energy of the ion-electron system (eV)
  ---------------------------------------------------
  alpha Z        PSCENC =       114.26320400
  Ewald energy   TEWEN  =     41088.07278837
  -Hartree energ DENC   =    -50433.59816371
  -exchange      EXHF   =       591.33647655
  -V(xc)+E(xc)   XCENC  =       678.98236449
  PAW double counting   =     28626.04762027   -28655.22311432
  entropy T*S    EENTRO =        -0.03480278
  eigenvalues    EBANDS =     -3513.80757970
  atomic energy  EATOM  =     10874.80873591
  ---------------------------------------------------
  free energy    TOTEN  =      -629.15288355 eV

  energy without entropy =     -629.11808077  energy(sigma->0) =     -629.13548216
  exchange ACFDT corr.  =        -0.01665192  see jH, gK, PRB 81, 115126


--------------------------------------------------------------------------------------------------------




--------------------------------------- Iteration      1(   9)  ---------------------------------------


    POTLOK:  cpu time    6.3597: real time    6.3682
    SETDIJ:  cpu time    3.1818: real time    3.1864
    TRIAL :  cpu time  630.3487: real time  631.6722
    CORREC:  cpu time    0.0060: real time    0.0060
    CHARGE:  cpu time    1.6926: real time    1.6957
    --------------------------------------------
      LOOP:  cpu time  641.5955: real time  642.9399

 eigenvalue-minimisations  :     0
 total energy-change (2. order) :-0.1650440E-01  (-0.1376569E-01)
 number of electron     256.0000008 magnetization       2.5525453
 augmentation part       13.3378384 magnetization       2.1600070

 DIPCOR: dipole corrections for dipol
 direction  3 min pos     1,
 dipolmoment          -0.011375      0.007550     -0.879577 electrons x Angstroem
 Tr[quadrupol]     -7176.129299

 energy correction for charged system         0.000000 eV
 dipol+quadrupol energy correction            0.022123 eV
 added-field ion interaction          0.000000 eV  (added to PSCEN)


 Free energy of the ion-electron system (eV)
  ---------------------------------------------------
  alpha Z        PSCENC =       114.26329463
  Ewald energy   TEWEN  =     41088.07278837
  -Hartree energ DENC   =    -50434.96206547
  -exchange      EXHF   =       591.42683533
  -V(xc)+E(xc)   XCENC  =       679.04113988
  PAW double counting   =     28635.55588304   -28664.76419695
  entropy T*S    EENTRO =        -0.03443561
  eigenvalues    EBANDS =     -3512.57699990
  atomic energy  EATOM  =     10874.80873591
  ---------------------------------------------------
  free energy    TOTEN  =      -629.16938795 eV

  energy without entropy =     -629.13495234  energy(sigma->0) =     -629.15217015
  exchange ACFDT corr.  =        -0.01640826  see jH, gK, PRB 81, 115126


--------------------------------------------------------------------------------------------------------




--------------------------------------- Iteration      1(  10)  ---------------------------------------


    POTLOK:  cpu time    6.3232: real time    6.3322
    SETDIJ:  cpu time    3.2273: real time    3.2315
    TRIAL :  cpu time  630.7430: real time  632.4818
    CORREC:  cpu time    0.0040: real time    0.0040
    CHARGE:  cpu time    1.7142: real time    1.7191
    --------------------------------------------
      LOOP:  cpu time  642.0152: real time  643.7758

 eigenvalue-minimisations  :     0
 total energy-change (2. order) :-0.1236465E-01  (-0.1041434E-01)
 number of electron     256.0000008 magnetization       2.5420565
 augmentation part       13.3401514 magnetization       2.1665664

 DIPCOR: dipole corrections for dipol
 direction  3 min pos     1,
 dipolmoment          -0.011372      0.007548     -0.879345 electrons x Angstroem
 Tr[quadrupol]     -7176.133161

 energy correction for charged system         0.000000 eV
 dipol+quadrupol energy correction            0.022111 eV
 added-field ion interaction          0.000000 eV  (added to PSCEN)


 Free energy of the ion-electron system (eV)
  ---------------------------------------------------
  alpha Z        PSCENC =       114.26328298
  Ewald energy   TEWEN  =     41088.07278837
  -Hartree energ DENC   =    -50435.47988112
  -exchange      EXHF   =       591.47898453
  -V(xc)+E(xc)   XCENC  =       679.07617190
  PAW double counting   =     28635.12647570   -28664.36394320
  entropy T*S    EENTRO =        -0.03410723
  eigenvalues    EBANDS =     -3512.12993206
  atomic energy  EATOM  =     10874.80873591
  ---------------------------------------------------
  free energy    TOTEN  =      -629.18175261 eV

  energy without entropy =     -629.14764538  energy(sigma->0) =     -629.16469899
  exchange ACFDT corr.  =        -0.01619703  see jH, gK, PRB 81, 115126


--------------------------------------------------------------------------------------------------------




--------------------------------------- Iteration      1(  11)  ---------------------------------------


    POTLOK:  cpu time    6.3107: real time    6.3190
    SETDIJ:  cpu time    3.2135: real time    3.2161
    TRIAL :  cpu time  630.1819: real time  631.5143
    CORREC:  cpu time    0.0063: real time    0.0063
    CHARGE:  cpu time    1.7155: real time    1.7188
    --------------------------------------------
      LOOP:  cpu time  641.4337: real time  642.7817

 eigenvalue-minimisations  :     0
 total energy-change (2. order) :-0.9527826E-02  (-0.8162707E-02)
 number of electron     256.0000008 magnetization       2.5314025
 augmentation part       13.3409792 magnetization       2.1726472

 DIPCOR: dipole corrections for dipol
 direction  3 min pos     1,
 dipolmoment          -0.011364      0.007543     -0.878763 electrons x Angstroem
 Tr[quadrupol]     -7176.132491

 energy correction for charged system         0.000000 eV
 dipol+quadrupol energy correction            0.022082 eV
 added-field ion interaction          0.000000 eV  (added to PSCEN)


 Free energy of the ion-electron system (eV)
  ---------------------------------------------------
  alpha Z        PSCENC =       114.26325373
  Ewald energy   TEWEN  =     41088.07278837
  -Hartree energ DENC   =    -50435.55849363
  -exchange      EXHF   =       591.51056576
  -V(xc)+E(xc)   XCENC  =       679.09625460
  PAW double counting   =     28633.16265847   -28662.42530602
  entropy T*S    EENTRO =        -0.03380739
  eigenvalues    EBANDS =     -3512.08763040
  atomic energy  EATOM  =     10874.80873591
  ---------------------------------------------------
  free energy    TOTEN  =      -629.19128043 eV

  energy without entropy =     -629.15747304  energy(sigma->0) =     -629.17437674
  exchange ACFDT corr.  =        -0.01601191  see jH, gK, PRB 81, 115126


--------------------------------------------------------------------------------------------------------




--------------------------------------- Iteration      1(  12)  ---------------------------------------


    POTLOK:  cpu time    6.3239: real time    6.3328
    SETDIJ:  cpu time    3.1991: real time    3.2027
    TRIAL :  cpu time  630.6019: real time  631.9344
    CORREC:  cpu time    0.0066: real time    0.0066
    CHARGE:  cpu time    1.6871: real time    1.6898
    --------------------------------------------
      LOOP:  cpu time  641.8214: real time  643.1714

 eigenvalue-minimisations  :     0
 total energy-change (2. order) :-0.7563466E-02  (-0.6609081E-02)
 number of electron     256.0000008 magnetization       2.5207038
 augmentation part       13.3415362 magnetization       2.1782495

 DIPCOR: dipole corrections for dipol
 direction  3 min pos     1,
 dipolmoment          -0.011361      0.007541     -0.878532 electrons x Angstroem
 Tr[quadrupol]     -7176.131682

 energy correction for charged system         0.000000 eV
 dipol+quadrupol energy correction            0.022070 eV
 added-field ion interaction          0.000000 eV  (added to PSCEN)


 Free energy of the ion-electron system (eV)
  ---------------------------------------------------
  alpha Z        PSCENC =       114.26324210
  Ewald energy   TEWEN  =     41088.07278837
  -Hartree energ DENC   =    -50435.50408857
  -exchange      EXHF   =       591.53358887
  -V(xc)+E(xc)   XCENC  =       679.10966713
  PAW double counting   =     28632.69415108   -28661.97687551
  entropy T*S    EENTRO =        -0.03352607
  eigenvalues    EBANDS =     -3512.16624590
  atomic energy  EATOM  =     10874.80873591
  ---------------------------------------------------
  free energy    TOTEN  =      -629.19884390 eV

  energy without entropy =     -629.16531783  energy(sigma->0) =     -629.18208087
  exchange ACFDT corr.  =        -0.01584544  see jH, gK, PRB 81, 115126


--------------------------------------------------------------------------------------------------------




--------------------------------------- Iteration      1(  13)  ---------------------------------------


    POTLOK:  cpu time    6.3061: real time    6.3155
    SETDIJ:  cpu time    3.1945: real time    3.1973
    TRIAL :  cpu time  630.0255: real time  631.3748
    CORREC:  cpu time    0.0050: real time    0.0050
    CHARGE:  cpu time    1.7121: real time    1.7152
    --------------------------------------------
      LOOP:  cpu time  641.2514: real time  642.6186

 eigenvalue-minimisations  :     0
 total energy-change (2. order) :-0.6197150E-02  (-0.5517244E-02)
 number of electron     256.0000008 magnetization       2.5100064
 augmentation part       13.3422804 magnetization       2.1833600

 DIPCOR: dipole corrections for dipol
 direction  3 min pos     1,
 dipolmoment          -0.011361      0.007541     -0.878508 electrons x Angstroem
 Tr[quadrupol]     -7176.131228

 energy correction for charged system         0.000000 eV
 dipol+quadrupol energy correction            0.022069 eV
 added-field ion interaction          0.000000 eV  (added to PSCEN)


 Free energy of the ion-electron system (eV)
  ---------------------------------------------------
  alpha Z        PSCENC =       114.26324092
  Ewald energy   TEWEN  =     41088.07278837
  -Hartree energ DENC   =    -50435.46356643
  -exchange      EXHF   =       591.55373102
  -V(xc)+E(xc)   XCENC  =       679.12149782
  PAW double counting   =     28633.27313410   -28662.57187545
  entropy T*S    EENTRO =        -0.03325542
  eigenvalues    EBANDS =     -3512.22920123
  atomic energy  EATOM  =     10874.80873591
  ---------------------------------------------------
  free energy    TOTEN  =      -629.20504105 eV

  energy without entropy =     -629.17178563  energy(sigma->0) =     -629.18841334
  exchange ACFDT corr.  =        -0.01569072  see jH, gK, PRB 81, 115126


--------------------------------------------------------------------------------------------------------




--------------------------------------- Iteration      1(  14)  ---------------------------------------


    POTLOK:  cpu time    6.3092: real time    6.3196
    SETDIJ:  cpu time    3.1931: real time    3.1955
    TRIAL :  cpu time  629.9884: real time  631.3155
    CORREC:  cpu time    0.0065: real time    0.0065
    CHARGE:  cpu time    1.6962: real time    1.7007
    --------------------------------------------
      LOOP:  cpu time  641.1999: real time  642.5468

 eigenvalue-minimisations  :     0
 total energy-change (2. order) :-0.5241337E-02  (-0.4727372E-02)
 number of electron     256.0000008 magnetization       2.4993246
 augmentation part       13.3430195 magnetization       2.1879991

 DIPCOR: dipole corrections for dipol
 direction  3 min pos     1,
 dipolmoment          -0.011359      0.007539     -0.878312 electrons x Angstroem
 Tr[quadrupol]     -7176.130335

 energy correction for charged system         0.000000 eV
 dipol+quadrupol energy correction            0.022059 eV
 added-field ion interaction          0.000000 eV  (added to PSCEN)


 Free energy of the ion-electron system (eV)
  ---------------------------------------------------
  alpha Z        PSCENC =       114.26323105
  Ewald energy   TEWEN  =     41088.07278837
  -Hartree energ DENC   =    -50435.45678485
  -exchange      EXHF   =       591.57247045
  -V(xc)+E(xc)   XCENC  =       679.13317948
  PAW double counting   =     28633.93502178   -28663.24802548
  entropy T*S    EENTRO =        -0.03299014
  eigenvalues    EBANDS =     -3512.25764367
  atomic energy  EATOM  =     10874.80873591
  ---------------------------------------------------
  free energy    TOTEN  =      -629.21028239 eV

  energy without entropy =     -629.17729225  energy(sigma->0) =     -629.19378732
  exchange ACFDT corr.  =        -0.01554255  see jH, gK, PRB 81, 115126


--------------------------------------------------------------------------------------------------------




--------------------------------------- Iteration      1(  15)  ---------------------------------------


    POTLOK:  cpu time    6.3019: real time    6.3096
    SETDIJ:  cpu time    3.2007: real time    3.2051
    TRIAL :  cpu time  629.7751: real time  631.1098
    CORREC:  cpu time    0.0059: real time    0.0059
    CHARGE:  cpu time    1.7086: real time    1.7174
    --------------------------------------------
      LOOP:  cpu time  640.9988: real time  642.3564

 eigenvalue-minimisations  :     0
 total energy-change (2. order) :-0.4548556E-02  (-0.4140878E-02)
 number of electron     256.0000008 magnetization       2.4886717
 augmentation part       13.3435216 magnetization       2.1922284

 DIPCOR: dipole corrections for dipol
 direction  3 min pos     1,
 dipolmoment          -0.011352      0.007535     -0.877824 electrons x Angstroem
 Tr[quadrupol]     -7176.128751

 energy correction for charged system         0.000000 eV
 dipol+quadrupol energy correction            0.022035 eV
 added-field ion interaction          0.000000 eV  (added to PSCEN)


 Free energy of the ion-electron system (eV)
  ---------------------------------------------------
  alpha Z        PSCENC =       114.26320658
  Ewald energy   TEWEN  =     41088.07278837
  -Hartree energ DENC   =    -50435.45821303
  -exchange      EXHF   =       591.58976449
  -V(xc)+E(xc)   XCENC  =       679.14418631
  PAW double counting   =     28634.82427049   -28664.15109875
  entropy T*S    EENTRO =        -0.03272675
  eigenvalues    EBANDS =     -3512.27548116
  atomic energy  EATOM  =     10874.80873591
  ---------------------------------------------------
  free energy    TOTEN  =      -629.21483094 eV

  energy without entropy =     -629.18210419  energy(sigma->0) =     -629.19846757
  exchange ACFDT corr.  =        -0.01539757  see jH, gK, PRB 81, 115126


--------------------------------------------------------------------------------------------------------




--------------------------------------- Iteration      1(  16)  ---------------------------------------


    POTLOK:  cpu time    6.2885: real time    6.2977
    SETDIJ:  cpu time    3.2102: real time    3.2136
    TRIAL :  cpu time  630.5512: real time  632.0264
    CORREC:  cpu time    0.0046: real time    0.0046
    CHARGE:  cpu time    1.6834: real time    1.6865
    --------------------------------------------
      LOOP:  cpu time  641.7465: real time  643.2394

 eigenvalue-minimisations  :     0
 total energy-change (2. order) :-0.4029097E-02  (-0.3696989E-02)
 number of electron     256.0000008 magnetization       2.4780690
 augmentation part       13.3437750 magnetization       2.1961345

 DIPCOR: dipole corrections for dipol
 direction  3 min pos     1,
 dipolmoment          -0.011343      0.007528     -0.877100 electrons x Angstroem
 Tr[quadrupol]     -7176.126578

 energy correction for charged system         0.000000 eV
 dipol+quadrupol energy correction            0.021998 eV
 added-field ion interaction          0.000000 eV  (added to PSCEN)


 Free energy of the ion-electron system (eV)
  ---------------------------------------------------
  alpha Z        PSCENC =       114.26317021
  Ewald energy   TEWEN  =     41088.07278837
  -Hartree energ DENC   =    -50435.44687199
  -exchange      EXHF   =       591.60554004
  -V(xc)+E(xc)   XCENC  =       679.15401979
  PAW double counting   =     28636.22456242   -28665.56452796
  entropy T*S    EENTRO =        -0.03246278
  eigenvalues    EBANDS =     -3512.30355008
  atomic energy  EATOM  =     10874.80873591
  ---------------------------------------------------
  free energy    TOTEN  =      -629.21886004 eV

  energy without entropy =     -629.18639726  energy(sigma->0) =     -629.20262865
  exchange ACFDT corr.  =        -0.01525370  see jH, gK, PRB 81, 115126


--------------------------------------------------------------------------------------------------------




--------------------------------------- Iteration      1(  17)  ---------------------------------------


    POTLOK:  cpu time    6.2974: real time    6.3097
    SETDIJ:  cpu time    3.2128: real time    3.2156
    TRIAL :  cpu time  629.8124: real time  631.1736
    CORREC:  cpu time    0.0065: real time    0.0066
    CHARGE:  cpu time    1.6904: real time    1.6940
    --------------------------------------------
      LOOP:  cpu time  641.0250: real time  642.4066

 eigenvalue-minimisations  :     0
 total energy-change (2. order) :-0.3630751E-02  (-0.3353310E-02)
 number of electron     256.0000008 magnetization       2.4675424
 augmentation part       13.3438942 magnetization       2.1997914

 DIPCOR: dipole corrections for dipol
 direction  3 min pos     1,
 dipolmoment          -0.011331      0.007521     -0.876205 electrons x Angstroem
 Tr[quadrupol]     -7176.123843

 energy correction for charged system         0.000000 eV
 dipol+quadrupol energy correction            0.021953 eV
 added-field ion interaction          0.000000 eV  (added to PSCEN)


 Free energy of the ion-electron system (eV)
  ---------------------------------------------------
  alpha Z        PSCENC =       114.26312533
  Ewald energy   TEWEN  =     41088.07278837
  -Hartree energ DENC   =    -50435.41552864
  -exchange      EXHF   =       591.61989529
  -V(xc)+E(xc)   XCENC  =       679.16275108
  PAW double counting   =     28637.87634676   -28667.22799617
  entropy T*S    EENTRO =        -0.03219635
  eigenvalues    EBANDS =     -3512.35014593
  atomic energy  EATOM  =     10874.80873591
  ---------------------------------------------------
  free energy    TOTEN  =      -629.22249079 eV

  energy without entropy =     -629.19029444  energy(sigma->0) =     -629.20639262
  exchange ACFDT corr.  =        -0.01510942  see jH, gK, PRB 81, 115126


[...]


 VOLUME and BASIS-vectors are now :
 -----------------------------------------------------------------------------
  energy-cutoff  :      500.00
  volume of cell :     3176.89
      direct lattice vectors                 reciprocal lattice vectors
    12.864300000  0.000000000  0.000000000     0.077734506  0.000648257 -0.000999725
    -0.103457209 12.405868623  0.000000000     0.000000000  0.080607012  0.000691881
     0.257433807 -0.170862622 19.906202244     0.000000000  0.000000000  0.050235599

  length of vectors
    12.864300000 12.406300000 19.908600000     0.077743637  0.080609981  0.050235599


 FORCES acting on ions:
    Electron-Ion                     Ewald-Force                    Non-Local-Force
 -----------------------------------------------------------------------------------------------
   0.563E+01 -.433E+01 0.337E+02   -.568E+01 0.420E+01 -.338E+02   0.185E-01 0.131E+00 0.743E-01
   -.922E+00 -.858E+00 0.381E+02   0.114E+01 0.801E+00 -.382E+02   -.208E+00 0.884E-01 0.615E-01
   0.482E+01 -.184E+01 0.343E+02   -.475E+01 0.183E+01 -.342E+02   -.500E-01 -.248E-01 -.636E-01
   0.138E+02 0.722E+00 0.355E+02   -.140E+02 -.842E+00 -.354E+02   0.237E+00 0.946E-01 -.175E+00
   0.766E+01 0.436E+01 0.274E+02   -.766E+01 -.441E+01 -.275E+02   0.911E-02 0.675E-01 0.766E-01
   0.139E+01 0.762E+01 0.343E+02   -.133E+01 -.795E+01 -.344E+02   -.706E-01 0.349E+00 0.696E-01
   0.212E+01 0.626E+01 0.315E+02   -.213E+01 -.643E+01 -.315E+02   -.132E-01 0.128E+00 -.309E-01
   0.185E+02 0.140E+02 0.169E+02   -.187E+02 -.141E+02 -.171E+02   0.245E+00 -.273E-01 0.140E+00
   0.220E+02 0.502E+02 0.238E+02   -.239E+02 -.531E+02 -.246E+02   0.171E+01 0.312E+01 0.851E+00
   0.111E+02 0.619E+01 0.198E+02   -.112E+02 -.613E+01 -.198E+02   0.112E+00 0.116E-01 0.202E-01
   0.155E+02 0.125E+02 0.282E+02   -.156E+02 -.129E+02 -.282E+02   0.204E+00 0.297E+00 0.543E-01
   0.317E+02 -.384E+02 0.271E+01   -.333E+02 0.417E+02 -.315E+01   0.161E+01 -.344E+01 0.467E+00
   0.600E+01 -.840E+01 0.209E+02   -.596E+01 0.874E+01 -.208E+02   -.352E-01 -.296E+00 -.421E-01
   0.169E+02 -.854E+01 0.157E+02   -.172E+02 0.888E+01 -.158E+02   0.212E+00 -.322E+00 0.798E-01
   0.228E+02 -.144E+02 -.635E+01   -.223E+02 0.144E+02 0.624E+01   -.485E+00 0.587E-01 0.121E+00
   0.128E+02 -.111E+02 0.261E+02   -.127E+02 0.111E+02 -.264E+02   -.122E+00 0.186E-01 0.271E+00
   0.109E+01 -.512E+01 0.376E+02   -.834E+00 0.522E+01 -.377E+02   -.217E+00 -.696E-01 0.692E-01
   0.591E+01 -.660E+01 0.313E+02   -.584E+01 0.673E+01 -.313E+02   -.628E-01 -.123E+00 0.908E-01
   0.119E+02 -.904E+01 0.281E+02   -.121E+02 0.913E+01 -.278E+02   0.146E+00 -.990E-01 -.315E+00
   0.108E+01 -.424E+01 0.690E+02   -.148E+01 0.426E+01 -.689E+02   0.365E+00 -.527E-01 -.847E-01
   0.866E+01 0.606E+01 0.591E+02   -.917E+01 -.638E+01 -.592E+02   0.450E+00 0.349E+00 0.125E+00
   0.686E+01 -.486E+01 0.656E+02   -.708E+01 0.476E+01 -.657E+02   0.193E+00 0.471E-01 0.183E+00
   -.610E+01 0.615E+01 0.761E+02   0.617E+01 -.644E+01 -.762E+02   -.565E-01 0.284E+00 0.136E+00
   0.137E+01 0.185E+02 0.749E+02   -.156E+01 -.190E+02 -.747E+02   0.228E+00 0.576E+00 -.884E-01
   0.415E+02 0.387E+02 0.299E+02   -.437E+02 -.418E+02 -.310E+02   0.227E+01 0.306E+01 0.104E+01
   0.996E+01 0.179E+02 0.619E+02   -.104E+02 -.184E+02 -.620E+02   0.331E+00 0.474E+00 0.148E+00
   -.140E+02 0.253E+02 0.881E+02   0.145E+02 -.263E+02 -.888E+02   -.428E+00 0.863E+00 0.745E+00
   -.151E+02 0.403E+02 0.495E+02   0.166E+02 -.436E+02 -.511E+02   -.162E+01 0.326E+01 0.179E+01
   0.516E+02 -.591E+02 -.629E+02   -.527E+02 0.607E+02 0.618E+02   0.131E+01 -.160E+01 0.127E+01
   0.213E+02 -.453E+02 0.333E+02   -.236E+02 0.485E+02 -.339E+02   0.238E+01 -.316E+01 0.588E+00
   0.116E+02 -.112E+02 0.442E+02   -.118E+02 0.111E+02 -.445E+02   0.220E+00 0.121E+00 0.292E+00
   0.111E+02 -.241E+02 0.139E+02   -.117E+02 0.235E+02 -.139E+02   0.550E+00 0.642E+00 -.157E-01
   -.510E+01 -.193E+02 0.639E+02   0.492E+01 0.197E+02 -.643E+02   0.110E+00 -.334E+00 0.405E+00
   -.680E+01 -.363E+01 0.495E+02   0.703E+01 0.367E+01 -.495E+02   -.185E+00 -.202E-01 0.159E-01
   -.788E+01 0.321E+01 0.676E+02   0.793E+01 -.326E+01 -.675E+02   -.562E-01 0.103E+00 -.292E-01
   -.103E+02 -.330E+01 0.587E+02   0.106E+02 0.330E+01 -.588E+02   -.299E+00 -.823E-01 0.110E+00
   -.465E+01 0.295E+01 0.469E+02   0.490E+01 -.300E+01 -.469E+02   -.240E+00 0.380E-01 0.448E-01
   -.837E+01 0.404E+01 0.507E+02   0.871E+01 -.412E+01 -.507E+02   -.257E+00 0.104E+00 -.195E-01
   -.200E+02 0.138E+02 0.683E+02   0.205E+02 -.141E+02 -.682E+02   -.497E+00 0.245E+00 -.162E-02
   -.124E+02 0.923E+01 0.655E+02   0.128E+02 -.951E+01 -.656E+02   -.364E+00 0.260E+00 0.120E+00
   -.549E+01 0.496E+01 0.427E+02   0.565E+01 -.510E+01 -.428E+02   -.162E+00 0.868E-01 0.752E-01
   -.148E+02 0.674E+01 0.388E+02   0.154E+02 -.674E+01 -.389E+02   -.483E+00 0.318E-01 0.869E-01
   -.627E+02 -.205E+01 0.394E+02   0.664E+02 0.187E+01 -.410E+02   -.358E+01 0.473E-01 0.152E+01
   -.267E+02 0.986E+01 0.508E+02   0.274E+02 -.999E+01 -.509E+02   -.707E+00 0.185E+00 0.181E+00
   -.571E+01 -.101E+01 0.205E+02   0.571E+01 0.986E+00 -.204E+02   -.190E-01 -.257E-01 -.335E-01
   -.108E+02 -.130E+01 0.130E+02   0.111E+02 0.139E+01 -.131E+02   -.286E+00 -.471E-01 0.612E-01
   -.600E+02 -.501E+01 0.399E+02   0.634E+02 0.547E+01 -.416E+02   -.336E+01 -.287E+00 0.158E+01
   -.353E+02 -.433E+01 0.155E+02   0.357E+02 0.446E+01 -.163E+02   -.347E+00 -.125E+00 0.707E+00
   -.644E+01 -.334E+01 0.212E+02   0.666E+01 0.339E+01 -.212E+02   -.196E+00 -.646E-01 -.923E-02
   -.122E+02 -.731E+01 0.372E+02   0.126E+02 0.738E+01 -.372E+02   -.417E+00 -.188E-01 0.991E-01
   -.124E+02 -.139E+02 0.531E+02   0.126E+02 0.143E+02 -.531E+02   -.103E+00 -.252E+00 -.402E-01
   -.241E+02 -.130E+02 0.439E+02   0.246E+02 0.132E+02 -.440E+02   -.551E+00 -.299E+00 0.143E+00
   -.528E+01 -.310E+01 0.422E+02   0.546E+01 0.318E+01 -.423E+02   -.204E+00 -.103E+00 0.591E-01
   0.251E+01 0.842E+01 0.117E+02   0.184E+02 -.781E+01 -.106E+02   -.203E+02 -.570E+00 -.144E+01
   0.363E+02 0.199E+02 -.277E+02   -.454E+02 -.419E+01 0.334E+02   0.896E+01 -.153E+02 -.584E+01
   -.490E+01 -.104E+02 0.232E+02   -.734E+01 0.289E+02 -.186E+02   0.114E+02 -.176E+02 -.435E+01
   0.785E+02 -.890E+02 -.442E+03   -.700E+02 0.847E+02 0.459E+03   -.783E+01 0.443E+01 -.162E+02
   0.403E+01 -.129E+02 0.318E+02   -.159E+02 -.529E+01 -.279E+02   0.111E+02 0.171E+02 -.375E+01
   0.108E+03 0.122E+03 -.544E+03   -.105E+03 -.120E+03 0.541E+03   -.270E+01 -.286E+01 0.336E+01
   -.213E+03 0.139E+01 -.106E+04   0.205E+03 -.651E+00 0.105E+04   0.673E+01 -.518E+00 0.979E+01
 -----------------------------------------------------------------------------------------------
   -.550E+01 0.117E+02 0.642E+01   -.142E-12 -.142E-12 0.227E-12   0.457E+01 -.109E+02 -.536E+01
 
 
 POSITION                                       TOTAL-FORCE (eV/Angst)
 -----------------------------------------------------------------------------------
      2.97580     -0.07693      9.79783        -0.035392      0.009570      0.017454
      0.84436      1.16339      9.71468        -0.007447      0.033599      0.017432
      1.54935     -0.08077      9.75375         0.018643     -0.035056      0.013943
      3.68349      1.17675      9.78443         0.060570     -0.022419      0.001384
      2.98856      2.43893      9.83904         0.006763      0.016818      0.026593
      0.81468      3.64300      9.79478        -0.022979      0.032471      0.010058
      1.55088      2.41601      9.77662        -0.023591     -0.039577      0.007626
      3.70814      3.69369      9.98857         0.029798     -0.141842     -0.006842
      2.92070      4.93675     10.05915        -0.115739      0.395475      0.080097
      0.75293      6.12898      9.94028         0.044633      0.074847      0.011089
      1.49748      4.89564      9.91532         0.048967     -0.077897      0.023995
      2.85991      7.36766     10.20294         0.083339     -0.412318      0.046677
      0.72290      8.60248      9.92468         0.002665      0.018982      0.007263
      1.44197      7.37504     10.01272        -0.018075     -0.003829     -0.023931
      3.58003      8.62427     10.28029         0.002927      0.058703      0.017824
      2.87375      9.84241      9.99282         0.000787      0.070853      0.028164
      0.73571     11.07904      9.76958         0.023272      0.024636      0.025971
      1.44420      9.84197      9.87770         0.005508      0.002621      0.032520
      3.58434     11.09049      9.90260        -0.036639     -0.012150      0.004356
      7.15077     12.30240      9.68639        -0.017188     -0.030993      0.061327
      5.10614      1.14942      9.72918        -0.035341      0.060007      0.053289
      5.72306     12.31731      9.73366        -0.020739     -0.057748      0.060162
      7.97635      1.12397      9.61354         0.001521      0.006622      0.038628
      7.25933      2.34676      9.68111         0.063357      0.076714      0.080354
      5.16196      3.61480     10.01709         0.188510      0.109630      0.034516
      5.82939      2.37678      9.77112        -0.100033     -0.021689      0.059287
      7.99030      3.55866      9.74980         0.050688     -0.109444      0.066733
      7.29778      4.73667     10.09346        -0.214702      0.188816      0.273166
      4.97159      8.75301     10.69842         0.238300     -0.117343      0.324491
      7.18012      9.87059     10.10395         0.167103     -0.157648      0.060483
      5.01992     11.08761      9.91159         0.024393      0.051494      0.058414
      5.73974      9.88955     10.20693        -0.043296      0.093378      0.004943
      7.87295     11.08002      9.79839        -0.069515      0.006741      0.077693
     11.45877     12.30971      9.65838         0.030119      0.017793      0.027779
      9.40782      1.12970      9.59891        -0.004203      0.058923      0.043252
     10.02475     12.30257      9.64199        -0.037817     -0.087481      0.035387
     12.27749      1.15025      9.65755        -0.009460     -0.011168      0.019843
     11.55576      2.38190      9.65368         0.062416      0.031127      0.021753
      9.40887      3.58920      9.70578        -0.025602     -0.014400      0.061333
     10.12645      2.36586      9.62029        -0.054473     -0.000845      0.040257
     12.24954      3.63291      9.73303        -0.004252     -0.052199      0.010749
     11.51603      4.86318      9.80569         0.026558      0.036177      0.014196
      9.33031      6.02744     10.05654        -0.038217     -0.144306     -0.003429
     10.09304      4.83944      9.82992        -0.036473      0.066560      0.063457
     12.18528      6.12082      9.90130        -0.019073     -0.061477     -0.006445
     11.43306      7.34764      9.95756         0.032202      0.037361     -0.010985
      9.28146      8.62659     10.06435        -0.072929      0.171368      0.015354
      9.97753      7.33616     10.06323         0.024464     -0.001225     -0.021421
     12.15346      8.58872      9.89638         0.008970     -0.012440      0.003729
     11.44963      9.83082      9.81038         0.012844      0.051113      0.016917
      9.30706     11.07279      9.75017         0.042693      0.091917      0.024043
     10.02085      9.83605      9.85387        -0.023510     -0.101594      0.056686
     12.16752     11.07112      9.72894        -0.029986     -0.022953      0.029176
      3.52070      6.16185     10.28491        -1.131689     -0.011130     -0.421018
      5.94839      4.72068     10.33046         0.650818     -0.848008     -0.640821
      7.97085      5.90910     10.30659         0.158583     -0.525008     -0.168612
      5.57179      7.93365     11.58583        -0.064673      0.587859     -0.740861
      7.91506      8.71304     10.30934         0.152394      0.387324     -0.119879
      5.15301      6.14793     11.30426         0.183711      0.100819      0.350442
      7.44522      7.32882     11.77875        -0.134484      0.163869     -0.296042
 -----------------------------------------------------------------------------------
    total drift:                                0.025961     -0.035752      0.076644


--------------------------------------------------------------------------------------------------------



  FREE ENERGIE OF THE ION-ELECTRON SYSTEM (eV)
  ---------------------------------------------------
  free  energy   TOTEN  =      -629.29024719 eV

  energy  without entropy=     -629.27189211  energy(sigma->0) =     -629.28106965
 


--------------------------------------------------------------------------------------------------------


    POTLOK:  cpu time    9.5269: real time    9.5356


--------------------------------------------------------------------------------------------------------


 stress matrix after NEB project (eV)
    -43.52315      0.09242      0.04447
      0.09235    -43.37788      0.90937
      0.04020      0.90876     -2.21393
  FORCES: max atom, RMS     1.246328    0.311676
  FORCE total and by dimension    2.414230    1.131689
  Stress total and by dimension   61.501871   43.523154
 writing wavefunctions
     LOOP+:  cpu time64951.1213: real time65085.6939
    4ORBIT:  cpu time    0.0000: real time    0.0000
 


 total charge     
 
# of ion       s       p       d       tot
------------------------------------------
    1        0.864   1.755   0.000   2.619
    2        0.863   1.756   0.000   2.619
    3        0.863   1.770   0.000   2.633
    4        0.860   1.763   0.000   2.623
    5        0.858   1.729   0.000   2.587
    6        0.864   1.762   0.000   2.626
    7        0.860   1.757   0.000   2.617
    8        0.844   1.727   0.000   2.572
    9        0.851   1.703   0.000   2.554
   10        0.865   1.755   0.000   2.619
   11        0.862   1.765   0.000   2.627
   12        0.857   1.716   0.000   2.573
   13        0.864   1.763   0.000   2.627
   14        0.867   1.779   0.000   2.646
   15        0.854   1.755   0.000   2.609
   16        0.863   1.744   0.000   2.607
   17        0.864   1.758   0.000   2.623
   18        0.862   1.763   0.000   2.626
   19        0.859   1.764   0.000   2.624
   20        0.867   1.771   0.000   2.638
   21        0.867   1.767   0.000   2.634
   22        0.864   1.772   0.000   2.636
   23        0.866   1.778   0.000   2.645
   24        0.870   1.775   0.000   2.644
   25        0.853   1.705   0.000   2.558
   26        0.865   1.778   0.000   2.643
   27        0.872   1.812   0.000   2.684
   28        0.862   1.725   0.000   2.588
   29        0.862   1.693   0.000   2.554
   30        0.856   1.714   0.000   2.570
   31        0.866   1.755   0.000   2.622
   32        0.859   1.762   0.000   2.621
   33        0.865   1.778   0.000   2.643
   34        0.863   1.759   0.000   2.622
   35        0.866   1.762   0.000   2.628
   36        0.864   1.770   0.000   2.634
   37        0.863   1.763   0.000   2.626
   38        0.865   1.765   0.000   2.630
   39        0.870   1.773   0.000   2.642
   40        0.866   1.776   0.000   2.642
   41        0.863   1.763   0.000   2.626
   42        0.865   1.768   0.000   2.633
   43        0.854   1.711   0.000   2.564
   44        0.865   1.781   0.000   2.646
   45        0.861   1.765   0.000   2.626
   46        0.858   1.731   0.000   2.589
   47        0.850   1.705   0.000   2.555
   48        0.844   1.729   0.000   2.574
   49        0.862   1.762   0.000   2.624
   50        0.864   1.761   0.000   2.625
   51        0.865   1.758   0.000   2.623
   52        0.864   1.771   0.000   2.635
   53        0.863   1.762   0.000   2.625
   54        1.233   2.689   0.000   3.922
   55        1.229   2.706   0.000   3.935
   56        1.237   2.699   0.000   3.936
   57        1.256   2.608   0.000   3.864
   58        1.234   2.683   0.000   3.917
   59        0.474   0.587   6.203   7.264
   60        2.232   6.170   1.267   9.670
--------------------------------------------------
tot         54.569 113.146   7.470 175.184
 


 magnetization (x)
 
# of ion       s       p       d       tot
------------------------------------------
    1       -0.001  -0.018   0.000  -0.019
    2       -0.002  -0.025   0.000  -0.027
    3        0.001   0.009   0.000   0.011
    4        0.001   0.007   0.000   0.008
    5       -0.001  -0.016   0.000  -0.017
    6       -0.002  -0.026   0.000  -0.028
    7        0.001   0.015   0.000   0.016
    8        0.002   0.016   0.000   0.018
    9       -0.002  -0.035   0.000  -0.037
   10       -0.002  -0.027   0.000  -0.029
   11        0.002   0.014   0.000   0.016
   12       -0.001  -0.021   0.000  -0.022
   13       -0.002  -0.027   0.000  -0.029
   14        0.002   0.015   0.000   0.017
   15        0.001   0.005   0.000   0.007
   16       -0.001  -0.019   0.000  -0.020
   17       -0.001  -0.018   0.000  -0.019
   18        0.001   0.008   0.000   0.009
   19        0.001   0.009   0.000   0.010
   20       -0.001  -0.014   0.000  -0.015
   21       -0.001  -0.015   0.000  -0.015
   22        0.000  -0.001   0.000  -0.001
   23        0.001   0.008   0.000   0.009
   24       -0.001  -0.013   0.000  -0.014
   25       -0.000  -0.020   0.000  -0.021
   26        0.001   0.002   0.000   0.003
   27        0.001   0.003   0.000   0.004
   28       -0.001  -0.004   0.000  -0.004
   29       -0.000  -0.018   0.000  -0.018
   30       -0.001  -0.016   0.000  -0.017
   31       -0.001  -0.010   0.000  -0.010
   32        0.001   0.006   0.000   0.007
   33        0.001   0.004   0.000   0.005
   34       -0.002  -0.027   0.000  -0.029
   35       -0.001  -0.015   0.000  -0.016
   36        0.001   0.009   0.000   0.010
   37        0.001   0.012   0.000   0.014
   38       -0.002  -0.026   0.000  -0.028
   39       -0.001  -0.015   0.000  -0.016
   40        0.001   0.011   0.000   0.012
   41        0.001   0.013   0.000   0.014
   42       -0.002  -0.034   0.000  -0.037
   43       -0.003  -0.036   0.000  -0.038
   44        0.001   0.011   0.000   0.012
   45        0.002   0.015   0.000   0.017
   46       -0.002  -0.022   0.000  -0.024
   47       -0.003  -0.039   0.000  -0.042
   48        0.002   0.013   0.000   0.014
   49        0.001   0.012   0.000   0.014
   50       -0.002  -0.025   0.000  -0.026
   51       -0.002  -0.023   0.000  -0.024
   52        0.001   0.013   0.000   0.014
   53        0.001   0.014   0.000   0.015
   54        0.004   0.026   0.000   0.030
   55       -0.001  -0.017   0.000  -0.018
   56        0.001  -0.002   0.000  -0.002
   57       -0.002  -0.004   0.000  -0.005
   58       -0.001  -0.016   0.000  -0.017
   59        0.017   0.045   3.091   3.153
   60       -0.027  -0.008  -0.184  -0.218
--------------------------------------------------
tot         -0.018  -0.334   2.908   2.556
 

 total amount of memory used by VASP MPI-rank0   316448. kBytes
=======================================================================

   base      :      30000. kBytes
   nonl-proj :      10714. kBytes
   fftplans  :      26523. kBytes
   grid      :      69087. kBytes
   one-center:        124. kBytes
   HF        :         23. kBytes
   nonlr-proj:      19900. kBytes
   wavefun   :     160077. kBytes
 
  
  
 General timing and accounting informations for this job:
 ========================================================
  
                  Total CPU time used (sec):    65011.883
                            User time (sec):    64984.682
                          System time (sec):       27.200
                         Elapsed time (sec):    65153.618
  
                   Maximum memory used (kb):      590040.
                   Average memory used (kb):           0.
  
                          Minor page faults:      3085168
                          Major page faults:          212
                 Voluntary context switches:        59618
