 vasp.5.4.4.18Apr17-6-g9f103f2a35 (build Feb 25 2019 10:51:38) complex          
  
 executed on             LinuxIFC date 2021.08.09  13:01:08
 running on   32 total cores
 distrk:  each k-point on   32 cores,    1 groups
 distr:  one band on NCORES_PER_BAND=  32 cores,    1 groups


--------------------------------------------------------------------------------------------------------


 INCAR:
 POTCAR:    PAW_PBE C 08Apr2002                   
 POTCAR:    PAW_PBE N 08Apr2002                   
 POTCAR:    PAW_PBE Fe 06Sep2000                  

 ----------------------------------------------------------------------------- 
|                                                                             |
|           W    W    AA    RRRRR   N    N  II  N    N   GGGG   !!!           |
|           W    W   A  A   R    R  NN   N  II  NN   N  G    G  !!!           |
|           W    W  A    A  R    R  N N  N  II  N N  N  G       !!!           |
|           W WW W  AAAAAA  RRRRR   N  N N  II  N  N N  G  GGG   !            |
|           WW  WW  A    A  R   R   N   NN  II  N   NN  G    G                |
|           W    W  A    A  R    R  N    N  II  N    N   GGGG   !!!           |
|                                                                             |
|      For optimal performance we recommend to set                            |
|        NCORE= 4 - approx SQRT( number of cores)                             |
|      NCORE specifies how many cores store one orbital (NPAR=cpu/NCORE).     |
|      This setting can  greatly improve the performance of VASP for DFT.     |
|      The default,   NCORE=1            might be grossly inefficient         |
|      on modern multi-core architectures or massively parallel machines.     |
|      Do your own testing !!!!                                               |
|      Unfortunately you need to use the default for GW and RPA calculations. |
|      (for HF NCORE is supported but not extensively tested yet)             |
|                                                                             |
 ----------------------------------------------------------------------------- 

 POTCAR:    PAW_PBE C 08Apr2002                   
   VRHFIN =C: s2p2                                                              
   LEXCH  = PE                                                                  
   EATOM  =   147.1560 eV,   10.8157 Ry                                         
                                                                                
   TITEL  = PAW_PBE C 08Apr2002                                                 
   LULTRA =        F    use ultrasoft PP ?                                      
   IUNSCR =        1    unscreen: 0-lin 1-nonlin 2-no                           
   RPACOR =    1.200    partial core radius                                     
   POMASS =   12.011; ZVAL   =    4.000    mass and valenz                      
   RCORE  =    1.500    outmost cutoff radius                                   
   RWIGS  =    1.630; RWIGS  =    0.863    wigner-seitz radius (au A)           
   ENMAX  =  400.000; ENMIN  =  300.000 eV                                      
   ICORE  =        2    local potential                                         
   LCOR   =        T    correct aug charges                                     
   LPAW   =        T    paw PP                                                  
   EAUG   =  644.873                                                            
   DEXC   =    0.000                                                            
   RMAX   =    1.529    core radius for proj-oper                               
   RAUG   =    1.300    factor for augmentation sphere                          
   RDEP   =    1.501    radius for radial grids                                 
   RDEPT  =    1.300    core radius for aug-charge                              
                                                                                
   Atomic configuration                                                         
    4 entries                                                                   
     n  l   j            E        occ.                                          
     1  0  0.50      -273.3789   2.0000                                         
     2  0  0.50       -13.7508   2.0000                                         
     2  1  0.50        -5.2854   2.0000                                         
     3  2  1.50        -5.4423   0.0000                                         
   Description                                                                  
     l       E           TYP  RCUT    TYP  RCUT                                 
     0    -13.7508458     23  1.200                                             
     0     -8.2022199     23  1.200                                             
     1     -5.2854383     23  1.500                                             
     1     34.0145650     23  1.500                                             
     2     -5.4423304      7  1.500                                             
  local pseudopotential read in
  partial core-charges read in
  partial kinetic energy density read in
  atomic valenz-charges read in
  non local Contribution for L=           0  read in
    real space projection operators read in
  non local Contribution for L=           0  read in
    real space projection operators read in
  non local Contribution for L=           1  read in
    real space projection operators read in
  non local Contribution for L=           1  read in
    real space projection operators read in
    PAW grid and wavefunctions read in
 
   number of l-projection  operators is LMAX  =           4
   number of lm-projection operators is LMMAX =           8
 
 POTCAR:    PAW_PBE N 08Apr2002                   
   VRHFIN =N: s2p3                                                              
   LEXCH  = PE                                                                  
   EATOM  =   264.5486 eV,   19.4438 Ry                                         
                                                                                
   TITEL  = PAW_PBE N 08Apr2002                                                 
   LULTRA =        F    use ultrasoft PP ?                                      
   IUNSCR =        1    unscreen: 0-lin 1-nonlin 2-no                           
   RPACOR =    1.200    partial core radius                                     
   POMASS =   14.001; ZVAL   =    5.000    mass and valenz                      
   RCORE  =    1.500    outmost cutoff radius                                   
   RWIGS  =    1.400; RWIGS  =    0.741    wigner-seitz radius (au A)           
   ENMAX  =  400.000; ENMIN  =  300.000 eV                                      
   ICORE  =        2    local potential                                         
   LCOR   =        T    correct aug charges                                     
   LPAW   =        T    paw PP                                                  
   EAUG   =  627.112                                                            
   DEXC   =    0.000                                                            
   RMAX   =    1.529    core radius for proj-oper                               
   RAUG   =    1.300    factor for augmentation sphere                          
   RDEP   =    1.514    radius for radial grids                                 
   RDEPT  =    1.338    core radius for aug-charge                              
                                                                                
   Atomic configuration                                                         
    4 entries                                                                   
     n  l   j            E        occ.                                          
     1  0  0.50      -384.7179   2.0000                                         
     2  0  0.50       -18.5828   2.0000                                         
     2  1  0.50        -7.0898   3.0000                                         
     3  2  1.50        -6.8029   0.0000                                         
   Description                                                                  
     l       E           TYP  RCUT    TYP  RCUT                                 
     0    -18.5828119     23  1.200                                             
     0    -13.5018863     23  1.200                                             
     1     -7.0897853     23  1.500                                             
     1      9.5240782     23  1.500                                             
     2     -6.8029130      7  1.500                                             
  local pseudopotential read in
  partial core-charges read in
  partial kinetic energy density read in
  atomic valenz-charges read in
  non local Contribution for L=           0  read in
    real space projection operators read in
  non local Contribution for L=           0  read in
    real space projection operators read in
  non local Contribution for L=           1  read in
    real space projection operators read in
  non local Contribution for L=           1  read in
    real space projection operators read in
    PAW grid and wavefunctions read in
 
   number of l-projection  operators is LMAX  =           4
   number of lm-projection operators is LMMAX =           8
 
 POTCAR:    PAW_PBE Fe 06Sep2000                  
   VRHFIN =Fe:  d7 s1                                                           
   LEXCH  = PE                                                                  
   EATOM  =   594.3153 eV,   43.6809 Ry                                         
                                                                                
   TITEL  = PAW_PBE Fe 06Sep2000                                                
   LULTRA =        F    use ultrasoft PP ?                                      
   IUNSCR =        1    unscreen: 0-lin 1-nonlin 2-no                           
   RPACOR =    2.000    partial core radius                                     
   POMASS =   55.847; ZVAL   =    8.000    mass and valenz                      
   RCORE  =    2.300    outmost cutoff radius                                   
   RWIGS  =    2.460; RWIGS  =    1.302    wigner-seitz radius (au A)           
   ENMAX  =  267.882; ENMIN  =  200.911 eV                                      
   RCLOC  =    1.701    cutoff for local pot                                    
   LCOR   =        T    correct aug charges                                     
   LPAW   =        T    paw PP                                                  
   EAUG   =  511.368                                                            
   DEXC   =    0.000                                                            
   RMAX   =    2.356    core radius for proj-oper                               
   RAUG   =    1.300    factor for augmentation sphere                          
   RDEP   =    2.442    radius for radial grids                                 
   RDEPT  =    1.890    core radius for aug-charge                              
                                                                                
   Atomic configuration                                                         
    9 entries                                                                   
     n  l   j            E        occ.                                          
     1  0  0.50     -6993.8440   2.0000                                         
     2  0  0.50      -814.6047   2.0000                                         
     2  1  1.50      -693.3689   6.0000                                         
     3  0  0.50       -89.4732   2.0000                                         
     3  1  1.50       -55.6373   6.0000                                         
     3  2  2.50        -3.8151   7.0000                                         
     4  0  0.50        -4.2551   1.0000                                         
     4  1  1.50        -3.4015   0.0000                                         
     4  3  2.50        -1.3606   0.0000                                         
   Description                                                                  
     l       E           TYP  RCUT    TYP  RCUT                                 
     2     -3.8151135     23  2.300                                             
     2     -5.1756961     23  2.300                                             
     0     -4.2550963     23  2.300                                             
     0      7.2035603     23  2.300                                             
     1     -2.7211652     23  2.300                                             
     1     18.4316424     23  2.300                                             
  local pseudopotential read in
  partial core-charges read in
  partial kinetic energy density read in
  atomic valenz-charges read in
  non local Contribution for L=           2  read in
    real space projection operators read in
  non local Contribution for L=           2  read in
    real space projection operators read in
  non local Contribution for L=           0  read in
    real space projection operators read in
  non local Contribution for L=           0  read in
    real space projection operators read in
  non local Contribution for L=           1  read in
    real space projection operators read in
  non local Contribution for L=           1  read in
    real space projection operators read in
    PAW grid and wavefunctions read in
 
   number of l-projection  operators is LMAX  =           6
   number of lm-projection operators is LMMAX =          18
 

 ----------------------------------------------------------------------------- 
|                                                                             |
|  ADVICE TO THIS USER RUNNING 'VASP/VAMP'   (HEAR YOUR MASTER'S VOICE ...):  |
|                                                                             |
|      You have a (more or less) 'large supercell' and for larger cells       |
|      it might be more efficient to use real space projection opertators     |
|      So try LREAL= Auto  in the INCAR   file.                               |
|      Mind:          For very  accurate calculation you might also keep the  |
|      reciprocal projection scheme          (i.e. LREAL=.FALSE.)             |
|                                                                             |
 ----------------------------------------------------------------------------- 

  PAW_PBE C 08Apr2002                   :
 energy of atom  1       EATOM= -147.1560
 kinetic energy error for atom=    0.0076 (will be added to EATOM!!)
  PAW_PBE N 08Apr2002                   :
 energy of atom  2       EATOM= -264.5486
 kinetic energy error for atom=    0.0138 (will be added to EATOM!!)
  PAW_PBE Fe 06Sep2000                  :
 energy of atom  3       EATOM= -594.3153
 kinetic energy error for atom=    0.0026 (will be added to EATOM!!)
 
 
 POSCAR:  C  N Fe                                
  positions in cartesian coordinates
  No initial velocities read in
 exchange correlation table for  LEXCH =        8
   RHO(1)=    0.500       N(1)  =     2000
   RHO(2)=  100.500       N(2)  =     4000

 VTST: version 3.2, (02/03/18)

 CHAIN: initializing optimizer
 
 OPT: Using VASP Conjugate-Gradient optimizer
 CHAIN: Read ICHAIN            0
 
 POSCAR:  C  N Fe                                
  positions in cartesian coordinates
  No initial velocities read in
 


--------------------------------------------------------------------------------------------------------


 ion  position               nearest neighbor table
   1  0.221  0.999  0.500-   4 1.42  19 1.43   3 1.43
   2  0.052  0.101  0.500-   7 1.42   3 1.43  34 1.43
   3  0.110  0.000  0.500-  17 1.42   2 1.43   1 1.43
   4  0.275  0.099  0.500-   1 1.42   5 1.42  21 1.42
   5  0.218  0.199  0.500-   8 1.41   4 1.42   7 1.43
   6  0.052  0.301  0.500-   7 1.41  11 1.43  38 1.43
   7  0.107  0.200  0.500-   6 1.41   2 1.42   5 1.43
   8  0.273  0.298  0.500-  51 1.38   5 1.41   9 1.42
   9  0.218  0.399  0.500-  50 1.39  11 1.41   8 1.42
  10  0.055  0.501  0.500-  11 1.41  41 1.42  14 1.44
  11  0.108  0.400  0.500-   9 1.41  10 1.41   6 1.43
  12  0.226  0.595  0.500-  50 1.39  14 1.44  15 1.47
  13  0.058  0.701  0.500-  18 1.42  14 1.43  45 1.43
  14  0.114  0.599  0.500-  13 1.43  10 1.44  12 1.44
  15  0.285  0.696  0.500-  53 1.38  16 1.45  12 1.47
  16  0.225  0.797  0.500-  19 1.43  18 1.44  15 1.45
  17  0.056  0.901  0.500-   3 1.42  18 1.43  49 1.43
  18  0.113  0.800  0.500-  13 1.42  17 1.43  16 1.44
  19  0.279  0.898  0.500-  16 1.43  28 1.43   1 1.43
  20  0.554  0.002  0.500-  22 1.42  30 1.43  23 1.44
  21  0.386  0.102  0.500-   4 1.42  22 1.44  25 1.45
  22  0.443  0.000  0.500-  20 1.42  21 1.44  28 1.45
  23  0.606  0.105  0.500-  32 1.44  24 1.44  20 1.44
  24  0.549  0.206  0.500-  23 1.44  25 1.44  26 1.46
  25  0.438  0.205  0.500-  51 1.38  24 1.44  21 1.45
  26  0.605  0.309  0.500-  52 1.34  36 1.45  24 1.46
  27  0.558  0.796  0.500-  54 1.38  30 1.45  29 1.47
  28  0.390  0.898  0.500-  19 1.43  22 1.45  29 1.45
  29  0.444  0.793  0.500-  53 1.38  28 1.45  27 1.47
  30  0.610  0.900  0.500-  20 1.43  47 1.43  27 1.45
  31  0.887  0.003  0.500-  34 1.42  49 1.43  33 1.44
  32  0.718  0.106  0.500-  33 1.43  23 1.44  37 1.44
  33  0.775  0.004  0.500-  47 1.43  32 1.43  31 1.44
  34  0.941  0.103  0.500-  31 1.42  35 1.43   2 1.43
  35  0.885  0.204  0.500-  38 1.42  34 1.43  37 1.44
  36  0.717  0.309  0.500-  37 1.43  26 1.45  40 1.45
  37  0.773  0.207  0.500-  36 1.43  35 1.44  32 1.44
  38  0.940  0.303  0.500-  39 1.42  35 1.42   6 1.43
  39  0.886  0.405  0.500-  38 1.42  41 1.43  40 1.43
  40  0.775  0.410  0.500-  55 1.38  39 1.43  36 1.45
  41  0.945  0.503  0.500-  42 1.42  10 1.42  39 1.43
  42  0.890  0.604  0.500-  44 1.41  41 1.42  45 1.42
  43  0.723  0.705  0.500-  54 1.39  48 1.41  44 1.43
  44  0.781  0.605  0.500-  55 1.38  42 1.41  43 1.43
  45  0.947  0.703  0.500-  46 1.42  42 1.42  13 1.43
  46  0.890  0.803  0.500-  45 1.42  49 1.42  48 1.43
  47  0.721  0.904  0.500-  48 1.42  33 1.43  30 1.43
  48  0.779  0.804  0.500-  43 1.41  47 1.42  46 1.43
  49  0.944  0.903  0.500-  46 1.42  31 1.43  17 1.43
  50  0.276  0.494  0.499-  12 1.39   9 1.39  56 1.89
  51  0.380  0.302  0.499-   8 1.38  25 1.38  56 1.94
  52  0.551  0.403  0.500-  26 1.34  57 1.80  56 1.80
  53  0.392  0.696  0.500-  15 1.38  29 1.38
  54  0.616  0.701  0.500-  27 1.38  43 1.39  57 1.96
  55  0.725  0.510  0.501-  40 1.38  44 1.38  57 1.96
  56  0.419  0.453  0.499-  52 1.80  50 1.89  51 1.94  57 2.34
  57  0.576  0.547  0.500-  52 1.80  55 1.96  54 1.96  56 2.34
 
  LATTYP: Found a triclinic cell.
 ALAT       =    12.8666476171
 B/A-ratio  =     0.9535985918
 C/A-ratio  =     1.5642302523
 COS(alpha) =     0.0005570913
 COS(beta)  =     0.0012773663
 COS(gamma) =     0.0167971747
  
  Lattice vectors:
  
 A1 = (  12.8662017614,   0.1067816084,   0.0084157630)
 A2 = (   0.1042731732,  12.2691734845,   0.0034116144)
 A3 = (   0.0124993007,   0.0055099937,  20.1263948131)


Analysis of symmetry for initial positions (statically):
=====================================================================
 Subroutine PRICEL returns:
 Original cell was already a primitive cell.
 

 Routine SETGRP: Setting up the symmetry group for a 
 triclinic supercell.


 Subroutine GETGRP returns: Found  1 space group operations
 (whereof  1 operations were pure point group operations)
 out of a pool of  2 trial point group operations.


The static configuration has the point symmetry C_1 .


Analysis of symmetry for dynamics (positions and initial velocities):
=====================================================================
 Subroutine PRICEL returns:
 Original cell was already a primitive cell.
 

 Routine SETGRP: Setting up the symmetry group for a 
 triclinic supercell.


 Subroutine GETGRP returns: Found  1 space group operations
 (whereof  1 operations were pure point group operations)
 out of a pool of  2 trial point group operations.


The dynamic configuration has the point symmetry C_1 .


Analysis of structural, dynamic, and magnetic symmetry:
=====================================================================
 Subroutine PRICEL returns:
 Original cell was already a primitive cell.
 

 Routine SETGRP: Setting up the symmetry group for a 
 triclinic supercell.


 Subroutine GETGRP returns: Found  1 space group operations
 (whereof  1 operations were pure point group operations)
 out of a pool of  2 trial point group operations.


The magnetic configuration has the point symmetry C_1 .


 Subroutine INISYM returns: Found  1 space group operations
 (whereof  1 operations are pure point group operations),
 and found     1 'primitive' translations

 
 
 KPOINTS: KPOINTS created by Atomic Simulation Env

Automatic generation of k-mesh.
Space group operators:
 irot       det(A)        alpha          n_x          n_y          n_z        tau_x        tau_y        tau_z
    1     1.000000     0.000000     1.000000     0.000000     0.000000     0.000000     0.000000     0.000000
 
 Subroutine IBZKPT returns following result:
 ===========================================
 
 Found      2 irreducible k-points:
 
 Following reciprocal coordinates:
            Coordinates               Weight
  0.250000  0.250000 -0.000000      2.000000
 -0.250000  0.250000  0.000000      2.000000
 
 Following cartesian coordinates:
            Coordinates               Weight
  0.019263  0.020213 -0.000017      2.000000
 -0.019601  0.020543  0.000007      2.000000
 
 
 Subroutine IBZKPT_HF returns following result:
 ==============================================
 
 Found      4 k-points in 1st BZ
 the following      4 k-points will be used (e.g. in the exchange kernel)
 Following reciprocal coordinates:   # in IRBZ
  0.250000  0.250000 -0.000000    0.25000000   1 t-inv F
 -0.250000  0.250000  0.000000    0.25000000   2 t-inv F
 -0.250000 -0.250000  0.000000    0.25000000   1 t-inv T
  0.250000 -0.250000 -0.000000    0.25000000   2 t-inv T


--------------------------------------------------------------------------------------------------------




 Dimension of arrays:
   k-points           NKPTS =      2   k-points in BZ     NKDIM =      4   number of bands    NBANDS=    154
   number of dos      NEDOS =    301   number of ions     NIONS =     57
   non local maximal  LDIM  =      6   non local SUM 2l+1 LMDIM =     18
   total plane-waves  NPLWV = ******
   max r-space proj   IRMAX =      1   max aug-charges    IRDMAX=  14730
   dimension x,y,z NGX =    96 NGY =   90 NGZ =  150
   dimension x,y,z NGXF=   192 NGYF=  180 NGZF=  300
   support grid    NGXF=   192 NGYF=  180 NGZF=  300
   ions per type =              49   6   2
   NGX,Y,Z   is equivalent  to a cutoff of  12.40, 12.19, 12.39 a.u.
   NGXF,Y,Z  is equivalent  to a cutoff of  24.81, 24.39, 24.78 a.u.

 SYSTEM =  unknown system                          
 POSCAR =   C  N Fe                                

 Startparameter for this run:
   NWRITE =      2    write-flag & timer
   PREC   = accura    normal or accurate (medium, high low for compatibility)
   ISTART =      1    job   : 0-new  1-cont  2-samecut
   ICHARG =      0    charge: 1-file 2-atom 10-const
   ISPIN  =      2    spin polarized calculation?
   LNONCOLLINEAR =      F non collinear calculations
   LSORBIT =      F    spin-orbit coupling
   INIWAV =      1    electr: 0-lowe 1-rand  2-diag
   LASPH  =      T    aspherical Exc in radial PAW
   METAGGA=      F    non-selfconsistent MetaGGA calc.

 Electronic Relaxation 1
   ENCUT  =  500.0 eV  36.75 Ry    6.06 a.u.  23.46 22.37 36.70*2*pi/ulx,y,z
   ENINI  =  500.0     initial cutoff
   ENAUG  =  644.9 eV  augmentation charge cutoff
   NELM   =    250;   NELMIN=  2; NELMDL=  0     # of ELM steps 
   EDIFF  = 0.1E-03   stopping-criterion for ELM
   LREAL  =      F    real-space projection
   NLSPLINE    = F    spline interpolate recip. space projectors
   LCOMPAT=      F    compatible to vasp.4.4
   GGA_COMPAT  = T    GGA compatible to vasp.4.4-vasp.4.6
   LMAXPAW     = -100 max onsite density
   LMAXMIX     =    2 max onsite mixed and CHGCAR
   VOSKOWN=      0    Vosko Wilk Nusair interpolation
   ROPT   =    0.00000   0.00000   0.00000
 Ionic relaxation
   EDIFFG = -.3E-01   stopping-criterion for IOM
   NSW    =      0    number of steps for IOM
   NBLOCK =      1;   KBLOCK =      1    inner block; outer block 
   IBRION =     -1    ionic relax: 0-MD 1-quasi-New 2-CG
   NFREE  =      1    steps in history (QN), initial steepest desc. (CG)
   ISIF   =      2    stress and relaxation
   IWAVPR =     10    prediction:  0-non 1-charg 2-wave 3-comb
   ISYM   =      3    0-nonsym 1-usesym 2-fastsym
   LCORR  =      T    Harris-Foulkes like correction to forces

   POTIM  = 0.5000    time-step for ionic-motion
   TEIN   =    0.0    initial temperature
   TEBEG  =    0.0;   TEEND  =   0.0 temperature during run
   SMASS  =  -3.00    Nose mass-parameter (am)
   estimated Nose-frequenzy (Omega)   =  0.10E-29 period in steps =****** mass=  -0.378E-26a.u.
   SCALEE = 1.0000    scale energy and forces
   NPACO  =    256;   APACO  = 16.0  distance and # of slots for P.C.
   PSTRESS=    0.0 pullay stress

  Mass of Ions in am
   POMASS =  12.01 14.00 55.85
  Ionic Valenz
   ZVAL   =   4.00  5.00  8.00
  Atomic Wigner-Seitz radii
   RWIGS  =  -1.00 -1.00 -1.00
  virtual crystal weights 
   VCA    =   1.00  1.00  1.00
   NELECT =     242.0000    total number of electrons
   NUPDOWN=      -1.0000    fix difference up-down

 DOS related values:
   EMIN   =  10.00;   EMAX   =-10.00  energy-range for DOS
   EFERMI =   0.00
   ISMEAR =     0;   SIGMA  =   0.10  broadening in eV -4-tet -1-fermi 0-gaus

 Electronic relaxation 2 (details)
   IALGO  =     53    algorithm
   LDIAG  =      T    sub-space diagonalisation (order eigenvalues)
   LSUBROT=      F    optimize rotation matrix (better conditioning)
   TURBO    =      0    0=normal 1=particle mesh
   IRESTART =      0    0=no restart 2=restart with 2 vectors
   NREBOOT  =      0    no. of reboots
   NMIN     =      0    reboot dimension
   EREF     =   0.00    reference energy to select bands
   IMIX   =      4    mixing-type and parameters
     AMIX     =   0.40;   BMIX     =  1.00
     AMIX_MAG =   1.60;   BMIX_MAG =  1.00
     AMIN     =   0.10
     WC   =   100.;   INIMIX=   1;  MIXPRE=   1;  MAXMIX= -45

 Intra band minimization:
   WEIMIN = 0.0000     energy-eigenvalue tresh-hold
   EBREAK =  0.16E-06  absolut break condition
   DEPER  =   0.30     relativ break condition  

   TIME   =   0.20     timestep for ELM

  volume/ion in A,a.u.               =      55.73       376.12
  Fermi-wavevector in a.u.,A,eV,Ry     =   0.693979  1.311430  6.552660  0.481607
  Thomas-Fermi vector in A             =   1.776344
 
 Write flags
   LWAVE        =      T    write WAVECAR
   LDOWNSAMPLE  =      F    k-point downsampling of WAVECAR
   LCHARG       =      T    write CHGCAR
   LVTOT        =      F    write LOCPOT, total local potential
   LVHAR        =      F    write LOCPOT, Hartree potential only
   LELF         =      F    write electronic localiz. function (ELF)
   LORBIT       =     11    0 simple, 1 ext, 2 COOP (PROOUT), +10 PAW based schemes


 Dipole corrections
   LMONO  =      F    monopole corrections only (constant potential shift)
   LDIPOL =      T    correct potential (dipole corrections)
   IDIPOL =      3    1-x, 2-y, 3-z, 4-all directions 
   EPSILON=  1.0000000 bulk dielectric constant

 Exchange correlation treatment:
   GGA     =    PE    GGA type
   LEXCH   =     8    internal setting for exchange type
   VOSKOWN=      0    Vosko Wilk Nusair interpolation
   EXXOEP  =     0    0=HF, 1=EXX-LHF (local Hartree Fock) 2=EXX OEP
   LHFCALC =     T    Hartree Fock is set to
   LSYMGRAD=     F    symmetrize gradient (conserves proper symmetry)
   PRECFOCK=normal    Normal, Fast or Accurate (Low or Medium for compatibility)
   LRHFCALC=     F    long range Hartree Fock
   LRSCOR  =     F    long range correlation only (use DFT for short range part)
   LTHOMAS =     F    Thomas Fermi screening in HF
   LMODELHF=     F    short range full HF, long range fraction AEXX
   ENCUT4O =  -1.0   cutoff for four orbital integrals eV
   LMAXFOCK=     4    L truncation for augmentation on plane wave grid
   LMAXFOCKAE=  -1    L truncation for all-electron charge restoration on plane wave grid
   NMAXFOCKAE=   1    number of basis functions for all-electron charge restoration
   LFOCKAEDFT=     F  apply the AE augmentation even for DFT
   NKREDX  =     1    reduce k-point grid by
   NKREDY  =     1    reduce k-point grid by
   NKREDZ  =     1    reduce k-point grid by
   SHIFTRED=     F    shift reduced grid of Gamma
   HFKIDENT=     F    idential grid for each k-point
   ODDONLY =     F    use only odd q-grid points
   EVENONLY=     F    use only even q-grid points
   HFALPHA =   -1.0000 decay constant for conv. correction
   MCALPHA =    0.0000 extent of test-charge in conv. correction in multipole expansion
   AEXX    =    0.2500 exact exchange contribution
   HFSCREEN=    0.2000 screening length (either q_TF or 0.3 A-1)
   HFSCREENC=   0.2000 screening length for correlation (either q_TF or 0.3 A-1)
   HFRCUT  =    0.0000 spherical cutoff for potential kernel
   ALDAX   =    0.7500 LDA exchange part
   AGGAX   =    0.7500 GGA exchange part
   ALDAC   =    1.0000 LDA correlation
   AGGAC   =    1.0000 GGA correlation
   ENCUTFOCK=  -1.0 apply spherical cutoff to Coloumb kernel
   NBANDSGWLOW=     1    first orbital included in HF term
   NBLOCK_FOCK=    64    blocking factor in FOCK_ACC
 Linear response parameters
   LEPSILON=     F    determine dielectric tensor
   LRPA    =     F    only Hartree local field effects (RPA)
   LNABLA  =     F    use nabla operator in PAW spheres
   LVEL    =     F    velocity operator in full k-point grid
   LINTERFAST=   F  fast interpolation
   KINTER  =     0    interpolate to denser k-point grid
   CSHIFT  =0.1000    complex shift for real part using Kramers Kronig
   OMEGAMAX=  -1.0    maximum frequency
   DEG_THRESHOLD= 0.2000000E-02 threshold for treating states as degnerate
   RTIME   =   -0.100 relaxation time in fs
  (WPLASMAI=    0.000 imaginary part of plasma frequency in eV, 0.658/RTIME)
   DFIELD  = 0.0000000 0.0000000 0.0000000 field for delta impulse in time
 
 Orbital magnetization related:
   ORBITALMAG=     F  switch on orbital magnetization
   LCHIMAG   =     F  perturbation theory with respect to B field
   DQ        =  0.001000  dq finite difference perturbation B field
   LLRAUG    =     F  two centre corrections for induced B field



--------------------------------------------------------------------------------------------------------


 Static calculation
 charge density and potential will be updated during run
 spin polarized calculation
 Conjugate gradient for all bands (Freysoldt, et al. PRB 79, 241103 (2009))
 perform sub-space diagonalisation
    before iterative eigenvector-optimisation
 modified Broyden-mixing scheme, WC =      100.0
 initial mixing is a Kerker type mixing with AMIX =  0.4000 and BMIX =      1.0000
 Hartree-type preconditioning will be used
 using additional bands           33
 reciprocal scheme for non local part
 use partial core corrections
 no Harris-corrections to forces 
 use gradient corrections 
 use of overlap-Matrix (Vanderbilt PP)
 Gauss-broadening in eV      SIGMA  =   0.10


--------------------------------------------------------------------------------------------------------


  energy-cutoff  :      500.00
  volume of cell :     3176.88
      direct lattice vectors                 reciprocal lattice vectors
    12.866201761  0.106781608  0.008415763     0.077728529 -0.000660585 -0.000048092
     0.104273173 12.269173484  0.003411614    -0.000676476  0.081510838 -0.000021895
     0.012499301  0.005509994 20.126394813    -0.000032387 -0.000013541  0.049686021

  length of vectors
    12.866647617 12.269617049 20.126399449     0.077731351  0.081513648  0.049686034


 
 old parameters found on file WAVECAR:
  energy-cutoff  :      500.00
  volume of cell :     3176.88
      direct lattice vectors                 reciprocal lattice vectors
    12.810000000  0.000000000  0.000000000     0.078064012  0.000000000  0.000000000
     0.000000000 12.400000000  0.000000000     0.000000000  0.080645161  0.000000000
     0.000000000  0.000000000 20.000000000     0.000000000  0.000000000  0.050000000

  length of vectors

 
 k-points in units of 2pi/SCALE and weight: KPOINTS created by Atomic Simulation Env
   0.01926301  0.02021256 -0.00001750       0.500
  -0.01960125  0.02054286  0.00000655       0.500
 
 k-points in reciprocal lattice and weights: KPOINTS created by Atomic Simulation Env
   0.25000000  0.25000000 -0.00000000       0.500
  -0.25000000  0.25000000  0.00000000       0.500
 
 position of ions in fractional coordinates (direct lattice) 
   0.22130968  0.99890284  0.50007163
   0.05248363  0.10069970  0.50006312
   0.10995723  0.00027855  0.50004913
   0.27517504  0.09911665  0.49996075
   0.21805767  0.19931452  0.49987432
   0.05150648  0.30088162  0.50001766
   0.10699597  0.20034917  0.50002164
   0.27279579  0.29795297  0.49959180
   0.21770940  0.39936702  0.49957342
   0.05494949  0.50144663  0.49993721
   0.10830384  0.39988191  0.49983698
   0.22602428  0.59463014  0.49975282
   0.05806679  0.70067680  0.49995739
   0.11438188  0.59942973  0.49988634
   0.28487712  0.69613894  0.49991384
   0.22507872  0.79693029  0.50000597
   0.05584398  0.90055607  0.49999125
   0.11331196  0.79961085  0.49998206
   0.27865073  0.89791717  0.50006923
   0.55350966  0.00188944  0.49997323
   0.38584750  0.10160156  0.49988280
   0.44313005  0.00023577  0.49999372
   0.60649297  0.10466839  0.49992690
   0.54940643  0.20624294  0.49978633
   0.43756545  0.20535189  0.49967018
   0.60482956  0.30871346  0.49994040
   0.55789668  0.79635548  0.50011475
   0.38969769  0.89755267  0.50005794
   0.44389865  0.79313642  0.50005968
   0.60970378  0.90011737  0.50002871
   0.88658446  0.00291093  0.49996598
   0.71804980  0.10564877  0.50002184
   0.77497386  0.00438590  0.49996438
   0.94110878  0.10267350  0.50005594
   0.88454841  0.20386075  0.50015966
   0.71734951  0.30909737  0.50027189
   0.77290876  0.20671410  0.50017050
   0.94047606  0.30299861  0.50015984
   0.88621812  0.40486185  0.50024332
   0.77475315  0.40966811  0.50040416
   0.94475854  0.50294722  0.50014505
   0.89041243  0.60420712  0.50015983
   0.72343692  0.70518649  0.50020850
   0.78089096  0.60450108  0.50034528
   0.94683504  0.70286422  0.50000603
   0.89007324  0.80286131  0.49996912
   0.72102199  0.90362705  0.49997186
   0.77867595  0.80385233  0.50002758
   0.94432190  0.90255173  0.49993906
   0.27642622  0.49371412  0.49944160
   0.38005193  0.30167919  0.49939720
   0.55124563  0.40319188  0.49970776
   0.39204187  0.69552427  0.49999537
   0.61582802  0.70050917  0.50018453
   0.72472042  0.50978688  0.50059674
   0.41919080  0.45338131  0.49897543
   0.57612914  0.54671774  0.50023034
 
 position of ions in cartesian coordinates  (Angst):
   2.95782434 12.28209943 10.06990949
   0.69201565  1.24386170 10.06525311
   1.42101120  0.01791421 10.06511263
   3.55704191  1.24821781 10.06506134
   2.83260518  2.47146326 10.06318306
   0.70031647  3.69982377 10.06501285
   1.40377271  2.47229900 10.06521690
   3.54715873  3.68751900 10.05829415
   2.84898064  4.92590331 10.05780651
   0.76552748  6.16095795 10.06410688
   1.44140367  4.92053954 10.06219207
   2.97632457  7.32250925 10.06215335
   0.82640999  8.60568048 10.06521895
   1.54041302  7.36947562 10.06391755
   3.74412365  8.57422353 10.06623579
   2.98525645  9.80446528 10.06793060
   0.81865323 11.05779676 10.06656355
   1.54752189  9.82541882 10.06651783
   3.68505574 11.04921170 10.06999917
   7.12801327  0.08504132 10.06732331
   4.98123429  1.29052297 10.06443232
   5.70767478  0.05296582 10.06680118
   7.82042374  1.35171155 10.06718738
   7.09652651  2.59185075 10.06422431
   5.65746360  2.56897511 10.06094238
   7.82029860  3.85499833 10.06814126
   7.26730079  9.83295221 10.07291881
   5.11377018 11.05659725 10.07070524
   5.80024281  9.78128383 10.07084027
   7.94467989 11.11155642 10.07197731
  11.41352729  0.13314038 10.06998401
   9.25583980  1.37565273 10.07004025
   9.97767653  0.13931907 10.06901744
  12.12545188  1.36296743 10.07259366
  11.40828722  2.59841233 10.07455048
   9.26804711  3.87172554 10.07576120
   9.97220659  2.62149958 10.07383872
  12.13820105  3.82072394 10.07536295
  11.45073011  5.06470843 10.07693406
  10.01710238  5.11177577 10.07924952
  12.21414941  6.27438534 10.07578346
  11.52548020  7.51095757 10.07596911
   9.38766968  8.73206131 10.07588785
  10.11638787  7.50287031 10.07878076
  12.26171033  8.72742269 10.07368503
  11.54182806  9.94824300 10.07280563
   9.37728771 11.16650382 10.07178176
  10.10867210  9.94850717 10.07304802
  12.25019689 11.17715464 10.07299725
   3.61427936  6.08973339 10.05596947
   4.92752399  3.74468853 10.05529278
   7.14072559  5.00844742 10.06333026
   5.12286393  8.57812580 10.06877632
   8.00266387  8.66318371 10.07448380
   9.38381339  6.33480877 10.08304595
   5.44690573  5.61012520 10.04765113
   7.47585431  6.77205103 10.07454699
 


--------------------------------------------------------------------------------------------------------


 k-point  1 :   0.2500 0.2500-0.0000  plane waves:   80654
 k-point  2 :  -0.2500 0.2500 0.0000  plane waves:   80668

 maximum and minimum number of plane-waves per node :      2556     2482

 maximum number of plane-waves:     80668
 maximum index in each direction: 
   IXMAX=   23   IYMAX=   22   IZMAX=   36
   IXMIN=  -23   IYMIN=  -22   IZMIN=  -36


 parallel 3D FFT for wavefunctions:
    minimum data exchange during FFTs selected (reduces bandwidth)
 parallel 3D FFT for charge:
    minimum data exchange during FFTs selected (reduces bandwidth)


 FFT grid for exact exchange (Hartree Fock) 
  NGX = 72; NGY = 70; NGZ =112

 
 Radii for the augmentation spheres in the non-local exchange
 for species   1 augmentation radius   0.874 (default was   0.699)
       energy cutoff for augmentation   2000.0
 for species   2 augmentation radius   0.886 (default was   0.709)
       energy cutoff for augmentation   2000.0
 for species   3 augmentation radius   1.263 (default was   1.010)
       energy cutoff for augmentation   2000.0

 real space projection operators:
  total allocation   :       2499.02 KBytes
  max/ min on nodes  :        110.68         51.66

 Maximum index for augmentation-charges in exchange          148
  SETUP_FOCK is finished

 total amount of memory used by VASP MPI-rank0   158259. kBytes
=======================================================================

   base      :      30000. kBytes
   nonl-proj :       4553. kBytes
   fftplans  :      13453. kBytes
   grid      :      31949. kBytes
   one-center:         62. kBytes
   HF        :         23. kBytes
   nonlr-proj:       1638. kBytes
   wavefun   :      76581. kBytes
 
     INWAV:  cpu time    3.5998: real time    3.6035
 Broyden mixing: mesh for mixing (old mesh)
   NGX = 47   NGY = 45   NGZ = 73
  (NGX  =192   NGY  =180   NGZ  =300)
  gives a total of 154395 points

 charge density for first step will be calculated from the start-wavefunctions


--------------------------------------------------------------------------------------------------------


 Maximum index for augmentation-charges           97 (set IRDMAX)


--------------------------------------------------------------------------------------------------------


 initial charge from wavefunction
 First call to EWALD:  gamma=   0.121
 Maximum number of real-space cells 3x 3x 2
 Maximum number of reciprocal cells 2x 2x 4

    FEWALD:  cpu time    0.0036: real time    0.0036


--------------------------------------- Iteration      1(   1)  ---------------------------------------


    POTLOK:  cpu time    1.3063: real time    1.3094
    SETDIJ:  cpu time    2.0917: real time    2.0922
    TRIAL :  cpu time  516.7366: real time  517.1030
    CORREC:  cpu time    0.0023: real time    0.0023
    CHARGE:  cpu time    1.6568: real time    1.6576
    --------------------------------------------
      LOOP:  cpu time  521.8013: real time  522.4998

 eigenvalue-minimisations  :     0
 total energy-change (2. order) :-0.5977500E+03  (-0.4621995E+00)
 number of electron     242.0000006 magnetization      -2.1378569
 augmentation part       14.2772807 magnetization      -1.4353847

 DIPCOR: dipole corrections for dipol
 direction  3 min pos     1,
 dipolmoment          -0.000000     -0.000000     -0.000476 electrons x Angstroem
 Tr[quadrupol]     -6368.288263

 energy correction for charged system         0.000000 eV
 dipol+quadrupol energy correction            0.000000 eV
 added-field ion interaction          0.000000 eV  (added to PSCEN)


 Free energy of the ion-electron system (eV)
  ---------------------------------------------------
  alpha Z        PSCENC =        99.66608958
  Ewald energy   TEWEN  =     39320.83667579
  -Hartree energ DENC   =    -47843.80806784
  -exchange      EXHF   =       550.90335256
  -V(xc)+E(xc)   XCENC  =       615.56767601
  PAW double counting   =     26142.62178684   -26189.70526359
  entropy T*S    EENTRO =        -0.01906833
  eigenvalues    EBANDS =     -3166.48668893
  atomic energy  EATOM  =      9872.67749742
  ---------------------------------------------------
  free energy    TOTEN  =      -597.75003747 eV

  energy without entropy =     -597.73096914  energy(sigma->0) =     -597.74050330
  exchange ACFDT corr.  =        -0.04373894  see jH, gK, PRB 81, 115126


--------------------------------------------------------------------------------------------------------




--------------------------------------- Iteration      1(   2)  ---------------------------------------


    POTLOK:  cpu time    1.3156: real time    1.3162
    SETDIJ:  cpu time    2.0906: real time    2.0917
    TRIAL :  cpu time  518.7224: real time  519.1423
    CORREC:  cpu time    0.0022: real time    0.0022
    CHARGE:  cpu time    1.6439: real time    1.6447
    --------------------------------------------
      LOOP:  cpu time  523.7783: real time  524.2013

 eigenvalue-minimisations  :     0
 total energy-change (2. order) :-0.3880592E+00  (-0.4284275E+00)
 number of electron     242.0000005 magnetization      -2.1005620
 augmentation part       14.2382527 magnetization      -1.4465942

 DIPCOR: dipole corrections for dipol
 direction  3 min pos     1,
 dipolmoment          -0.000001     -0.000000     -0.000862 electrons x Angstroem
 Tr[quadrupol]     -6368.132898

 energy correction for charged system         0.000000 eV
 dipol+quadrupol energy correction            0.000000 eV
 added-field ion interaction          0.000000 eV  (added to PSCEN)


 Free energy of the ion-electron system (eV)
  ---------------------------------------------------
  alpha Z        PSCENC =        99.66608960
  Ewald energy   TEWEN  =     39320.83667579
  -Hartree energ DENC   =    -47830.13689295
  -exchange      EXHF   =       550.80164145
  -V(xc)+E(xc)   XCENC  =       615.20245546
  PAW double counting   =     26270.70488614   -26317.57511815
  entropy T*S    EENTRO =        -0.01481467
  eigenvalues    EBANDS =     -3180.29626306
  atomic energy  EATOM  =      9872.67749742
  ---------------------------------------------------
  free energy    TOTEN  =      -598.13809663 eV

  energy without entropy =     -598.12328196  energy(sigma->0) =     -598.13068929
  exchange ACFDT corr.  =        -0.03482126  see jH, gK, PRB 81, 115126


--------------------------------------------------------------------------------------------------------




--------------------------------------- Iteration      1(   3)  ---------------------------------------


    POTLOK:  cpu time    1.3211: real time    1.3216
    SETDIJ:  cpu time    2.1184: real time    2.1189
    TRIAL :  cpu time  518.1304: real time  518.4133
    CORREC:  cpu time    0.0021: real time    0.0021
    CHARGE:  cpu time    1.6432: real time    1.6441
    --------------------------------------------
      LOOP:  cpu time  523.2177: real time  523.5024

 eigenvalue-minimisations  :     0
 total energy-change (2. order) :-0.3369420E+00  (-0.2663551E+00)
 number of electron     242.0000005 magnetization      -2.0656515
 augmentation part       14.2243123 magnetization      -1.4492154

 DIPCOR: dipole corrections for dipol
 direction  3 min pos     1,
 dipolmoment          -0.000001     -0.000000     -0.000839 electrons x Angstroem
 Tr[quadrupol]     -6367.968446

 energy correction for charged system         0.000000 eV
 dipol+quadrupol energy correction            0.000000 eV
 added-field ion interaction          0.000000 eV  (added to PSCEN)


 Free energy of the ion-electron system (eV)
  ---------------------------------------------------
  alpha Z        PSCENC =        99.66608960
  Ewald energy   TEWEN  =     39320.83667579
  -Hartree energ DENC   =    -47814.33925967
  -exchange      EXHF   =       550.77614864
  -V(xc)+E(xc)   XCENC  =       614.83848789
  PAW double counting   =     26429.67298781   -26476.03074227
  entropy T*S    EENTRO =        -0.01060294
  eigenvalues    EBANDS =     -3196.55810912
  atomic energy  EATOM  =      9872.67749742
  ---------------------------------------------------
  free energy    TOTEN  =      -598.47503859 eV

  energy without entropy =     -598.46443565  energy(sigma->0) =     -598.46973712
  exchange ACFDT corr.  =        -0.02518279  see jH, gK, PRB 81, 115126


--------------------------------------------------------------------------------------------------------




--------------------------------------- Iteration      1(   4)  ---------------------------------------


    POTLOK:  cpu time    1.3184: real time    1.3189
    SETDIJ:  cpu time    2.0924: real time    2.0927
    TRIAL :  cpu time  516.7168: real time  517.1234
    CORREC:  cpu time    0.0022: real time    0.0022
    CHARGE:  cpu time    1.6366: real time    1.6374
    --------------------------------------------
      LOOP:  cpu time  521.7686: real time  522.1768

 eigenvalue-minimisations  :     0
 total energy-change (2. order) :-0.2126326E+00  (-0.1755125E+00)
 number of electron     242.0000005 magnetization      -2.0389381
 augmentation part       14.2326785 magnetization      -1.4428887

 DIPCOR: dipole corrections for dipol
 direction  3 min pos     1,
 dipolmoment          -0.000000     -0.000000     -0.000541 electrons x Angstroem
 Tr[quadrupol]     -6367.911420

 energy correction for charged system         0.000000 eV
 dipol+quadrupol energy correction            0.000000 eV
 added-field ion interaction          0.000000 eV  (added to PSCEN)


 Free energy of the ion-electron system (eV)
  ---------------------------------------------------
  alpha Z        PSCENC =        99.66608958
  Ewald energy   TEWEN  =     39320.83667579
  -Hartree energ DENC   =    -47807.65781573
  -exchange      EXHF   =       550.96267768
  -V(xc)+E(xc)   XCENC  =       614.71933820
  PAW double counting   =     26568.31313874   -26614.56020881
  entropy T*S    EENTRO =        -0.00708250
  eigenvalues    EBANDS =     -3203.63446110
  atomic energy  EATOM  =      9872.67749742
  ---------------------------------------------------
  free energy    TOTEN  =      -598.68767116 eV

  energy without entropy =     -598.68058866  energy(sigma->0) =     -598.68412991
  exchange ACFDT corr.  =        -0.01642132  see jH, gK, PRB 81, 115126


--------------------------------------------------------------------------------------------------------




--------------------------------------- Iteration      1(   5)  ---------------------------------------


    POTLOK:  cpu time    1.3206: real time    1.3211
    SETDIJ:  cpu time    2.0904: real time    2.0906
    TRIAL :  cpu time  517.1621: real time  517.6517
    CORREC:  cpu time    0.0020: real time    0.0020
    CHARGE:  cpu time    1.6335: real time    1.6342
    --------------------------------------------
      LOOP:  cpu time  522.2113: real time  522.7023

 eigenvalue-minimisations  :     0
 total energy-change (2. order) :-0.1470310E+00  (-0.1284492E+00)
 number of electron     242.0000005 magnetization      -2.0217272
 augmentation part       14.2420028 magnetization      -1.4321507

 DIPCOR: dipole corrections for dipol
 direction  3 min pos     1,
 dipolmoment          -0.000000     -0.000000     -0.000305 electrons x Angstroem
 Tr[quadrupol]     -6367.948297

 energy correction for charged system         0.000000 eV
 dipol+quadrupol energy correction            0.000000 eV
 added-field ion interaction          0.000000 eV  (added to PSCEN)


 Free energy of the ion-electron system (eV)
  ---------------------------------------------------
  alpha Z        PSCENC =        99.66608958
  Ewald energy   TEWEN  =     39320.83667579
  -Hartree energ DENC   =    -47809.29516803
  -exchange      EXHF   =       551.29983802
  -V(xc)+E(xc)   XCENC  =       614.81576442
  PAW double counting   =     26670.15534812   -26716.59364668
  entropy T*S    EENTRO =        -0.00458480
  eigenvalues    EBANDS =     -3202.39001827
  atomic energy  EATOM  =      9872.67749742
  ---------------------------------------------------
  free energy    TOTEN  =      -598.83470213 eV

  energy without entropy =     -598.83011733  energy(sigma->0) =     -598.83240973
  exchange ACFDT corr.  =        -0.00992336  see jH, gK, PRB 81, 115126


--------------------------------------------------------------------------------------------------------




--------------------------------------- Iteration      1(   6)  ---------------------------------------


    POTLOK:  cpu time    1.3208: real time    1.3213
    SETDIJ:  cpu time    2.0865: real time    2.0869
    TRIAL :  cpu time  516.3949: real time  516.8180
    CORREC:  cpu time    0.0021: real time    0.0021
    CHARGE:  cpu time    1.6320: real time    1.6329
    --------------------------------------------
      LOOP:  cpu time  521.4386: real time  521.8636

 eigenvalue-minimisations  :     0
 total energy-change (2. order) :-0.1112927E+00  (-0.9845947E-01)
 number of electron     242.0000005 magnetization      -2.0111524
 augmentation part       14.2481134 magnetization      -1.4185982

 DIPCOR: dipole corrections for dipol
 direction  3 min pos     1,
 dipolmoment          -0.000000     -0.000000     -0.000145 electrons x Angstroem
 Tr[quadrupol]     -6368.012956

 energy correction for charged system         0.000000 eV
 dipol+quadrupol energy correction            0.000000 eV
 added-field ion interaction          0.000000 eV  (added to PSCEN)


 Free energy of the ion-electron system (eV)
  ---------------------------------------------------
  alpha Z        PSCENC =        99.66608958
  Ewald energy   TEWEN  =     39320.83667579
  -Hartree energ DENC   =    -47813.58562564
  -exchange      EXHF   =       551.65525162
  -V(xc)+E(xc)   XCENC  =       614.98850787
  PAW double counting   =     26736.23383280   -26782.83447198
  entropy T*S    EENTRO =        -0.00291599
  eigenvalues    EBANDS =     -3198.57916744
  atomic energy  EATOM  =      9872.67749742
  ---------------------------------------------------
  free energy    TOTEN  =      -598.94599478 eV

  energy without entropy =     -598.94307879  energy(sigma->0) =     -598.94453679
  exchange ACFDT corr.  =        -0.00584591  see jH, gK, PRB 81, 115126


--------------------------------------------------------------------------------------------------------




--------------------------------------- Iteration      1(   7)  ---------------------------------------


    POTLOK:  cpu time    1.3148: real time    1.3154
    SETDIJ:  cpu time    2.0889: real time    2.0892
    TRIAL :  cpu time  516.4402: real time  516.9640
    CORREC:  cpu time    0.0020: real time    0.0020
    CHARGE:  cpu time    1.6345: real time    1.6353
    --------------------------------------------
      LOOP:  cpu time  521.4827: real time  522.0084

 eigenvalue-minimisations  :     0
 total energy-change (2. order) :-0.8731773E-01  (-0.7792181E-01)
 number of electron     242.0000005 magnetization      -2.0051102
 augmentation part       14.2534194 magnetization      -1.4036279

 DIPCOR: dipole corrections for dipol
 direction  3 min pos     1,
 dipolmoment          -0.000000     -0.000000     -0.000072 electrons x Angstroem
 Tr[quadrupol]     -6368.065970

 energy correction for charged system         0.000000 eV
 dipol+quadrupol energy correction            0.000000 eV
 added-field ion interaction          0.000000 eV  (added to PSCEN)


 Free energy of the ion-electron system (eV)
  ---------------------------------------------------
  alpha Z        PSCENC =        99.66608958
  Ewald energy   TEWEN  =     39320.83667579
  -Hartree energ DENC   =    -47817.34421080
  -exchange      EXHF   =       551.95150942
  -V(xc)+E(xc)   XCENC  =       615.14643181
  PAW double counting   =     26775.55995340   -26822.24548875
  entropy T*S    EENTRO =        -0.00188031
  eigenvalues    EBANDS =     -3195.27885439
  atomic energy  EATOM  =      9872.67749742
  ---------------------------------------------------
  free energy    TOTEN  =      -599.03331252 eV

  energy without entropy =     -599.03143221  energy(sigma->0) =     -599.03237236
  exchange ACFDT corr.  =        -0.00346022  see jH, gK, PRB 81, 115126


--------------------------------------------------------------------------------------------------------




--------------------------------------- Iteration      1(   8)  ---------------------------------------


    POTLOK:  cpu time    1.3173: real time    1.3181
    SETDIJ:  cpu time    2.0886: real time    2.0890
    TRIAL :  cpu time  516.6812: real time  517.1032
    CORREC:  cpu time    0.0020: real time    0.0020
    CHARGE:  cpu time    1.6322: real time    1.6327
    --------------------------------------------
      LOOP:  cpu time  521.7240: real time  522.1477

 eigenvalue-minimisations  :     0
 total energy-change (2. order) :-0.7053647E-01  (-0.6396629E-01)
 number of electron     242.0000005 magnetization      -2.0020838
 augmentation part       14.2581802 magnetization      -1.3890663

 DIPCOR: dipole corrections for dipol
 direction  3 min pos     1,
 dipolmoment          -0.000000     -0.000000     -0.000094 electrons x Angstroem
 Tr[quadrupol]     -6368.097577

 energy correction for charged system         0.000000 eV
 dipol+quadrupol energy correction            0.000000 eV
 added-field ion interaction          0.000000 eV  (added to PSCEN)


 Free energy of the ion-electron system (eV)
  ---------------------------------------------------
  alpha Z        PSCENC =        99.66608958
  Ewald energy   TEWEN  =     39320.83667579
  -Hartree energ DENC   =    -47819.74789497
  -exchange      EXHF   =       552.17246846
  -V(xc)+E(xc)   XCENC  =       615.26130638
  PAW double counting   =     26797.69520602   -26844.44430452
  entropy T*S    EENTRO =        -0.00129603
  eigenvalues    EBANDS =     -3193.21901284
  atomic energy  EATOM  =      9872.67749742
  ---------------------------------------------------
  free energy    TOTEN  =      -599.10384898 eV

  energy without entropy =     -599.10255295  energy(sigma->0) =     -599.10320097
  exchange ACFDT corr.  =        -0.00215404  see jH, gK, PRB 81, 115126


--------------------------------------------------------------------------------------------------------




--------------------------------------- Iteration      1(   9)  ---------------------------------------


    POTLOK:  cpu time    1.3142: real time    1.3143
    SETDIJ:  cpu time    2.0878: real time    2.0878
    TRIAL :  cpu time  516.6633: real time  516.8086
    CORREC:  cpu time    0.0020: real time    0.0020
    CHARGE:  cpu time    1.6316: real time    1.6324
    --------------------------------------------
      LOOP:  cpu time  521.7011: real time  521.8474

 eigenvalue-minimisations  :     0
 total energy-change (2. order) :-0.5890270E-01  (-0.5435152E-01)
 number of electron     242.0000005 magnetization      -2.0007344
 augmentation part       14.2619553 magnetization      -1.3759145

 DIPCOR: dipole corrections for dipol
 direction  3 min pos     1,
 dipolmoment          -0.000000     -0.000000     -0.000172 electrons x Angstroem
 Tr[quadrupol]     -6368.112137

 energy correction for charged system         0.000000 eV
 dipol+quadrupol energy correction            0.000000 eV
 added-field ion interaction          0.000000 eV  (added to PSCEN)


 Free energy of the ion-electron system (eV)
  ---------------------------------------------------
  alpha Z        PSCENC =        99.66608958
  Ewald energy   TEWEN  =     39320.83667579
  -Hartree energ DENC   =    -47820.94779346
  -exchange      EXHF   =       552.33391699
  -V(xc)+E(xc)   XCENC  =       615.33843177
  PAW double counting   =     26809.84300667   -26856.65183800
  entropy T*S    EENTRO =        -0.00098139
  eigenvalues    EBANDS =     -3192.25744241
  atomic energy  EATOM  =      9872.67749742
  ---------------------------------------------------
  free energy    TOTEN  =      -599.16275169 eV

  energy without entropy =     -599.16177029  energy(sigma->0) =     -599.16226099
  exchange ACFDT corr.  =        -0.00147630  see jH, gK, PRB 81, 115126


--------------------------------------------------------------------------------------------------------




--------------------------------------- Iteration      1(  10)  ---------------------------------------


    POTLOK:  cpu time    1.3138: real time    1.3143
    SETDIJ:  cpu time    2.1198: real time    2.1201
    TRIAL :  cpu time  516.7298: real time  517.2368
    CORREC:  cpu time    0.0020: real time    0.0019
    CHARGE:  cpu time    1.6305: real time    1.6312
    --------------------------------------------
      LOOP:  cpu time  521.7982: real time  522.3067

 eigenvalue-minimisations  :     0
 total energy-change (2. order) :-0.5079233E-01  (-0.4777303E-01)
 number of electron     242.0000005 magnetization      -2.0001510
 augmentation part       14.2651568 magnetization      -1.3641058

 DIPCOR: dipole corrections for dipol
 direction  3 min pos     1,
 dipolmoment          -0.000000     -0.000000     -0.000251 electrons x Angstroem
 Tr[quadrupol]     -6368.117904

 energy correction for charged system         0.000000 eV
 dipol+quadrupol energy correction            0.000000 eV
 added-field ion interaction          0.000000 eV  (added to PSCEN)


 Free energy of the ion-electron system (eV)
  ---------------------------------------------------
  alpha Z        PSCENC =        99.66608958
  Ewald energy   TEWEN  =     39320.83667579
  -Hartree energ DENC   =    -47821.43604908
  -exchange      EXHF   =       552.45960070
  -V(xc)+E(xc)   XCENC  =       615.39306315
  PAW double counting   =     26816.59962581   -26863.46201182
  entropy T*S    EENTRO =        -0.00081083
  eigenvalues    EBANDS =     -3191.94705418
  atomic energy  EATOM  =      9872.67749742
  ---------------------------------------------------
  free energy    TOTEN  =      -599.21354402 eV

  energy without entropy =     -599.21273319  energy(sigma->0) =     -599.21313861
  exchange ACFDT corr.  =        -0.00111459  see jH, gK, PRB 81, 115126


--------------------------------------------------------------------------------------------------------




--------------------------------------- Iteration      1(  11)  ---------------------------------------


    POTLOK:  cpu time    1.3125: real time    1.3131
    SETDIJ:  cpu time    2.0858: real time    2.0864
    TRIAL :  cpu time  516.7523: real time  517.0515
    CORREC:  cpu time    0.0020: real time    0.0020
    CHARGE:  cpu time    1.6304: real time    1.6312
    --------------------------------------------
      LOOP:  cpu time  521.7855: real time  522.0867

 eigenvalue-minimisations  :     0
 total energy-change (2. order) :-0.4524840E-01  (-0.4344765E-01)
 number of electron     242.0000005 magnetization      -1.9998683
 augmentation part       14.2682347 magnetization      -1.3532376

 DIPCOR: dipole corrections for dipol
 direction  3 min pos     1,
 dipolmoment          -0.000000     -0.000000     -0.000298 electrons x Angstroem
 Tr[quadrupol]     -6368.121397

 energy correction for charged system         0.000000 eV
 dipol+quadrupol energy correction            0.000000 eV
 added-field ion interaction          0.000000 eV  (added to PSCEN)


 Free energy of the ion-electron system (eV)
  ---------------------------------------------------
  alpha Z        PSCENC =        99.66608958
  Ewald energy   TEWEN  =     39320.83667579
  -Hartree energ DENC   =    -47821.69985238
  -exchange      EXHF   =       552.56843379
  -V(xc)+E(xc)   XCENC  =       615.43835479
  PAW double counting   =     26820.79275429   -26867.70600360
  entropy T*S    EENTRO =        -0.00071915
  eigenvalues    EBANDS =     -3191.83193127
  atomic energy  EATOM  =      9872.67749742
  ---------------------------------------------------
  free energy    TOTEN  =      -599.25879242 eV

  energy without entropy =     -599.25807327  energy(sigma->0) =     -599.25843285
  exchange ACFDT corr.  =        -0.00090396  see jH, gK, PRB 81, 115126


--------------------------------------------------------------------------------------------------------




--------------------------------------- Iteration      1(  12)  ---------------------------------------


    POTLOK:  cpu time    1.3124: real time    1.3131
    SETDIJ:  cpu time    2.1152: real time    2.1155
    TRIAL :  cpu time  516.8666: real time  517.1178
    CORREC:  cpu time    0.0019: real time    0.0019
    CHARGE:  cpu time    1.6282: real time    1.6290
    --------------------------------------------
      LOOP:  cpu time  521.9266: real time  522.1795

 eigenvalue-minimisations  :     0
 total energy-change (2. order) :-0.4164693E-01  (-0.4083958E-01)
 number of electron     242.0000005 magnetization      -1.9996919
 augmentation part       14.2712305 magnetization      -1.3429898

 DIPCOR: dipole corrections for dipol
 direction  3 min pos     1,
 dipolmoment          -0.000000     -0.000000     -0.000322 electrons x Angstroem
 Tr[quadrupol]     -6368.125241

 energy correction for charged system         0.000000 eV
 dipol+quadrupol energy correction            0.000000 eV
 added-field ion interaction          0.000000 eV  (added to PSCEN)


 Free energy of the ion-electron system (eV)
  ---------------------------------------------------
  alpha Z        PSCENC =        99.66608958
  Ewald energy   TEWEN  =     39320.83667579
  -Hartree energ DENC   =    -47821.97969182
  -exchange      EXHF   =       552.67019451
  -V(xc)+E(xc)   XCENC  =       615.48064530
  PAW double counting   =     26824.04248926   -26871.00629258
  entropy T*S    EENTRO =        -0.00067823
  eigenvalues    EBANDS =     -3191.68732766
  atomic energy  EATOM  =      9872.67749742
  ---------------------------------------------------
  free energy    TOTEN  =      -599.30043936 eV

  energy without entropy =     -599.29976113  energy(sigma->0) =     -599.30010024
  exchange ACFDT corr.  =        -0.00113805  see jH, gK, PRB 81, 115126


--------------------------------------------------------------------------------------------------------




--------------------------------------- Iteration      1(  13)  ---------------------------------------


    POTLOK:  cpu time    1.3157: real time    1.3163
    SETDIJ:  cpu time    2.1146: real time    2.1149
    TRIAL :  cpu time  516.9840: real time  517.3842
    CORREC:  cpu time    0.0019: real time    0.0019
    CHARGE:  cpu time    1.6448: real time    1.6456
    --------------------------------------------
      LOOP:  cpu time  522.0629: real time  522.4649

 eigenvalue-minimisations  :     0
 total energy-change (2. order) :-0.3954565E-01  (-0.3955403E-01)
 number of electron     242.0000005 magnetization      -1.9995637
 augmentation part       14.2740137 magnetization      -1.3332050

 DIPCOR: dipole corrections for dipol
 direction  3 min pos     1,
 dipolmoment          -0.000000     -0.000000     -0.000340 electrons x Angstroem
 Tr[quadrupol]     -6368.129497

 energy correction for charged system         0.000000 eV
 dipol+quadrupol energy correction            0.000000 eV
 added-field ion interaction          0.000000 eV  (added to PSCEN)


 Free energy of the ion-electron system (eV)
  ---------------------------------------------------
  alpha Z        PSCENC =        99.66608958
  Ewald energy   TEWEN  =     39320.83667579
  -Hartree energ DENC   =    -47822.30236910
  -exchange      EXHF   =       552.76818647
  -V(xc)+E(xc)   XCENC  =       615.52114300
  PAW double counting   =     26827.16263763   -26874.17444247
  entropy T*S    EENTRO =        -0.00068110
  eigenvalues    EBANDS =     -3191.49472511
  atomic energy  EATOM  =      9872.67749742
  ---------------------------------------------------
  free energy    TOTEN  =      -599.33998500 eV

  energy without entropy =     -599.33930391  energy(sigma->0) =     -599.33964446
  exchange ACFDT corr.  =        -0.00093418  see jH, gK, PRB 81, 115126


--------------------------------------------------------------------------------------------------------




--------------------------------------- Iteration      1(  14)  ---------------------------------------


    POTLOK:  cpu time    1.3113: real time    1.3118
    SETDIJ:  cpu time    2.0830: real time    2.0832
    TRIAL :  cpu time  516.9770: real time  517.3478
    CORREC:  cpu time    0.0020: real time    0.0020
    CHARGE:  cpu time    1.6325: real time    1.6332
    --------------------------------------------
      LOOP:  cpu time  522.0072: real time  522.3794

 eigenvalue-minimisations  :     0
 total energy-change (2. order) :-0.3858313E-01  (-0.3920636E-01)
 number of electron     242.0000005 magnetization      -1.9994904
 augmentation part       14.2765161 magnetization      -1.3238664

 DIPCOR: dipole corrections for dipol
 direction  3 min pos     1,
 dipolmoment          -0.000000     -0.000000     -0.000356 electrons x Angstroem
 Tr[quadrupol]     -6368.133637

 energy correction for charged system         0.000000 eV
 dipol+quadrupol energy correction            0.000000 eV
 added-field ion interaction          0.000000 eV  (added to PSCEN)


 Free energy of the ion-electron system (eV)
  ---------------------------------------------------
  alpha Z        PSCENC =        99.66608958
  Ewald energy   TEWEN  =     39320.83667579
  -Hartree energ DENC   =    -47822.62589688
  -exchange      EXHF   =       552.86336464
  -V(xc)+E(xc)   XCENC  =       615.55930307
  PAW double counting   =     26830.49062316   -26877.54513515
  entropy T*S    EENTRO =        -0.00073506
  eigenvalues    EBANDS =     -3191.30040867
  atomic energy  EATOM  =      9872.67749742
  ---------------------------------------------------
  free energy    TOTEN  =      -599.37856813 eV

  energy without entropy =     -599.37783307  energy(sigma->0) =     -599.37820060
  exchange ACFDT corr.  =        -0.00077628  see jH, gK, PRB 81, 115126


--------------------------------------------------------------------------------------------------------




--------------------------------------- Iteration      1(  15)  ---------------------------------------


    POTLOK:  cpu time    1.3092: real time    1.3097
    SETDIJ:  cpu time    2.1089: real time    2.1093
    TRIAL :  cpu time  517.1583: real time  517.4647
    CORREC:  cpu time    0.0020: real time    0.0020
    CHARGE:  cpu time    1.6336: real time    1.6341
    --------------------------------------------
      LOOP:  cpu time  522.2144: real time  522.5221

 eigenvalue-minimisations  :     0
 total energy-change (2. order) :-0.3838276E-01  (-0.3935987E-01)
 number of electron     242.0000005 magnetization      -1.9994943
 augmentation part       14.2787504 magnetization      -1.3150995

 DIPCOR: dipole corrections for dipol
 direction  3 min pos     1,
 dipolmoment          -0.000000     -0.000000     -0.000355 electrons x Angstroem
 Tr[quadrupol]     -6368.137476

 energy correction for charged system         0.000000 eV
 dipol+quadrupol energy correction            0.000000 eV
 added-field ion interaction          0.000000 eV  (added to PSCEN)


 Free energy of the ion-electron system (eV)
  ---------------------------------------------------
  alpha Z        PSCENC =        99.66608958
  Ewald energy   TEWEN  =     39320.83667579
  -Hartree energ DENC   =    -47822.92717162
  -exchange      EXHF   =       552.95674595
  -V(xc)+E(xc)   XCENC  =       615.59509653
  PAW double counting   =     26834.09741947   -26881.18904086
  entropy T*S    EENTRO =        -0.00085673
  eigenvalues    EBANDS =     -3191.12952809
  atomic energy  EATOM  =      9872.67749742
  ---------------------------------------------------
  free energy    TOTEN  =      -599.41695090 eV

  energy without entropy =     -599.41609417  energy(sigma->0) =     -599.41652253
  exchange ACFDT corr.  =        -0.00066878  see jH, gK, PRB 81, 115126


--------------------------------------------------------------------------------------------------------




--------------------------------------- Iteration      1(  16)  ---------------------------------------


    POTLOK:  cpu time    1.3125: real time    1.3125
    SETDIJ:  cpu time    2.0863: real time    2.0864
    TRIAL :  cpu time  518.0643: real time  518.1728
    CORREC:  cpu time    0.0019: real time    0.0019
    CHARGE:  cpu time    1.6353: real time    1.6357
    --------------------------------------------
      LOOP:  cpu time  523.1025: real time  523.2115

 eigenvalue-minimisations  :     0
 total energy-change (2. order) :-0.3852038E-01  (-0.3955979E-01)
 number of electron     242.0000005 magnetization      -1.9995673
 augmentation part       14.2807685 magnetization      -1.3070900

 DIPCOR: dipole corrections for dipol
 direction  3 min pos     1,
 dipolmoment          -0.000000     -0.000000     -0.000324 electrons x Angstroem
 Tr[quadrupol]     -6368.141099

 energy correction for charged system         0.000000 eV
 dipol+quadrupol energy correction            0.000000 eV
 added-field ion interaction          0.000000 eV  (added to PSCEN)


 Free energy of the ion-electron system (eV)
  ---------------------------------------------------
  alpha Z        PSCENC =        99.66608958
  Ewald energy   TEWEN  =     39320.83667579
  -Hartree energ DENC   =    -47823.20895235
  -exchange      EXHF   =       553.04955166
  -V(xc)+E(xc)   XCENC  =       615.62928485
  PAW double counting   =     26837.86969908   -26884.99458643
  entropy T*S    EENTRO =        -0.00106373
  eigenvalues    EBANDS =     -3190.97987415
  atomic energy  EATOM  =      9872.67749742
  ---------------------------------------------------
  free energy    TOTEN  =      -599.45547128 eV

  energy without entropy =     -599.45440755  energy(sigma->0) =     -599.45493941
  exchange ACFDT corr.  =        -0.00063281  see jH, gK, PRB 81, 115126


--------------------------------------------------------------------------------------------------------




--------------------------------------- Iteration      1(  17)  ---------------------------------------


    POTLOK:  cpu time    1.3081: real time    1.3081
    SETDIJ:  cpu time    2.1192: real time    2.1193
    TRIAL :  cpu time  517.5889: real time  517.6977
    CORREC:  cpu time    0.0021: real time    0.0021
    CHARGE:  cpu time    1.6340: real time    1.6344
    --------------------------------------------
      LOOP:  cpu time  522.6546: real time  522.7639

 eigenvalue-minimisations  :     0
 total energy-change (2. order) :-0.3856924E-01  (-0.3937060E-01)
 number of electron     242.0000005 magnetization      -1.9996703
 augmentation part       14.2826142 magnetization      -1.2999580

 DIPCOR: dipole corrections for dipol
 direction  3 min pos     1,
 dipolmoment          -0.000000     -0.000000     -0.000260 electrons x Angstroem
 Tr[quadrupol]     -6368.144550

 energy correction for charged system         0.000000 eV
 dipol+quadrupol energy correction            0.000000 eV
 added-field ion interaction          0.000000 eV  (added to PSCEN)


 Free energy of the ion-electron system (eV)
  ---------------------------------------------------
  alpha Z        PSCENC =        99.66608958
  Ewald energy   TEWEN  =     39320.83667579
  -Hartree energ DENC   =    -47823.47725765
  -exchange      EXHF   =       553.14236794
  -V(xc)+E(xc)   XCENC  =       615.66264521
  PAW double counting   =     26841.63594901   -26888.79251411
  entropy T*S    EENTRO =        -0.00136283
  eigenvalues    EBANDS =     -3190.84442999
  atomic energy  EATOM  =      9872.67749742
  ---------------------------------------------------
  free energy    TOTEN  =      -599.49404052 eV

  energy without entropy =     -599.49267769  energy(sigma->0) =     -599.49335910
  exchange ACFDT corr.  =        -0.00068479  see jH, gK, PRB 81, 115126


--------------------------------------------------------------------------------------------------------




--------------------------------------- Iteration      1(  18)  ---------------------------------------


    POTLOK:  cpu time    1.3100: real time    1.3100
    SETDIJ:  cpu time    2.1198: real time    2.1285
    TRIAL :  cpu time  516.9486: real time  517.1597
    CORREC:  cpu time    0.0019: real time    0.0019
    CHARGE:  cpu time    1.6346: real time    1.6350
    --------------------------------------------
      LOOP:  cpu time  522.0174: real time  522.2376

 eigenvalue-minimisations  :     0
 total energy-change (2. order) :-0.3814416E-01  (-0.3848146E-01)
 number of electron     242.0000005 magnetization      -1.9997682
 augmentation part       14.2843179 magnetization      -1.2936885

 DIPCOR: dipole corrections for dipol
 direction  3 min pos     1,
 dipolmoment          -0.000000     -0.000000     -0.000172 electrons x Angstroem
 Tr[quadrupol]     -6368.147751

 energy correction for charged system         0.000000 eV
 dipol+quadrupol energy correction            0.000000 eV
 added-field ion interaction          0.000000 eV  (added to PSCEN)


 Free energy of the ion-electron system (eV)
  ---------------------------------------------------
  alpha Z        PSCENC =        99.66608958
  Ewald energy   TEWEN  =     39320.83667579
  -Hartree energ DENC   =    -47823.72830076
  -exchange      EXHF   =       553.23464238
  -V(xc)+E(xc)   XCENC  =       615.69537529
  PAW double counting   =     26845.27550371   -26892.46365886
  entropy T*S    EENTRO =        -0.00174094
  eigenvalues    EBANDS =     -3190.72464640
  atomic energy  EATOM  =      9872.67749742
  ---------------------------------------------------
  free energy    TOTEN  =      -599.53218467 eV

  energy without entropy =     -599.53044373  energy(sigma->0) =     -599.53131420
  exchange ACFDT corr.  =        -0.00081825  see jH, gK, PRB 81, 115126


--------------------------------------------------------------------------------------------------------




--------------------------------------- Iteration      1(  19)  ---------------------------------------


    POTLOK:  cpu time    1.3079: real time    1.3080
    SETDIJ:  cpu time    2.0870: real time    2.0871
    TRIAL :  cpu time  517.1329: real time  517.3881
    CORREC:  cpu time    0.0021: real time    0.0021
    CHARGE:  cpu time    1.6342: real time    1.6346
    --------------------------------------------
      LOOP:  cpu time  522.1664: real time  522.4222

 eigenvalue-minimisations  :     0
 total energy-change (2. order) :-0.3699986E-01  (-0.3674510E-01)
 number of electron     242.0000005 magnetization      -1.9998453
 augmentation part       14.2859027 magnetization      -1.2882112

 DIPCOR: dipole corrections for dipol
 direction  3 min pos     1,
 dipolmoment          -0.000000     -0.000000     -0.000070 electrons x Angstroem
 Tr[quadrupol]     -6368.150667

 energy correction for charged system         0.000000 eV
 dipol+quadrupol energy correction            0.000000 eV
 added-field ion interaction          0.000000 eV  (added to PSCEN)


 Free energy of the ion-electron system (eV)
  ---------------------------------------------------
  alpha Z        PSCENC =        99.66608958
  Ewald energy   TEWEN  =     39320.83667579
  -Hartree energ DENC   =    -47823.95785333
  -exchange      EXHF   =       553.32512506
  -V(xc)+E(xc)   XCENC  =       615.72726917
  PAW double counting   =     26848.71447065   -26895.93473064
  entropy T*S    EENTRO =        -0.00216484
  eigenvalues    EBANDS =     -3190.62198729
  atomic energy  EATOM  =      9872.67749742
  ---------------------------------------------------
  free energy    TOTEN  =      -599.56918453 eV

  energy without entropy =     -599.56701969  energy(sigma->0) =     -599.56810211
  exchange ACFDT corr.  =        -0.00100802  see jH, gK, PRB 81, 115126


--------------------------------------------------------------------------------------------------------




--------------------------------------- Iteration      1(  20)  ---------------------------------------


    POTLOK:  cpu time    1.3065: real time    1.3067
    SETDIJ:  cpu time    2.0889: real time    2.0891
    TRIAL :  cpu time  517.0818: real time  517.3611
    CORREC:  cpu time    0.0021: real time    0.0021
    CHARGE:  cpu time    1.6328: real time    1.6332
    --------------------------------------------
      LOOP:  cpu time  522.1143: real time  522.3944

 eigenvalue-minimisations  :     0
 total energy-change (2. order) :-0.3505366E-01  (-0.3420432E-01)
 number of electron     242.0000005 magnetization      -1.9999005
 augmentation part       14.2874133 magnetization      -1.2834467

 DIPCOR: dipole corrections for dipol
 direction  3 min pos     1,
 dipolmoment           0.000000      0.000000      0.000046 electrons x Angstroem
 Tr[quadrupol]     -6368.153359

 energy correction for charged system         0.000000 eV
 dipol+quadrupol energy correction            0.000000 eV
 added-field ion interaction          0.000000 eV  (added to PSCEN)


 Free energy of the ion-electron system (eV)
  ---------------------------------------------------
  alpha Z        PSCENC =        99.66608958
  Ewald energy   TEWEN  =     39320.83667579
  -Hartree energ DENC   =    -47824.16824626
  -exchange      EXHF   =       553.41244112
  -V(xc)+E(xc)   XCENC  =       615.75806784
  PAW double counting   =     26851.91246764   -26899.16541606
  entropy T*S    EENTRO =        -0.00258903
  eigenvalues    EBANDS =     -3190.53165042
  atomic energy  EATOM  =      9872.67749742
  ---------------------------------------------------
  free energy    TOTEN  =      -599.60423819 eV

  energy without entropy =     -599.60164916  energy(sigma->0) =     -599.60294368
  exchange ACFDT corr.  =        -0.00122211  see jH, gK, PRB 81, 115126


--------------------------------------------------------------------------------------------------------




--------------------------------------- Iteration      1(  21)  ---------------------------------------


    POTLOK:  cpu time    1.3067: real time    1.3069
    SETDIJ:  cpu time    2.0848: real time    2.0849
    TRIAL :  cpu time  516.9333: real time  517.1458
    CORREC:  cpu time    0.0021: real time    0.0021
    CHARGE:  cpu time    1.6331: real time    1.6336
    --------------------------------------------
[...]
  E(xc)    -710.90590  -710.46315  -724.66641    -0.24577    -0.01656    -0.03181
  Local  -97668.72042-97606.27724 99861.29699    -7.63636   -50.57374  -129.06587
  n-local  -167.81682  -170.62107  -164.42814    -0.71272     0.16174     0.20910
  augment    54.05709    51.36543    59.78548     0.84575     0.09684     0.24452
  Kinetic  3618.32918  3602.53280  4129.54477     9.26340     0.11396     0.10827
  Fock     -333.42429  -330.81000  -314.27895    -1.19582    -0.07963    -0.17146
  -------------------------------------------------------------------------------------
  Total     -36.38323   -42.42171    -0.41412     0.80779     0.00888     0.01960
  in kB     -18.34894   -21.39429    -0.20885     0.40739     0.00448     0.00988
  external pressure =      -13.32 kB  Pullay stress =        0.00 kB


 VOLUME and BASIS-vectors are now :
 -----------------------------------------------------------------------------
  energy-cutoff  :      500.00
  volume of cell :     3176.88
      direct lattice vectors                 reciprocal lattice vectors
    12.866201761  0.106781608  0.008415763     0.077728529 -0.000660585 -0.000048092
     0.104273173 12.269173484  0.003411614    -0.000676476  0.081510838 -0.000021895
     0.012499301  0.005509994 20.126394813    -0.000032387 -0.000013541  0.049686021

  length of vectors
    12.866647617 12.269617049 20.126399449     0.077731351  0.081513648  0.049686034


 FORCES acting on ions:
    Electron-Ion                     Ewald-Force                    Non-Local-Force
 -----------------------------------------------------------------------------------------------
   0.957E+00 0.733E+01 -.778E+00   -.121E+01 -.735E+01 0.781E+00   0.326E+00 0.290E-01 -.750E-02
   0.472E+01 0.563E+01 -.481E+00   -.473E+01 -.580E+01 0.482E+00   0.952E-01 0.133E+00 -.239E-02
   -.195E+01 0.138E+01 -.401E+00   0.182E+01 -.137E+01 0.398E+00   -.499E-02 0.139E-01 0.229E-02
   0.984E+00 0.134E+02 -.375E+00   -.113E+01 -.138E+02 0.371E+00   0.718E-01 0.413E+00 0.108E-02
   0.125E+02 0.141E+02 -.847E-01   -.130E+02 -.143E+02 0.873E-01   0.420E+00 0.250E+00 -.302E-02
   0.759E+01 0.206E+01 -.339E+00   -.775E+01 -.245E+01 0.337E+00   0.251E+00 0.340E+00 -.347E-03
   0.337E+01 0.736E+01 -.574E+00   -.380E+01 -.739E+01 0.577E+00   0.369E+00 0.540E-01 -.748E-02
   0.337E+02 0.151E+02 0.112E+01   -.369E+02 -.155E+02 -.112E+01   0.325E+01 0.202E+00 -.320E-02
   0.265E+02 0.127E+02 0.141E+01   -.281E+02 -.153E+02 -.140E+01   0.192E+01 0.269E+01 -.489E-02
   0.360E+01 -.885E+01 0.138E+00   -.360E+01 0.898E+01 -.144E+00   0.149E+00 -.256E+00 0.622E-02
   0.127E+02 0.565E+01 0.381E+00   -.134E+02 -.600E+01 -.375E+00   0.417E+00 0.327E+00 -.296E-02
   -.345E+01 -.404E+02 0.337E+00   0.218E+01 0.433E+02 -.323E+00   0.126E+01 -.317E+01 -.210E-01
   -.215E+01 -.241E+01 0.859E-01   0.221E+01 0.271E+01 -.837E-01   0.403E-01 -.231E+00 -.618E-03
   -.157E+01 -.989E+01 0.127E+00   0.151E+01 0.104E+02 -.127E+00   0.996E-01 -.346E+00 0.837E-03
   0.146E+02 0.100E+02 0.150E-01   -.169E+02 -.964E+01 -.191E-01   0.240E+01 -.175E+00 0.558E-02
   0.253E+01 0.308E+01 -.326E+00   -.278E+01 -.342E+01 0.328E+00   0.283E+00 0.263E+00 -.191E-02
   0.539E+00 0.259E+01 0.113E-01   -.482E+00 -.252E+01 -.907E-02   -.103E-02 -.113E-01 -.183E-02
   -.660E+01 -.450E+01 -.612E-01   0.633E+01 0.445E+01 0.588E-01   0.154E+00 -.315E-01 0.596E-03
   0.122E+00 -.327E+00 -.644E+00   -.244E+00 0.509E+00 0.642E+00   0.109E+00 -.116E+00 -.615E-03
   -.387E+01 -.217E+00 0.544E-02   0.388E+01 0.460E+00 -.949E-02   0.640E-01 -.215E+00 0.308E-02
   -.761E+01 0.132E+02 0.385E-02   0.776E+01 -.138E+02 -.278E-02   -.656E-01 0.395E+00 -.567E-03
   0.247E+01 0.770E+01 -.318E+00   -.208E+01 -.761E+01 0.319E+00   -.443E+00 0.591E-02 -.339E-02
   -.113E+01 0.598E+01 0.190E+00   0.105E+01 -.603E+01 -.186E+00   -.340E-02 -.252E-01 -.315E-02
   -.896E+01 0.125E+02 0.810E+00   0.947E+01 -.123E+02 -.819E+00   -.282E+00 -.146E+00 0.138E-01
   -.227E+02 0.362E+02 0.849E+00   0.247E+02 -.387E+02 -.837E+00   -.228E+01 0.289E+01 -.120E-01
   -.266E+02 0.465E+02 -.255E+00   0.283E+02 -.493E+02 0.271E+00   -.165E+01 0.276E+01 -.144E-01
   0.329E+02 -.208E+02 -.532E+00   -.349E+02 0.238E+02 0.532E+00   0.220E+01 -.294E+01 -.589E-02
   -.725E+01 -.118E+01 -.520E+00   0.761E+01 0.134E+01 0.517E+00   -.309E+00 -.149E+00 0.620E-05
   -.172E+02 -.915E+01 -.451E+00   0.178E+02 0.113E+02 0.449E+00   -.922E+00 -.217E+01 -.242E-03
   0.795E+01 -.494E+01 -.115E+00   -.830E+01 0.549E+01 0.117E+00   0.148E+00 -.550E+00 -.155E-02
   0.328E+01 0.360E+00 0.366E+00   -.328E+01 -.397E+00 -.363E+00   0.455E-01 -.152E-01 0.135E-02
   0.156E+00 0.755E+00 -.107E+00   -.708E-01 -.652E+00 0.107E+00   0.208E-01 -.219E-03 -.113E-02
   -.147E+00 -.327E+01 0.356E+00   0.237E+00 0.359E+01 -.355E+00   -.121E+00 -.393E+00 0.366E-03
   0.376E+00 0.632E+00 -.177E+00   -.526E+00 -.683E+00 0.176E+00   0.620E-01 0.852E-01 0.336E-02
   0.425E+01 0.549E+01 -.737E+00   -.431E+01 -.573E+01 0.740E+00   0.107E+00 0.120E+00 -.418E-02
   -.589E+01 0.107E+02 -.169E+01   0.546E+01 -.109E+02 0.170E+01   0.241E+00 0.115E+00 -.193E-01
   -.247E+00 0.567E+01 -.824E+00   0.848E-02 -.571E+01 0.820E+00   0.141E+00 -.794E-01 0.189E-02
   0.696E+00 0.595E+01 -.709E+00   -.773E+00 -.617E+01 0.709E+00   -.334E-02 0.304E+00 0.233E-03
   -.428E+01 0.845E+01 -.895E+00   0.473E+01 -.878E+01 0.888E+00   -.105E+00 0.253E+00 0.705E-02
   -.123E+02 0.394E+02 -.180E+01   0.134E+02 -.425E+02 0.178E+01   -.147E+01 0.353E+01 0.118E-01
   -.770E+01 0.400E+01 -.642E+00   0.767E+01 -.415E+01 0.651E+00   -.147E+00 0.742E-01 -.924E-02
   -.133E+02 -.825E+01 -.441E+00   0.138E+02 0.873E+01 0.438E+00   -.414E+00 -.317E+00 0.458E-02
   -.234E+02 -.163E+02 -.806E+00   0.268E+02 0.166E+02 0.817E+00   -.346E+01 -.393E+00 -.115E-01
   -.238E+02 -.266E+02 -.140E+01   0.258E+02 0.292E+02 0.139E+01   -.198E+01 -.272E+01 0.657E-02
   -.937E+01 -.481E+01 0.201E+00   0.959E+01 0.508E+01 -.202E+00   -.280E+00 -.299E+00 0.354E-02
   -.744E+00 -.626E+01 0.421E+00   0.123E+01 0.627E+01 -.419E+00   -.438E+00 -.549E-01 -.211E-03
   0.217E+01 -.113E+02 0.421E+00   -.198E+01 0.118E+02 -.423E+00   -.332E-01 -.495E+00 0.617E-02
   -.982E+01 -.123E+02 0.209E+00   0.104E+02 0.128E+02 -.210E+00   -.564E+00 -.466E+00 0.356E-02
   -.411E+01 -.476E+01 0.516E+00   0.409E+01 0.495E+01 -.517E+00   -.181E-01 -.140E+00 0.506E-02
   -.350E+02 -.446E+02 0.254E+01   0.540E+02 0.444E+02 -.262E+01   -.188E+02 0.518E+00 0.839E-01
   -.291E+02 -.540E+01 0.293E+01   0.387E+02 0.219E+02 -.311E+01   -.929E+01 -.163E+02 0.176E+00
   -.126E+02 0.162E+02 0.146E+01   0.554E+01 -.637E+01 -.157E+01   0.704E+01 -.956E+01 0.872E-01
   -.547E+02 0.897E+02 -.537E+00   0.690E+02 -.114E+03 0.566E+00   -.134E+02 0.231E+02 -.299E-01
   0.572E+02 0.194E+02 -.839E+00   -.669E+02 -.361E+02 0.850E+00   0.918E+01 0.165E+02 -.982E-02
   0.263E+02 0.156E+02 -.460E+01   -.469E+02 -.156E+02 0.481E+01   0.204E+02 -.387E+00 -.211E+00
   0.250E+02 -.121E+03 0.114E+02   -.274E+02 0.116E+03 -.112E+02   0.106E+01 0.505E+01 -.167E+00
   0.784E+02 -.983E+02 -.377E+01   -.739E+02 0.966E+02 0.376E+01   -.391E+01 0.290E+01 0.484E-01
 -----------------------------------------------------------------------------------------------
   0.835E+01 -.222E+02 0.745E-01   0.199E-12 0.171E-12 0.444E-14   -.797E+01 0.211E+02 -.778E-01
 
 
 POSITION                                       TOTAL-FORCE (eV/Angst)
 -----------------------------------------------------------------------------------
      2.95782     12.28210     10.06991         0.089206      0.021062     -0.004447
      0.69202      1.24386     10.06525         0.095131     -0.031917     -0.000890
      1.42101      0.01791     10.06511        -0.133691      0.013790     -0.000231
      3.55704      1.24822     10.06506        -0.076189      0.007318     -0.003467
      2.83261      2.47146     10.06318        -0.028609      0.030872     -0.000581
      0.70032      3.69982     10.06501         0.103974     -0.032424     -0.002025
      1.40377      2.47230     10.06522        -0.039434      0.021347     -0.005371
      3.54716      3.68752     10.05829         0.284060     -0.103681      0.003892
      2.84898      4.92590     10.05781         0.405254      0.250467      0.002408
      0.76553      6.16096     10.06411         0.162567     -0.149572      0.000565
      1.44140      4.92054     10.06219        -0.199806      0.003816      0.002973
      2.97632      7.32251     10.06215         0.062824     -0.420305     -0.007952
      0.82641      8.60568     10.06522         0.108151      0.065375      0.001588
      1.54041      7.36948     10.06392         0.040280      0.162379      0.000608
      3.74412      8.57422     10.06624         0.185225      0.192440      0.001781
      2.98526      9.80447     10.06793         0.051213     -0.066606     -0.000529
      0.81865     11.05780     10.06656         0.061580      0.060691      0.000336
      1.54752      9.82542     10.06652        -0.114609     -0.084564     -0.001788
      3.68506     11.04921     10.07000        -0.006202      0.057499     -0.002859
      7.12801      0.08504     10.06732         0.061700      0.012629     -0.000797
      4.98123      1.29052     10.06443         0.070643     -0.175738      0.000456
      5.70767      0.05297     10.06680        -0.066070      0.107647     -0.002348
      7.82042      1.35171     10.06719        -0.080007     -0.068991      0.000910
      7.09653      2.59185     10.06422         0.208363     -0.024372      0.005307
      5.65746      2.56898     10.06094        -0.393328      0.529437     -0.000398
      7.82030      3.85500     10.06814        -0.021833      0.135323      0.001049
      7.26730      9.83295     10.07292         0.323145     -0.145022     -0.006205
      5.11377     11.05660     10.07071         0.034550      0.001390     -0.003340
      5.80024      9.78128     10.07084        -0.373877     -0.186814     -0.001930
      7.94468     11.11156     10.07198        -0.191549     -0.025331      0.000430
     11.41353      0.13314     10.06998         0.047864     -0.050024      0.004085
      9.25584      1.37565     10.07004         0.107236      0.100625     -0.000455
      9.97768      0.13932     10.06902        -0.038532     -0.101194      0.001443
     12.12545      1.36297     10.07259        -0.088795      0.034885      0.001708
     11.40829      2.59841     10.07455         0.049217     -0.109666     -0.001489
      9.26805      3.87173     10.07576        -0.176637     -0.126826     -0.007549
      9.97221      2.62150     10.07384        -0.088511     -0.128862     -0.001517
     12.13820      3.82072     10.07536        -0.083444      0.107749     -0.000646
     11.45073      5.06471     10.07693         0.348045     -0.069713      0.000743
     10.01710      5.11178     10.07925        -0.424391      0.697670     -0.003011
     12.21415      6.27439     10.07578        -0.189047     -0.064197     -0.001105
     11.52548      7.51096     10.07597         0.075717      0.134836      0.001653
      9.38767      8.73206     10.07589        -0.215070     -0.154253     -0.001121
     10.11639      7.50287     10.07878        -0.067604     -0.312384      0.000909
     12.26171      8.72742     10.07369        -0.075772     -0.041015      0.001855
     11.54183      9.94824     10.07281         0.028834     -0.040597      0.002562
      9.37729     11.16650     10.07178         0.155354      0.009210      0.004374
     10.10867      9.94851     10.07305        -0.005167     -0.007013      0.002399
     12.25020     11.17715     10.07300        -0.050559      0.042412      0.004199
      3.61428      6.08973     10.05597        -1.378508      0.388033      0.009155
      4.92752      3.74469     10.05529        -0.421526     -1.170551      0.013357
      7.14073      5.00845     10.06333         0.583375     -0.560549     -0.013852
      5.12286      8.57813     10.06878        -0.240470      0.765018     -0.003126
      8.00266      8.66318     10.07448         0.288117      1.231329      0.000434
      9.38381      6.33481     10.08305         1.625036     -0.497330     -0.018399
      5.44691      5.61013     10.04765        -0.826698     -0.736122     -0.003802
      7.47585      6.77205     10.07455         0.439274      0.500385      0.030054
 -----------------------------------------------------------------------------------
    total drift:                                0.005310     -0.000469      0.000328


--------------------------------------------------------------------------------------------------------



  FREE ENERGIE OF THE ION-ELECTRON SYSTEM (eV)
  ---------------------------------------------------
  free  energy   TOTEN  =      -599.87847917 eV

  energy  without entropy=     -599.87790642  energy(sigma->0) =     -599.87819279
 


--------------------------------------------------------------------------------------------------------


    POTLOK:  cpu time    3.3762: real time    3.3764


--------------------------------------------------------------------------------------------------------


 stress matrix after NEB project (eV)
    -36.38323      0.80778      0.01960
      0.80779    -42.42171      0.01074
      0.01382      0.00888     -0.41412
  FORCES: max atom, RMS     1.699534    0.495178
  FORCE total and by dimension    3.738508    1.625036
  Stress total and by dimension   55.900072   42.421708
 writing wavefunctions
     LOOP+:  cpu time71599.4501: real time71615.6775
    4ORBIT:  cpu time    0.0000: real time    0.0000
 


 total charge     
 
# of ion       s       p       d       tot
------------------------------------------
    1        0.863   1.778   0.000   2.641
    2        0.867   1.774   0.000   2.640
    3        0.867   1.776   0.000   2.643
    4        0.870   1.774   0.000   2.644
    5        0.870   1.790   0.000   2.660
    6        0.866   1.785   0.000   2.651
    7        0.869   1.784   0.000   2.653
    8        0.866   1.769   0.000   2.635
    9        0.864   1.764   0.000   2.627
   10        0.870   1.781   0.000   2.651
   11        0.873   1.793   0.000   2.667
   12        0.852   1.706   0.000   2.558
   13        0.866   1.778   0.000   2.644
   14        0.862   1.765   0.000   2.628
   15        0.850   1.706   0.000   2.555
   16        0.863   1.757   0.000   2.619
   17        0.866   1.768   0.000   2.634
   18        0.864   1.770   0.000   2.635
   19        0.869   1.756   0.000   2.625
   20        0.860   1.770   0.000   2.631
   21        0.862   1.762   0.000   2.624
   22        0.862   1.758   0.000   2.620
   23        0.861   1.740   0.000   2.601
   24        0.856   1.761   0.000   2.617
   25        0.855   1.707   0.000   2.562
   26        0.861   1.713   0.000   2.574
   27        0.851   1.704   0.000   2.555
   28        0.861   1.749   0.000   2.610
   29        0.849   1.702   0.000   2.552
   30        0.861   1.754   0.000   2.615
   31        0.865   1.773   0.000   2.638
   32        0.861   1.760   0.000   2.621
   33        0.863   1.763   0.000   2.626
   34        0.867   1.769   0.000   2.636
   35        0.865   1.768   0.000   2.633
   36        0.855   1.761   0.000   2.616
   37        0.862   1.747   0.000   2.609
   38        0.868   1.775   0.000   2.643
   39        0.866   1.776   0.000   2.642
   40        0.856   1.716   0.000   2.572
   41        0.870   1.783   0.000   2.652
   42        0.873   1.800   0.000   2.673
   43        0.863   1.755   0.000   2.618
   44        0.865   1.768   0.000   2.633
   45        0.867   1.782   0.000   2.649
   46        0.868   1.783   0.000   2.650
   47        0.868   1.766   0.000   2.634
   48        0.869   1.784   0.000   2.653
   49        0.867   1.771   0.000   2.638
   50        1.229   2.673   0.000   3.902
   51        1.229   2.661   0.000   3.890
   52        1.248   2.646   0.000   3.894
   53        1.239   2.594   0.000   3.833
   54        1.229   2.675   0.000   3.904
   55        1.236   2.669   0.000   3.905
   56        0.441   0.581   6.346   7.368
   57        0.446   0.584   6.163   7.193
--------------------------------------------------
tot         50.609 103.379  12.509 166.497
 


 magnetization (x)
 
# of ion       s       p       d       tot
------------------------------------------
    1        0.001   0.008   0.000   0.009
    2        0.000   0.002   0.000   0.003
    3       -0.000  -0.005   0.000  -0.006
    4       -0.000  -0.002   0.000  -0.002
    5       -0.000  -0.000   0.000  -0.000
    6        0.000   0.005   0.000   0.005
    7       -0.001  -0.009   0.000  -0.009
    8       -0.001  -0.015   0.000  -0.016
    9        0.000  -0.006   0.000  -0.005
   10       -0.001  -0.020   0.000  -0.021
   11        0.000   0.002   0.000   0.002
   12        0.000   0.005   0.000   0.005
   13        0.001   0.015   0.000   0.016
   14       -0.000  -0.002   0.000  -0.003
   15       -0.001  -0.015   0.000  -0.017
   16        0.000   0.009   0.000   0.009
   17        0.000   0.001   0.000   0.002
   18       -0.001  -0.011   0.000  -0.012
   19       -0.000   0.002   0.000   0.002
   20       -0.000  -0.002   0.000  -0.002
   21       -0.000  -0.003   0.000  -0.004
   22        0.001   0.012   0.000   0.013
   23        0.000   0.000   0.000   0.000
   24       -0.001  -0.008   0.000  -0.008
   25        0.001   0.010   0.000   0.011
   26       -0.001   0.013   0.000   0.012
   27       -0.000   0.015   0.000   0.015
   28       -0.001  -0.008   0.000  -0.009
   29        0.001   0.012   0.000   0.013
   30       -0.001  -0.003   0.000  -0.004
   31        0.000   0.005   0.000   0.005
   32        0.000   0.008   0.000   0.008
   33        0.000   0.005   0.000   0.005
   34       -0.000  -0.003   0.000  -0.003
   35       -0.000  -0.001   0.000  -0.001
   36       -0.001  -0.006   0.000  -0.007
   37       -0.000  -0.002   0.000  -0.003
   38        0.000   0.006   0.000   0.006
   39       -0.001  -0.007   0.000  -0.008
   40        0.001   0.009   0.000   0.009
   41       -0.000  -0.004   0.000  -0.004
   42       -0.001  -0.005   0.000  -0.006
   43       -0.002  -0.004   0.000  -0.006
   44        0.001   0.017   0.000   0.018
   45        0.000   0.009   0.000   0.010
   46       -0.000  -0.003   0.000  -0.003
   47        0.001   0.013   0.000   0.014
   48        0.000   0.001   0.000   0.001
   49       -0.000  -0.004   0.000  -0.004
   50       -0.006  -0.089   0.000  -0.095
   51       -0.006  -0.048   0.000  -0.054
   52       -0.001   0.007   0.000   0.006
   53       -0.010  -0.002   0.000  -0.013
   54        0.006   0.079   0.000   0.085
   55       -0.014  -0.074   0.000  -0.088
   56        0.010  -0.014   1.557   1.553
   57       -0.087  -0.056  -3.105  -3.248
--------------------------------------------------
tot         -0.112  -0.162  -1.548  -1.822
 

 total amount of memory used by VASP MPI-rank0   171849. kBytes
=======================================================================

   base      :      30000. kBytes
   nonl-proj :       4553. kBytes
   fftplans  :      13453. kBytes
   grid      :      31949. kBytes
   one-center:         62. kBytes
   HF        :         23. kBytes
   nonlr-proj:      15228. kBytes
   wavefun   :      76581. kBytes
 
  
  
 General timing and accounting informations for this job:
 ========================================================
  
                  Total CPU time used (sec):    71682.500
                            User time (sec):    71591.303
                          System time (sec):       91.198
                         Elapsed time (sec):    71702.495
  
                   Maximum memory used (kb):      418588.
                   Average memory used (kb):           0.
  
                          Minor page faults:       752978
                          Major page faults:            4
                 Voluntary context switches:         1406
