 vasp.5.4.4.18Apr17-6-g9f103f2a35 (build Feb 25 2019 10:51:38) complex          
  
 executed on             LinuxIFC date 2021.03.06  09:28:20
 running on   80 total cores
 distrk:  each k-point on   40 cores,    2 groups
 distr:  one band on NCORES_PER_BAND=  40 cores,    1 groups


--------------------------------------------------------------------------------------------------------


 INCAR:
 POTCAR:    PAW_PBE C 08Apr2002                   
 POTCAR:    PAW_PBE N 08Apr2002                   
 POTCAR:    PAW_PBE Fe 06Sep2000                  
 POTCAR:    PAW_PBE Cu 22Jun2005                  

 ----------------------------------------------------------------------------- 
|                                                                             |
|           W    W    AA    RRRRR   N    N  II  N    N   GGGG   !!!           |
|           W    W   A  A   R    R  NN   N  II  NN   N  G    G  !!!           |
|           W    W  A    A  R    R  N N  N  II  N N  N  G       !!!           |
|           W WW W  AAAAAA  RRRRR   N  N N  II  N  N N  G  GGG   !            |
|           WW  WW  A    A  R   R   N   NN  II  N   NN  G    G                |
|           W    W  A    A  R    R  N    N  II  N    N   GGGG   !!!           |
|                                                                             |
|      For optimal performance we recommend to set                            |
|        NCORE= 4 - approx SQRT( number of cores)                             |
|      NCORE specifies how many cores store one orbital (NPAR=cpu/NCORE).     |
|      This setting can  greatly improve the performance of VASP for DFT.     |
|      The default,   NCORE=1            might be grossly inefficient         |
|      on modern multi-core architectures or massively parallel machines.     |
|      Do your own testing !!!!                                               |
|      Unfortunately you need to use the default for GW and RPA calculations. |
|      (for HF NCORE is supported but not extensively tested yet)             |
|                                                                             |
 ----------------------------------------------------------------------------- 


 ----------------------------------------------------------------------------- 
|                                                                             |
|           W    W    AA    RRRRR   N    N  II  N    N   GGGG   !!!           |
|           W    W   A  A   R    R  NN   N  II  NN   N  G    G  !!!           |
|           W    W  A    A  R    R  N N  N  II  N N  N  G       !!!           |
|           W WW W  AAAAAA  RRRRR   N  N N  II  N  N N  G  GGG   !            |
|           WW  WW  A    A  R   R   N   NN  II  N   NN  G    G                |
|           W    W  A    A  R    R  N    N  II  N    N   GGGG   !!!           |
|                                                                             |
|      You have enabled k-point parallelism (KPAR>1).                         |
|      This developmental code was originally  written by Paul Kent at ORNL,  |
|      and carefully double checked in Vienna.                                |
|      GW as well as linear response parallelism added by Martijn Marsman     |
|      and Georg Kresse.                                                      |
|      Carefully verify results versus KPAR=1.                                |
|      Report problems to Paul Kent and Vienna.                               |
|                                                                             |
 ----------------------------------------------------------------------------- 

 POTCAR:    PAW_PBE C 08Apr2002                   
   VRHFIN =C: s2p2                                                              
   LEXCH  = PE                                                                  
   EATOM  =   147.1560 eV,   10.8157 Ry                                         
                                                                                
   TITEL  = PAW_PBE C 08Apr2002                                                 
   LULTRA =        F    use ultrasoft PP ?                                      
   IUNSCR =        1    unscreen: 0-lin 1-nonlin 2-no                           
   RPACOR =    1.200    partial core radius                                     
   POMASS =   12.011; ZVAL   =    4.000    mass and valenz                      
   RCORE  =    1.500    outmost cutoff radius                                   
   RWIGS  =    1.630; RWIGS  =    0.863    wigner-seitz radius (au A)           
   ENMAX  =  400.000; ENMIN  =  300.000 eV                                      
   ICORE  =        2    local potential                                         
   LCOR   =        T    correct aug charges                                     
   LPAW   =        T    paw PP                                                  
   EAUG   =  644.873                                                            
   DEXC   =    0.000                                                            
   RMAX   =    1.529    core radius for proj-oper                               
   RAUG   =    1.300    factor for augmentation sphere                          
   RDEP   =    1.501    radius for radial grids                                 
   RDEPT  =    1.300    core radius for aug-charge                              
                                                                                
   Atomic configuration                                                         
    4 entries                                                                   
     n  l   j            E        occ.                                          
     1  0  0.50      -273.3789   2.0000                                         
     2  0  0.50       -13.7508   2.0000                                         
     2  1  0.50        -5.2854   2.0000                                         
     3  2  1.50        -5.4423   0.0000                                         
   Description                                                                  
     l       E           TYP  RCUT    TYP  RCUT                                 
     0    -13.7508458     23  1.200                                             
     0     -8.2022199     23  1.200                                             
     1     -5.2854383     23  1.500                                             
     1     34.0145650     23  1.500                                             
     2     -5.4423304      7  1.500                                             
  local pseudopotential read in
  partial core-charges read in
  partial kinetic energy density read in
  atomic valenz-charges read in
  non local Contribution for L=           0  read in
    real space projection operators read in
  non local Contribution for L=           0  read in
    real space projection operators read in
  non local Contribution for L=           1  read in
    real space projection operators read in
  non local Contribution for L=           1  read in
    real space projection operators read in
    PAW grid and wavefunctions read in
 
   number of l-projection  operators is LMAX  =           4
   number of lm-projection operators is LMMAX =           8
 
 POTCAR:    PAW_PBE N 08Apr2002                   
   VRHFIN =N: s2p3                                                              
   LEXCH  = PE                                                                  
   EATOM  =   264.5486 eV,   19.4438 Ry                                         
                                                                                
   TITEL  = PAW_PBE N 08Apr2002                                                 
   LULTRA =        F    use ultrasoft PP ?                                      
   IUNSCR =        1    unscreen: 0-lin 1-nonlin 2-no                           
   RPACOR =    1.200    partial core radius                                     
   POMASS =   14.001; ZVAL   =    5.000    mass and valenz                      
   RCORE  =    1.500    outmost cutoff radius                                   
   RWIGS  =    1.400; RWIGS  =    0.741    wigner-seitz radius (au A)           
   ENMAX  =  400.000; ENMIN  =  300.000 eV                                      
   ICORE  =        2    local potential                                         
   LCOR   =        T    correct aug charges                                     
   LPAW   =        T    paw PP                                                  
   EAUG   =  627.112                                                            
   DEXC   =    0.000                                                            
   RMAX   =    1.529    core radius for proj-oper                               
   RAUG   =    1.300    factor for augmentation sphere                          
   RDEP   =    1.514    radius for radial grids                                 
   RDEPT  =    1.338    core radius for aug-charge                              
                                                                                
   Atomic configuration                                                         
    4 entries                                                                   
     n  l   j            E        occ.                                          
     1  0  0.50      -384.7179   2.0000                                         
     2  0  0.50       -18.5828   2.0000                                         
     2  1  0.50        -7.0898   3.0000                                         
     3  2  1.50        -6.8029   0.0000                                         
   Description                                                                  
     l       E           TYP  RCUT    TYP  RCUT                                 
     0    -18.5828119     23  1.200                                             
     0    -13.5018863     23  1.200                                             
     1     -7.0897853     23  1.500                                             
     1      9.5240782     23  1.500                                             
     2     -6.8029130      7  1.500                                             
  local pseudopotential read in
  partial core-charges read in
  partial kinetic energy density read in
  atomic valenz-charges read in
  non local Contribution for L=           0  read in
    real space projection operators read in
  non local Contribution for L=           0  read in
    real space projection operators read in
  non local Contribution for L=           1  read in
    real space projection operators read in
  non local Contribution for L=           1  read in
    real space projection operators read in
    PAW grid and wavefunctions read in
 
   number of l-projection  operators is LMAX  =           4
   number of lm-projection operators is LMMAX =           8
 
 POTCAR:    PAW_PBE Fe 06Sep2000                  
   VRHFIN =Fe:  d7 s1                                                           
   LEXCH  = PE                                                                  
   EATOM  =   594.3153 eV,   43.6809 Ry                                         
                                                                                
   TITEL  = PAW_PBE Fe 06Sep2000                                                
   LULTRA =        F    use ultrasoft PP ?                                      
   IUNSCR =        1    unscreen: 0-lin 1-nonlin 2-no                           
   RPACOR =    2.000    partial core radius                                     
   POMASS =   55.847; ZVAL   =    8.000    mass and valenz                      
   RCORE  =    2.300    outmost cutoff radius                                   
   RWIGS  =    2.460; RWIGS  =    1.302    wigner-seitz radius (au A)           
   ENMAX  =  267.882; ENMIN  =  200.911 eV                                      
   RCLOC  =    1.701    cutoff for local pot                                    
   LCOR   =        T    correct aug charges                                     
   LPAW   =        T    paw PP                                                  
   EAUG   =  511.368                                                            
   DEXC   =    0.000                                                            
   RMAX   =    2.356    core radius for proj-oper                               
   RAUG   =    1.300    factor for augmentation sphere                          
   RDEP   =    2.442    radius for radial grids                                 
   RDEPT  =    1.890    core radius for aug-charge                              
                                                                                
   Atomic configuration                                                         
    9 entries                                                                   
     n  l   j            E        occ.                                          
     1  0  0.50     -6993.8440   2.0000                                         
     2  0  0.50      -814.6047   2.0000                                         
     2  1  1.50      -693.3689   6.0000                                         
     3  0  0.50       -89.4732   2.0000                                         
     3  1  1.50       -55.6373   6.0000                                         
     3  2  2.50        -3.8151   7.0000                                         
     4  0  0.50        -4.2551   1.0000                                         
     4  1  1.50        -3.4015   0.0000                                         
     4  3  2.50        -1.3606   0.0000                                         
   Description                                                                  
     l       E           TYP  RCUT    TYP  RCUT                                 
     2     -3.8151135     23  2.300                                             
     2     -5.1756961     23  2.300                                             
     0     -4.2550963     23  2.300                                             
     0      7.2035603     23  2.300                                             
     1     -2.7211652     23  2.300                                             
     1     18.4316424     23  2.300                                             
  local pseudopotential read in
  partial core-charges read in
  partial kinetic energy density read in
  atomic valenz-charges read in
  non local Contribution for L=           2  read in
    real space projection operators read in
  non local Contribution for L=           2  read in
    real space projection operators read in
  non local Contribution for L=           0  read in
    real space projection operators read in
  non local Contribution for L=           0  read in
    real space projection operators read in
  non local Contribution for L=           1  read in
    real space projection operators read in
  non local Contribution for L=           1  read in
    real space projection operators read in
    PAW grid and wavefunctions read in
 
   number of l-projection  operators is LMAX  =           6
   number of lm-projection operators is LMMAX =          18
 
 POTCAR:    PAW_PBE Cu 22Jun2005                  
   VRHFIN =Cu: d10 p1                                                           
   LEXCH  = PE                                                                  
   EATOM  =  1390.9808 eV,  102.2342 Ry                                         
                                                                                
   TITEL  = PAW_PBE Cu 22Jun2005                                                
   LULTRA =        F    use ultrasoft PP ?                                      
   IUNSCR =        1    unscreen: 0-lin 1-nonlin 2-no                           
   RPACOR =    2.000    partial core radius                                     
   POMASS =   63.546; ZVAL   =   11.000    mass and valenz                      
   RCORE  =    2.300    outmost cutoff radius                                   
   RWIGS  =    2.200; RWIGS  =    1.164    wigner-seitz radius (au A)           
   ENMAX  =  295.446; ENMIN  =  221.585 eV                                      
   ICORE  =        3    local potential                                         
   LCOR   =        T    correct aug charges                                     
   LPAW   =        T    paw PP                                                  
   EAUG   =  586.980                                                            
   DEXC   =    0.000                                                            
   RMAX   =    2.344    core radius for proj-oper                               
   RAUG   =    1.300    factor for augmentation sphere                          
   RDEP   =    2.302    radius for radial grids                                 
   RDEPT  =    1.771    core radius for aug-charge                              
                                                                                
   Atomic configuration                                                         
    9 entries                                                                   
     n  l   j            E        occ.                                          
     1  0  0.50     -8850.2468   2.0000                                         
     2  0  0.50     -1062.3498   2.0000                                         
     2  1  1.50      -916.8226   6.0000                                         
     3  0  0.50      -114.6929   2.0000                                         
     3  1  1.50       -72.1325   6.0000                                         
     3  2  2.50        -5.0394  10.0000                                         
     4  0  0.50        -4.6097   1.0000                                         
     4  1  0.50        -4.0817   0.0000                                         
     4  3  2.50        -1.3606   0.0000                                         
   Description                                                                  
     l       E           TYP  RCUT    TYP  RCUT                                 
     2     -5.0393973     23  2.200                                             
     2     10.8846608     23  2.200                                             
     0     -4.6097109     23  2.200                                             
     0      8.2520465     23  2.200                                             
     1     -2.7211652     23  2.200                                             
     1     21.7055443     23  2.200                                             
     3      2.7211652     23  2.300                                             
  local pseudopotential read in
  partial core-charges read in
  partial kinetic energy density read in
  atomic valenz-charges read in
  non local Contribution for L=           2  read in
    real space projection operators read in
  non local Contribution for L=           2  read in
    real space projection operators read in
  non local Contribution for L=           0  read in
    real space projection operators read in
  non local Contribution for L=           0  read in
    real space projection operators read in
  non local Contribution for L=           1  read in
    real space projection operators read in
  non local Contribution for L=           1  read in
    real space projection operators read in
    PAW grid and wavefunctions read in
 
   number of l-projection  operators is LMAX  =           6
   number of lm-projection operators is LMMAX =          18
 

 ----------------------------------------------------------------------------- 
|                                                                             |
|  ADVICE TO THIS USER RUNNING 'VASP/VAMP'   (HEAR YOUR MASTER'S VOICE ...):  |
|                                                                             |
|      You have a (more or less) 'large supercell' and for larger cells       |
|      it might be more efficient to use real space projection opertators     |
|      So try LREAL= Auto  in the INCAR   file.                               |
|      Mind:          For very  accurate calculation you might also keep the  |
|      reciprocal projection scheme          (i.e. LREAL=.FALSE.)             |
|                                                                             |
 ----------------------------------------------------------------------------- 

  PAW_PBE C 08Apr2002                   :
 energy of atom  1       EATOM= -147.1560
 kinetic energy error for atom=    0.0076 (will be added to EATOM!!)
  PAW_PBE N 08Apr2002                   :
 energy of atom  2       EATOM= -264.5486
 kinetic energy error for atom=    0.0138 (will be added to EATOM!!)
  PAW_PBE Fe 06Sep2000                  :
 energy of atom  3       EATOM= -594.3153
 kinetic energy error for atom=    0.0026 (will be added to EATOM!!)
  PAW_PBE Cu 22Jun2005                  :
 energy of atom  4       EATOM=-1390.9808
 kinetic energy error for atom=    0.0043 (will be added to EATOM!!)
 
 
 POSCAR:  C  N Fe Cu                             
  positions in cartesian coordinates
  No initial velocities read in
 exchange correlation table for  LEXCH =        8
   RHO(1)=    0.500       N(1)  =     2000
   RHO(2)=  100.500       N(2)  =     4000

 VTST: version 3.2, (02/03/18)

 CHAIN: initializing optimizer
 
 OPT: Using VASP Conjugate-Gradient optimizer
 CHAIN: Read ICHAIN            0
 
 POSCAR:  C  N Fe Cu                             
  positions in cartesian coordinates
  No initial velocities read in
 


--------------------------------------------------------------------------------------------------------


 ion  position               nearest neighbor table
   1  0.223  0.003  0.500-  19 1.43   4 1.43   3 1.43
   2  0.058  0.102  0.499-   3 1.42  38 1.44   7 1.44
   3  0.112  0.002  0.500-   2 1.42  17 1.43   1 1.43
   4  0.280  0.104  0.500-  21 1.43   1 1.43   5 1.44
   5  0.227  0.206  0.500-   7 1.44   4 1.44   8 1.45
   6  0.059  0.302  0.498-   7 1.43  11 1.43  42 1.44
   7  0.115  0.203  0.499-   6 1.43   2 1.44   5 1.44
   8  0.284  0.309  0.501-  25 1.45   5 1.45   9 1.46
   9  0.226  0.409  0.501-  55 1.39  11 1.44   8 1.46
  10  0.055  0.501  0.498-  14 1.42  46 1.42  11 1.43
  11  0.114  0.404  0.499-   6 1.43  10 1.43   9 1.44
  12  0.217  0.604  0.500-  55 1.39  14 1.40  15 1.42
  13  0.053  0.703  0.499-  18 1.41  50 1.42  14 1.43
  14  0.108  0.603  0.499-  12 1.40  10 1.42  13 1.43
  15  0.273  0.705  0.501-  58 1.38  16 1.41  12 1.42
  16  0.219  0.803  0.500-  15 1.41  19 1.42  18 1.42
  17  0.054  0.902  0.500-  18 1.42   3 1.43  54 1.43
  18  0.109  0.803  0.500-  13 1.41  17 1.42  16 1.42
  19  0.277  0.903  0.500-  16 1.42  32 1.43   1 1.43
  20  0.555  0.995  0.498-  22 1.43  23 1.43  34 1.44
  21  0.390  0.101  0.499-   4 1.43  26 1.43  22 1.45
  22  0.444  0.998  0.499-  20 1.43  32 1.43  21 1.45
  23  0.612  0.096  0.497-  24 1.43  20 1.43  36 1.43
  24  0.558  0.196  0.497-  27 1.42  26 1.43  23 1.43
  25  0.396  0.305  0.500-  56 1.39   8 1.45  26 1.45
  26  0.447  0.201  0.498-  24 1.43  21 1.43  25 1.45
  27  0.615  0.296  0.495-  28 1.41  24 1.42  40 1.42
  28  0.562  0.395  0.496-  56 1.38  27 1.41  29 1.42
  29  0.617  0.495  0.496-  57 1.39  44 1.40  28 1.42
  30  0.608  0.690  0.498-  57 1.39  48 1.44  31 1.46
  31  0.551  0.791  0.500-  33 1.45  34 1.45  30 1.46
  32  0.387  0.898  0.500-  19 1.43  22 1.43  33 1.45
  33  0.439  0.794  0.501-  58 1.39  31 1.45  32 1.45
  34  0.608  0.893  0.498-  52 1.44  20 1.44  31 1.45
  35  0.888  0.999  0.498-  54 1.42  38 1.43  37 1.44
  36  0.723  0.097  0.497-  37 1.42  41 1.43  23 1.43
  37  0.777  0.997  0.497-  36 1.42  35 1.44  52 1.44
  38  0.946  0.100  0.498-  39 1.42  35 1.43   2 1.44
  39  0.891  0.199  0.497-  38 1.42  42 1.43  41 1.43
  40  0.726  0.296  0.495-  45 1.42  41 1.42  27 1.42
  41  0.780  0.197  0.496-  40 1.42  36 1.43  39 1.43
  42  0.948  0.300  0.497-  43 1.43  39 1.43   6 1.44
  43  0.891  0.398  0.496-  46 1.42  45 1.42  42 1.43
  44  0.726  0.496  0.495-  29 1.40  49 1.42  45 1.43
  45  0.781  0.396  0.495-  40 1.42  43 1.42  44 1.43
  46  0.945  0.500  0.497-  43 1.42  10 1.42  47 1.44
  47  0.889  0.599  0.497-  49 1.42  50 1.42  46 1.44
  48  0.720  0.695  0.497-  53 1.43  49 1.43  30 1.44
  49  0.779  0.598  0.496-  44 1.42  47 1.42  48 1.43
  50  0.943  0.701  0.498-  47 1.42  13 1.42  51 1.43
  51  0.886  0.799  0.498-  50 1.43  54 1.43  53 1.44
  52  0.719  0.896  0.498-  53 1.43  37 1.44  34 1.44
  53  0.775  0.797  0.498-  52 1.43  48 1.43  51 1.44
  54  0.943  0.900  0.499-  35 1.42  51 1.43  17 1.43
  55  0.276  0.511  0.502-  12 1.39   9 1.39  59 1.89
  56  0.456  0.401  0.500-  28 1.38  25 1.39  59 1.91
  57  0.559  0.589  0.499-  29 1.39  30 1.39  59 1.89
  58  0.380  0.699  0.503-  15 1.38  33 1.39  59 1.91
  59  0.419  0.550  0.509-  57 1.89  55 1.89  56 1.91  58 1.91  60 2.33
  60  0.441  0.552  0.626-  59 2.33
 
  LATTYP: Found a triclinic cell.
 ALAT       =    17.9945513015
 B/A-ratio  =     0.6845030876
 C/A-ratio  =     1.8960694684
 COS(alpha) =     0.0024964886
 COS(beta)  =     0.5831760874
 COS(gamma) =     0.6967407793
  
  Lattice vectors:
  
 A1 = (  13.0954090170, -12.3227566892,  -0.6810336248)
 A2 = (   0.1932369684, -12.3135126081,  -0.2378753784)
 A3 = (  26.9517173618,   0.7416625007, -20.9082644789)


Analysis of symmetry for initial positions (statically):
=====================================================================
 Subroutine PRICEL returns:
 Original cell was already a primitive cell.
 

 Routine SETGRP: Setting up the symmetry group for a 
 triclinic supercell.


 Subroutine GETGRP returns: Found  1 space group operations
 (whereof  1 operations were pure point group operations)
 out of a pool of  2 trial point group operations.


The static configuration has the point symmetry C_1 .


Analysis of symmetry for dynamics (positions and initial velocities):
=====================================================================
 Subroutine PRICEL returns:
 Original cell was already a primitive cell.
 

 Routine SETGRP: Setting up the symmetry group for a 
 triclinic supercell.


 Subroutine GETGRP returns: Found  1 space group operations
 (whereof  1 operations were pure point group operations)
 out of a pool of  2 trial point group operations.


The dynamic configuration has the point symmetry C_1 .


Analysis of structural, dynamic, and magnetic symmetry:
=====================================================================
 Subroutine PRICEL returns:
 Original cell was already a primitive cell.
 

 Routine SETGRP: Setting up the symmetry group for a 
 triclinic supercell.


 Subroutine GETGRP returns: Found  1 space group operations
 (whereof  1 operations were pure point group operations)
 out of a pool of  2 trial point group operations.


The magnetic configuration has the point symmetry C_1 .


 Subroutine INISYM returns: Found  1 space group operations
 (whereof  1 operations are pure point group operations),
 and found     1 'primitive' translations

 
 
 KPOINTS: KPOINTS created by Atomic Simulation Env

Automatic generation of k-mesh.
Space group operators:
 irot       det(A)        alpha          n_x          n_y          n_z        tau_x        tau_y        tau_z
    1     1.000000     0.000000     1.000000     0.000000     0.000000     0.000000     0.000000     0.000000
 
 Subroutine IBZKPT returns following result:
 ===========================================
 
 Found      2 irreducible k-points:
 
 Following reciprocal coordinates:
            Coordinates               Weight
  0.250000  0.250000 -0.000000      2.000000
 -0.250000  0.250000 -0.000000      2.000000
 
 Following cartesian coordinates:
            Coordinates               Weight
  0.019456  0.020572  0.001896      2.000000
 -0.019374  0.020006 -0.000351      2.000000
 
 
 Subroutine IBZKPT_HF returns following result:
 ==============================================
 
 Found      4 k-points in 1st BZ
 the following      4 k-points will be used (e.g. in the exchange kernel)
 Following reciprocal coordinates:   # in IRBZ
  0.250000  0.250000 -0.000000    0.25000000   1 t-inv F
 -0.250000  0.250000 -0.000000    0.25000000   2 t-inv F
 -0.250000 -0.250000  0.000000    0.25000000   1 t-inv T
  0.250000 -0.250000  0.000000    0.25000000   2 t-inv T


--------------------------------------------------------------------------------------------------------




 Dimension of arrays:
   k-points           NKPTS =      2   k-points in BZ     NKDIM =      4   number of bands    NBANDS=    160
   number of dos      NEDOS =    301   number of ions     NIONS =     60
   non local maximal  LDIM  =      6   non local SUM 2l+1 LMDIM =     18
   total plane-waves  NPLWV = ******
   max r-space proj   IRMAX =      1   max aug-charges    IRDMAX=  14730
   dimension x,y,z NGX =    96 NGY =   90 NGZ =  150
   dimension x,y,z NGXF=   192 NGYF=  180 NGZF=  300
   support grid    NGXF=   192 NGYF=  180 NGZF=  300
   ions per type =              54   4   1   1
   NGX,Y,Z   is equivalent  to a cutoff of  12.36, 12.15, 12.43 a.u.
   NGXF,Y,Z  is equivalent  to a cutoff of  24.72, 24.29, 24.85 a.u.

 SYSTEM =  unknown system                          
 POSCAR =   C  N Fe Cu                             

 Startparameter for this run:
   NWRITE =      2    write-flag & timer
   PREC   = accura    normal or accurate (medium, high low for compatibility)
   ISTART =      1    job   : 0-new  1-cont  2-samecut
   ICHARG =      0    charge: 1-file 2-atom 10-const
   ISPIN  =      2    spin polarized calculation?
   LNONCOLLINEAR =      F non collinear calculations
   LSORBIT =      F    spin-orbit coupling
   INIWAV =      1    electr: 0-lowe 1-rand  2-diag
   LASPH  =      T    aspherical Exc in radial PAW
   METAGGA=      F    non-selfconsistent MetaGGA calc.

 Electronic Relaxation 1
   ENCUT  =  500.0 eV  36.75 Ry    6.06 a.u.  23.54 22.46 36.59*2*pi/ulx,y,z
   ENINI  =  500.0     initial cutoff
   ENAUG  =  644.9 eV  augmentation charge cutoff
   NELM   =    250;   NELMIN=  2; NELMDL=  0     # of ELM steps 
   EDIFF  = 0.1E-03   stopping-criterion for ELM
   LREAL  =      F    real-space projection
   NLSPLINE    = F    spline interpolate recip. space projectors
   LCOMPAT=      F    compatible to vasp.4.4
   GGA_COMPAT  = T    GGA compatible to vasp.4.4-vasp.4.6
   LMAXPAW     = -100 max onsite density
   LMAXMIX     =    2 max onsite mixed and CHGCAR
   VOSKOWN=      0    Vosko Wilk Nusair interpolation
   ROPT   =    0.00000   0.00000   0.00000   0.00000
 Ionic relaxation
   EDIFFG = -.3E-01   stopping-criterion for IOM
   NSW    =      0    number of steps for IOM
   NBLOCK =      1;   KBLOCK =      1    inner block; outer block 
   IBRION =     -1    ionic relax: 0-MD 1-quasi-New 2-CG
   NFREE  =      1    steps in history (QN), initial steepest desc. (CG)
   ISIF   =      2    stress and relaxation
   IWAVPR =     10    prediction:  0-non 1-charg 2-wave 3-comb
   ISYM   =      3    0-nonsym 1-usesym 2-fastsym
   LCORR  =      T    Harris-Foulkes like correction to forces

   POTIM  = 0.5000    time-step for ionic-motion
   TEIN   =    0.0    initial temperature
   TEBEG  =    0.0;   TEEND  =   0.0 temperature during run
   SMASS  =  -3.00    Nose mass-parameter (am)
   estimated Nose-frequenzy (Omega)   =  0.10E-29 period in steps =****** mass=  -0.381E-26a.u.
   SCALEE = 1.0000    scale energy and forces
   NPACO  =    256;   APACO  = 16.0  distance and # of slots for P.C.
   PSTRESS=    0.0 pullay stress

  Mass of Ions in am
   POMASS =  12.01 14.00 55.85 63.55
  Ionic Valenz
   ZVAL   =   4.00  5.00  8.00 11.00
  Atomic Wigner-Seitz radii
   RWIGS  =  -1.00 -1.00 -1.00 -1.00
  virtual crystal weights 
   VCA    =   1.00  1.00  1.00  1.00
   NELECT =     255.0000    total number of electrons
   NUPDOWN=      -1.0000    fix difference up-down

 DOS related values:
   EMIN   =  10.00;   EMAX   =-10.00  energy-range for DOS
   EFERMI =   0.00
   ISMEAR =     0;   SIGMA  =   0.10  broadening in eV -4-tet -1-fermi 0-gaus

 Electronic relaxation 2 (details)
   IALGO  =     53    algorithm
   LDIAG  =      T    sub-space diagonalisation (order eigenvalues)
   LSUBROT=      F    optimize rotation matrix (better conditioning)
   TURBO    =      0    0=normal 1=particle mesh
   IRESTART =      0    0=no restart 2=restart with 2 vectors
   NREBOOT  =      0    no. of reboots
   NMIN     =      0    reboot dimension
   EREF     =   0.00    reference energy to select bands
   IMIX   =      4    mixing-type and parameters
     AMIX     =   0.40;   BMIX     =  1.00
     AMIX_MAG =   1.60;   BMIX_MAG =  1.00
     AMIN     =   0.10
     WC   =   100.;   INIMIX=   1;  MIXPRE=   1;  MAXMIX= -45

 Intra band minimization:
   WEIMIN = 0.0000     energy-eigenvalue tresh-hold
   EBREAK =  0.16E-06  absolut break condition
   DEPER  =   0.30     relativ break condition  

   TIME   =   0.20     timestep for ELM

  volume/ion in A,a.u.               =      52.95       357.31
  Fermi-wavevector in a.u.,A,eV,Ry     =   0.706189  1.334505  6.785273  0.498704
  Thomas-Fermi vector in A             =   1.791903
 
 Write flags
   LWAVE        =      T    write WAVECAR
   LDOWNSAMPLE  =      F    k-point downsampling of WAVECAR
   LCHARG       =      T    write CHGCAR
   LVTOT        =      F    write LOCPOT, total local potential
   LVHAR        =      T    write LOCPOT, Hartree potential only
   LELF         =      F    write electronic localiz. function (ELF)
   LORBIT       =     11    0 simple, 1 ext, 2 COOP (PROOUT), +10 PAW based schemes


 Dipole corrections
   LMONO  =      F    monopole corrections only (constant potential shift)
   LDIPOL =      T    correct potential (dipole corrections)
   IDIPOL =      3    1-x, 2-y, 3-z, 4-all directions 
   EPSILON=  1.0000000 bulk dielectric constant

 Exchange correlation treatment:
   GGA     =    PE    GGA type
   LEXCH   =     8    internal setting for exchange type
   VOSKOWN=      0    Vosko Wilk Nusair interpolation
   EXXOEP  =     0    0=HF, 1=EXX-LHF (local Hartree Fock) 2=EXX OEP
   LHFCALC =     T    Hartree Fock is set to
   LSYMGRAD=     F    symmetrize gradient (conserves proper symmetry)
   PRECFOCK=normal    Normal, Fast or Accurate (Low or Medium for compatibility)
   LRHFCALC=     F    long range Hartree Fock
   LRSCOR  =     F    long range correlation only (use DFT for short range part)
   LTHOMAS =     F    Thomas Fermi screening in HF
   LMODELHF=     F    short range full HF, long range fraction AEXX
   ENCUT4O =  -1.0   cutoff for four orbital integrals eV
   LMAXFOCK=     4    L truncation for augmentation on plane wave grid
   LMAXFOCKAE=  -1    L truncation for all-electron charge restoration on plane wave grid
   NMAXFOCKAE=   1    number of basis functions for all-electron charge restoration
   LFOCKAEDFT=     F  apply the AE augmentation even for DFT
   NKREDX  =     1    reduce k-point grid by
   NKREDY  =     1    reduce k-point grid by
   NKREDZ  =     1    reduce k-point grid by
   SHIFTRED=     F    shift reduced grid of Gamma
   HFKIDENT=     F    idential grid for each k-point
   ODDONLY =     F    use only odd q-grid points
   EVENONLY=     F    use only even q-grid points
   HFALPHA =   -1.0000 decay constant for conv. correction
   MCALPHA =    0.0000 extent of test-charge in conv. correction in multipole expansion
   AEXX    =    0.2500 exact exchange contribution
   HFSCREEN=    0.2000 screening length (either q_TF or 0.3 A-1)
   HFSCREENC=   0.2000 screening length for correlation (either q_TF or 0.3 A-1)
   HFRCUT  =    0.0000 spherical cutoff for potential kernel
   ALDAX   =    0.7500 LDA exchange part
   AGGAX   =    0.7500 GGA exchange part
   ALDAC   =    1.0000 LDA correlation
   AGGAC   =    1.0000 GGA correlation
   ENCUTFOCK=  -1.0 apply spherical cutoff to Coloumb kernel
   NBANDSGWLOW=     1    first orbital included in HF term
   NBLOCK_FOCK=    64    blocking factor in FOCK_ACC
 Linear response parameters
   LEPSILON=     F    determine dielectric tensor
   LRPA    =     F    only Hartree local field effects (RPA)
   LNABLA  =     F    use nabla operator in PAW spheres
   LVEL    =     F    velocity operator in full k-point grid
   LINTERFAST=   F  fast interpolation
   KINTER  =     0    interpolate to denser k-point grid
   CSHIFT  =0.1000    complex shift for real part using Kramers Kronig
   OMEGAMAX=  -1.0    maximum frequency
   DEG_THRESHOLD= 0.2000000E-02 threshold for treating states as degnerate
   RTIME   =   -0.100 relaxation time in fs
  (WPLASMAI=    0.000 imaginary part of plasma frequency in eV, 0.658/RTIME)
   DFIELD  = 0.0000000 0.0000000 0.0000000 field for delta impulse in time
 
 Orbital magnetization related:
   ORBITALMAG=     F  switch on orbital magnetization
   LCHIMAG   =     F  perturbation theory with respect to B field
   DQ        =  0.001000  dq finite difference perturbation B field
   LLRAUG    =     F  two centre corrections for induced B field



--------------------------------------------------------------------------------------------------------


 Static calculation
 charge density and potential will be updated during run
 spin polarized calculation
 Conjugate gradient for all bands (Freysoldt, et al. PRB 79, 241103 (2009))
 perform sub-space diagonalisation
    before iterative eigenvector-optimisation
 modified Broyden-mixing scheme, WC =      100.0
 initial mixing is a Kerker type mixing with AMIX =  0.4000 and BMIX =      1.0000
 Hartree-type preconditioning will be used
 using additional bands           32
 reciprocal scheme for non local part
 use partial core corrections
 no Harris-corrections to forces 
 use gradient corrections 
 use of overlap-Matrix (Vanderbilt PP)
 Gauss-broadening in eV      SIGMA  =   0.10


--------------------------------------------------------------------------------------------------------


  energy-cutoff  :      500.00
  volume of cell :     3176.88
      direct lattice vectors                 reciprocal lattice vectors
    12.902172049 -0.009244081 -0.443158246     0.077661479  0.001131943  0.004493427
    -0.193236968 12.313512608  0.237875378     0.000164297  0.081154470  0.003090515
    -1.147373265 -0.760150663 20.021947986     0.001716978 -0.000939120  0.050007928

  length of vectors
    12.909783819 12.317325926 20.069197682     0.077799598  0.081213461  0.050046207


 
 old parameters found on file WAVECAR:
  energy-cutoff  :      500.00
  volume of cell :     3176.88
      direct lattice vectors                 reciprocal lattice vectors
    12.888400000  0.000000000  0.000000000     0.077589150  0.001159676  0.001853713
    -0.183768974 12.295226737  0.000000000     0.000000000  0.081332376  0.004600226
    -0.462020683 -1.133916932 20.047743297     0.000000000  0.000000000  0.049880926

  length of vectors

 
 k-points in units of 2pi/SCALE and weight: KPOINTS created by Atomic Simulation Env
   0.01945644  0.02057160  0.00189599       0.500
  -0.01937430  0.02000563 -0.00035073       0.500
 
 k-points in reciprocal lattice and weights: KPOINTS created by Atomic Simulation Env
   0.25000000  0.25000000 -0.00000000       0.500
  -0.25000000  0.25000000 -0.00000000       0.500
 
 position of ions in fractional coordinates (direct lattice) 
   0.22275679  0.00321028  0.50024382
   0.05764204  0.10198746  0.49918663
   0.11166152  0.00221863  0.49993527
   0.27982822  0.10387138  0.50002672
   0.22681002  0.20603442  0.50014534
   0.05919185  0.30208219  0.49824277
   0.11513490  0.20305530  0.49932139
   0.28421324  0.30871044  0.50066662
   0.22640168  0.40926119  0.50070034
   0.05540354  0.50147250  0.49828852
   0.11442594  0.40381369  0.49884081
   0.21741715  0.60412615  0.50048863
   0.05303874  0.70252874  0.49897276
   0.10849665  0.60320168  0.49916882
   0.27291323  0.70460615  0.50084016
   0.21896861  0.80336305  0.50020527
   0.05410065  0.90205308  0.49954673
   0.10851113  0.80266972  0.49965825
   0.27671119  0.90263480  0.50031184
   0.55488428  0.99527194  0.49821061
   0.39037047  0.10073343  0.49913171
   0.44434437  0.99841613  0.49897523
   0.61181337  0.09589871  0.49704615
   0.55784070  0.19645138  0.49680180
   0.39629943  0.30541876  0.49989951
   0.44747881  0.20131357  0.49832487
   0.61533361  0.29568884  0.49531492
   0.56164677  0.39450626  0.49641502
   0.61702356  0.49496358  0.49591624
   0.60848697  0.68992263  0.49849497
   0.55086364  0.79051120  0.49956789
   0.38724045  0.89782049  0.49989997
   0.43882610  0.79381908  0.50079625
   0.60798405  0.89311088  0.49845582
   0.88831417  0.99933654  0.49809039
   0.72281027  0.09687205  0.49662920
   0.77682531  0.99711190  0.49748612
   0.94609144  0.09979223  0.49804778
   0.89117117  0.19900515  0.49669317
   0.72561888  0.29632004  0.49466809
   0.78018987  0.19698893  0.49574193
   0.94776916  0.29980070  0.49678937
   0.89133251  0.39839986  0.49583546
   0.72561921  0.49580906  0.49491446
   0.78103020  0.39646902  0.49463095
   0.94533018  0.49976308  0.49685864
   0.88875553  0.59922563  0.49688483
   0.71994429  0.69527338  0.49700517
   0.77877317  0.59755208  0.49609127
   0.94278324  0.70059303  0.49807874
   0.88647991  0.79923115  0.49811498
   0.71940529  0.89606908  0.49782781
   0.77515405  0.79699711  0.49760941
   0.94314466  0.90007118  0.49872169
   0.27596303  0.51051529  0.50211998
   0.45555671  0.40066852  0.50043374
   0.55927414  0.58869467  0.49912056
   0.37997628  0.69859823  0.50266796
   0.41910521  0.54977789  0.50910835
   0.44145847  0.55199648  0.62577830
 
 position of ions in cartesian coordinates  (Angst):
   2.29945975 -0.34279007  9.91790288
   0.15124644  0.87583394  9.99340444
   0.86663500 -0.35373919  9.96072210
   3.01660269  0.89633914  9.91220932
   2.31267510  2.15472491  9.96238179
   0.13365953  3.34040611 10.02141731
   0.87334447  2.11970020  9.99466585
   3.03286236  3.41810049  9.97180415
   2.26749887  4.65674222 10.02201759
   0.04620008  5.79560146 10.07144224
   0.82595476  4.59211303 10.03311335
   2.11416667  7.05645843 10.06811392
  -0.02394755  8.27081173 10.13401646
   0.71054861  7.04708503 10.08973781
   2.81036687  8.29293993 10.07446029
   2.09600903  9.50996549 10.10914652
  -0.04946073 10.72721106 10.19249974
   0.67162926  9.50286507 10.14697925
   2.82170853 10.73173465 10.10930535
   6.39525554 11.87144904  9.96599609
   4.44447119  0.85735847  9.84455517
   4.96756581 11.91060572 10.03103992
   7.30489276  0.79736433  9.70351398
   6.58937794  2.03620557  9.74645902
   4.48053387  3.37711540  9.90599014
   5.16278277  2.09593865  9.82701819
   7.31369104  3.25876614  9.71481643
   6.60065680  4.47521572  9.78414055
   7.29629787  5.71206536  9.77350970
   7.14552528  8.11081487  9.87529986
   6.38139063  9.34913058  9.94624564
   4.24917895 10.67174492 10.05093176
   4.93381441  9.38996413 10.02127710
   7.09981786 10.61281029  9.92307239
  10.69657785 11.91850767  9.81679370
   8.73728417  0.80864047  9.64620810
   9.25925268 11.89260448  9.85357301
  11.61590425  0.84145579  9.57635657
  10.88969610  2.06465270  9.59717337
   8.73723064  3.26601058  9.65314212
   9.45927732  2.04157503  9.62683038
  11.60034530  3.30520369  9.59799446
  10.85423149  4.52055246  9.62736000
   8.69840361  5.72223391  9.70552828
   9.43284718  4.49871233  9.65166534
  11.53015762  5.76741289  9.64802826
  10.78097180  6.99264932  9.69728394
   8.58424217  8.17680345  9.79735091
   9.36319436  6.97366193  9.72973686
  11.45708892  8.23943105  9.72135821
  10.71155150  9.45450578  9.77049871
   8.53754285 10.64868349  9.86182482
   9.27621786  9.42841019  9.80917983
  11.42246767 10.69521570  9.78152216
   2.88575300  5.90199865 10.05256389
   5.22606279  4.54902060  9.91308368
   6.52941599  6.86432246  9.88555489
   4.19077655  8.21658221 10.06218154
   4.71699280  6.37882373 10.13838968
   4.87110571  6.31724891 12.46497106
 


--------------------------------------------------------------------------------------------------------


 k-point  1 :   0.2500 0.2500-0.0000  plane waves:   80684
 k-point  2 :  -0.2500 0.2500-0.0000  plane waves:   80679

 maximum and minimum number of plane-waves per node :      2053     1989

 maximum number of plane-waves:     80684
 maximum index in each direction: 
   IXMAX=   23   IYMAX=   22   IZMAX=   36
   IXMIN=  -23   IYMIN=  -22   IZMIN=  -36


 parallel 3D FFT for wavefunctions:
    minimum data exchange during FFTs selected (reduces bandwidth)
 parallel 3D FFT for charge:
    minimum data exchange during FFTs selected (reduces bandwidth)


 FFT grid for exact exchange (Hartree Fock) 
  NGX = 72; NGY = 70; NGZ =112

 
 Radii for the augmentation spheres in the non-local exchange
 for species   1 augmentation radius   0.874 (default was   0.699)
       energy cutoff for augmentation   2000.0
 for species   2 augmentation radius   0.886 (default was   0.709)
       energy cutoff for augmentation   2000.0
 for species   3 augmentation radius   1.263 (default was   1.010)
       energy cutoff for augmentation   2000.0
 for species   4 augmentation radius   1.179 (default was   0.943)
       energy cutoff for augmentation   2000.0

 real space projection operators:
  total allocation   :       2552.46 KBytes
  max/ min on nodes  :        114.68         24.66

 Maximum index for augmentation-charges in exchange           77
  SETUP_FOCK is finished

 total amount of memory used by VASP MPI-rank0   140697. kBytes
=======================================================================

   base      :      30000. kBytes
   nonl-proj :       4352. kBytes
   fftplans  :      11188. kBytes
   grid      :      29312. kBytes
   one-center:         62. kBytes
   HF        :         23. kBytes
   nonlr-proj:       1650. kBytes
   wavefun   :      64110. kBytes
 
     INWAV:  cpu time    5.2818: real time    5.3006
 Broyden mixing: mesh for mixing (old mesh)
   NGX = 47   NGY = 45   NGZ = 73
  (NGX  =192   NGY  =180   NGZ  =300)
  gives a total of 154395 points

 charge density for first step will be calculated from the start-wavefunctions


--------------------------------------------------------------------------------------------------------


 Maximum index for augmentation-charges          697 (set IRDMAX)


--------------------------------------------------------------------------------------------------------


 initial charge from wavefunction
 First call to EWALD:  gamma=   0.121
 Maximum number of real-space cells 3x 3x 2
 Maximum number of reciprocal cells 2x 2x 4

    FEWALD:  cpu time    0.0029: real time    0.0029


--------------------------------------- Iteration      1(   1)  ---------------------------------------


    POTLOK:  cpu time    1.0439: real time    1.0531
    SETDIJ:  cpu time    1.2290: real time    1.2332
    TRIAL :  cpu time  222.5670: real time  223.3592
    CORREC:  cpu time    0.0008: real time    0.0008
    CHARGE:  cpu time    1.2240: real time    1.2274
    --------------------------------------------
      LOOP:  cpu time  226.0870: real time  226.9334

 eigenvalue-minimisations  :     0
 total energy-change (2. order) :-0.6240330E+03  (-0.4701254E+00)
 number of electron     255.0000002 magnetization       1.0000538
 augmentation part       17.2864641 magnetization       0.9988482

 DIPCOR: dipole corrections for dipol
 direction  3 min pos     1,
 dipolmoment           0.009723      0.006442     -0.169671 electrons x Angstroem
 Tr[quadrupol]     -7238.450916

 energy correction for charged system         0.000000 eV
 dipol+quadrupol energy correction           -0.000833 eV
 added-field ion interaction          0.213984 eV  (added to PSCEN)


 Free energy of the ion-electron system (eV)
  ---------------------------------------------------
  alpha Z        PSCENC =       108.41792962
  Ewald energy   TEWEN  =     41214.60910477
  -Hartree energ DENC   =    -50669.82545383
  -exchange      EXHF   =       582.70299060
  -V(xc)+E(xc)   XCENC  =       668.26183305
  PAW double counting   =     27860.88300978   -27996.60380193
  entropy T*S    EENTRO =        -0.00001739
  eigenvalues    EBANDS =     -3268.64401989
  atomic energy  EATOM  =     10876.16547012
  ---------------------------------------------------
  free energy    TOTEN  =      -624.03299039 eV

  energy without entropy =     -624.03297300  energy(sigma->0) =     -624.03298169
  exchange ACFDT corr.  =        -0.00002627  see jH, gK, PRB 81, 115126


--------------------------------------------------------------------------------------------------------




--------------------------------------- Iteration      1(   2)  ---------------------------------------


    POTLOK:  cpu time    1.0402: real time    1.0440
    SETDIJ:  cpu time    1.2260: real time    1.2301
    TRIAL :  cpu time  222.8167: real time  223.4667
    CORREC:  cpu time    0.0014: real time    0.0014
    CHARGE:  cpu time    1.2218: real time    1.2257
    --------------------------------------------
      LOOP:  cpu time  226.3068: real time  226.9731

 eigenvalue-minimisations  :     0
 total energy-change (2. order) :-0.3377212E+00  (-0.3894793E+00)
 number of electron     255.0000002 magnetization       1.0000100
 augmentation part       17.2389626 magnetization       1.0256997

 DIPCOR: dipole corrections for dipol
 direction  3 min pos     1,
 dipolmoment           0.010284      0.006813     -0.179458 electrons x Angstroem
 Tr[quadrupol]     -7238.347307

 energy correction for charged system         0.000000 eV
 dipol+quadrupol energy correction           -0.000932 eV
 added-field ion interaction          0.226328 eV  (added to PSCEN)


 Free energy of the ion-electron system (eV)
  ---------------------------------------------------
  alpha Z        PSCENC =       108.43017446
  Ewald energy   TEWEN  =     41214.60910477
  -Hartree energ DENC   =    -50666.25970985
  -exchange      EXHF   =       582.75777624
  -V(xc)+E(xc)   XCENC  =       668.16979124
  PAW double counting   =     27990.28465312   -28128.31314479
  entropy T*S    EENTRO =        -0.00000339
  eigenvalues    EBANDS =     -3270.21480952
  atomic energy  EATOM  =     10876.16547012
  ---------------------------------------------------
  free energy    TOTEN  =      -624.37071160 eV

  energy without entropy =     -624.37070821  energy(sigma->0) =     -624.37070990
  exchange ACFDT corr.  =        -0.00001255  see jH, gK, PRB 81, 115126


--------------------------------------------------------------------------------------------------------




--------------------------------------- Iteration      1(   3)  ---------------------------------------


    POTLOK:  cpu time    1.0543: real time    1.0612
    SETDIJ:  cpu time    1.2187: real time    1.2226
    TRIAL :  cpu time  222.6907: real time  223.3746
    CORREC:  cpu time    0.0008: real time    0.0008
    CHARGE:  cpu time    1.2188: real time    1.2222
    --------------------------------------------
      LOOP:  cpu time  226.1853: real time  226.8878

 eigenvalue-minimisations  :     0
 total energy-change (2. order) :-0.2946284E+00  (-0.2008171E+00)
 number of electron     255.0000002 magnetization       1.0000014
 augmentation part       17.2112304 magnetization       1.0505050

 DIPCOR: dipole corrections for dipol
 direction  3 min pos     1,
 dipolmoment           0.012440      0.008242     -0.217085 electrons x Angstroem
 Tr[quadrupol]     -7238.271113

 energy correction for charged system         0.000000 eV
 dipol+quadrupol energy correction           -0.001364 eV
 added-field ion interaction          0.273782 eV  (added to PSCEN)


 Free energy of the ion-electron system (eV)
  ---------------------------------------------------
  alpha Z        PSCENC =       108.47719607
  Ewald energy   TEWEN  =     41214.60910477
  -Hartree energ DENC   =    -50649.59638722
  -exchange      EXHF   =       582.54465093
  -V(xc)+E(xc)   XCENC  =       667.64953116
  PAW double counting   =     28143.64988996   -28279.91442675
  entropy T*S    EENTRO =        -0.00000054
  eigenvalues    EBANDS =     -3288.25036568
  atomic energy  EATOM  =     10876.16547012
  ---------------------------------------------------
  free energy    TOTEN  =      -624.66534003 eV

  energy without entropy =     -624.66533948  energy(sigma->0) =     -624.66533975
  exchange ACFDT corr.  =        -0.00000226  see jH, gK, PRB 81, 115126


--------------------------------------------------------------------------------------------------------




--------------------------------------- Iteration      1(   4)  ---------------------------------------


    POTLOK:  cpu time    1.0473: real time    1.0536
    SETDIJ:  cpu time    1.2309: real time    1.2344
    TRIAL :  cpu time  222.4046: real time  223.0498
    CORREC:  cpu time    0.0008: real time    0.0008
    CHARGE:  cpu time    1.2373: real time    1.2407
    --------------------------------------------
      LOOP:  cpu time  225.9229: real time  226.5854

 eigenvalue-minimisations  :     0
 total energy-change (2. order) :-0.1467775E+00  (-0.1242191E+00)
 number of electron     255.0000002 magnetization       1.0000002
 augmentation part       17.2446614 magnetization       1.0691247

 DIPCOR: dipole corrections for dipol
 direction  3 min pos     1,
 dipolmoment           0.014070      0.009322     -0.245528 electrons x Angstroem
 Tr[quadrupol]     -7238.291345

 energy correction for charged system         0.000000 eV
 dipol+quadrupol energy correction           -0.001745 eV
 added-field ion interaction          0.309654 eV  (added to PSCEN)


 Free energy of the ion-electron system (eV)
  ---------------------------------------------------
  alpha Z        PSCENC =       108.51268728
  Ewald energy   TEWEN  =     41214.60910477
  -Hartree energ DENC   =    -50641.70462234
  -exchange      EXHF   =       582.56595161
  -V(xc)+E(xc)   XCENC  =       667.39492248
  PAW double counting   =     28278.16963823   -28413.27156941
  entropy T*S    EENTRO =        -0.00000010
  eigenvalues    EBANDS =     -3297.25369968
  atomic energy  EATOM  =     10876.16547012
  ---------------------------------------------------
  free energy    TOTEN  =      -624.81211748 eV

  energy without entropy =     -624.81211738  energy(sigma->0) =     -624.81211743
  exchange ACFDT corr.  =        -0.00000029  see jH, gK, PRB 81, 115126


--------------------------------------------------------------------------------------------------------




--------------------------------------- Iteration      1(   5)  ---------------------------------------


    POTLOK:  cpu time    1.0452: real time    1.0497
    SETDIJ:  cpu time    1.2158: real time    1.2190
    TRIAL :  cpu time  222.8306: real time  223.4779
    CORREC:  cpu time    0.0009: real time    0.0009
    CHARGE:  cpu time    1.2181: real time    1.2213
    --------------------------------------------
      LOOP:  cpu time  226.3125: real time  226.9753

 eigenvalue-minimisations  :     0
 total energy-change (2. order) :-0.9099496E-01  (-0.6859858E-01)
 number of electron     255.0000002 magnetization       1.0000001
 augmentation part       17.2519029 magnetization       1.0861138

 DIPCOR: dipole corrections for dipol
 direction  3 min pos     1,
 dipolmoment           0.014874      0.009854     -0.259548 electrons x Angstroem
 Tr[quadrupol]     -7238.394999

 energy correction for charged system         0.000000 eV
 dipol+quadrupol energy correction           -0.001950 eV
 added-field ion interaction          0.327335 eV  (added to PSCEN)


 Free energy of the ion-electron system (eV)
  ---------------------------------------------------
  alpha Z        PSCENC =       108.53016327
  Ewald energy   TEWEN  =     41214.60910477
  -Hartree energ DENC   =    -50647.22654312
  -exchange      EXHF   =       582.89452342
  -V(xc)+E(xc)   XCENC  =       667.55196864
  PAW double counting   =     28380.53179491   -28516.59991937
  entropy T*S    EENTRO =        -0.00000003
  eigenvalues    EBANDS =     -3291.35967498
  atomic energy  EATOM  =     10876.16547012
  ---------------------------------------------------
  free energy    TOTEN  =      -624.90311244 eV

  energy without entropy =     -624.90311241  energy(sigma->0) =     -624.90311243
  exchange ACFDT corr.  =        -0.00000004  see jH, gK, PRB 81, 115126


--------------------------------------------------------------------------------------------------------




--------------------------------------- Iteration      1(   6)  ---------------------------------------


    POTLOK:  cpu time    1.0470: real time    1.0510
    SETDIJ:  cpu time    1.2132: real time    1.2165
    TRIAL :  cpu time  223.0245: real time  223.6764
    CORREC:  cpu time    0.0008: real time    0.0008
    CHARGE:  cpu time    1.2101: real time    1.2174
    --------------------------------------------
      LOOP:  cpu time  226.4976: real time  227.1683

 eigenvalue-minimisations  :     0
 total energy-change (2. order) :-0.5678525E-01  (-0.4630313E-01)
 number of electron     255.0000002 magnetization       1.0000000
 augmentation part       17.2475065 magnetization       1.1019991

 DIPCOR: dipole corrections for dipol
 direction  3 min pos     1,
 dipolmoment           0.015534      0.010292     -0.271079 electrons x Angstroem
 Tr[quadrupol]     -7238.505527

 energy correction for charged system         0.000000 eV
 dipol+quadrupol energy correction           -0.002127 eV
 added-field ion interaction          0.341878 eV  (added to PSCEN)


 Free energy of the ion-electron system (eV)
  ---------------------------------------------------
  alpha Z        PSCENC =       108.54452934
  Ewald energy   TEWEN  =     41214.60910477
  -Hartree energ DENC   =    -50651.71865907
  -exchange      EXHF   =       583.15369079
  -V(xc)+E(xc)   XCENC  =       667.66899985
  PAW double counting   =     28446.19111873   -28582.14879377
  entropy T*S    EENTRO =        -0.00000001
  eigenvalues    EBANDS =     -3287.42535844
  atomic energy  EATOM  =     10876.16547012
  ---------------------------------------------------
  free energy    TOTEN  =      -624.95989770 eV

  energy without entropy =     -624.95989768  energy(sigma->0) =     -624.95989769
  exchange ACFDT corr.  =        -0.00000001  see jH, gK, PRB 81, 115126


--------------------------------------------------------------------------------------------------------




--------------------------------------- Iteration      1(   7)  ---------------------------------------


    POTLOK:  cpu time    1.0441: real time    1.0492
    SETDIJ:  cpu time    1.2240: real time    1.2276
    TRIAL :  cpu time  222.7837: real time  223.4321
    CORREC:  cpu time    0.0007: real time    0.0007
    CHARGE:  cpu time    1.2173: real time    1.2208
    --------------------------------------------
      LOOP:  cpu time  226.2716: real time  226.9365

 eigenvalue-minimisations  :     0
 total energy-change (2. order) :-0.3734002E-01  (-0.3302484E-01)
 number of electron     255.0000002 magnetization       1.0000000
 augmentation part       17.2642368 magnetization       1.1159649

 DIPCOR: dipole corrections for dipol
 direction  3 min pos     1,
 dipolmoment           0.015944      0.010563     -0.278222 electrons x Angstroem
 Tr[quadrupol]     -7238.581318

 energy correction for charged system         0.000000 eV
 dipol+quadrupol energy correction           -0.002241 eV
 added-field ion interaction          0.350886 eV  (added to PSCEN)


 Free energy of the ion-electron system (eV)
  ---------------------------------------------------
  alpha Z        PSCENC =       108.55342384
  Ewald energy   TEWEN  =     41214.60910477
  -Hartree energ DENC   =    -50654.36497889
  -exchange      EXHF   =       583.33294863
  -V(xc)+E(xc)   XCENC  =       667.74173584
  PAW double counting   =     28484.91054397   -28620.41780164
  entropy T*S    EENTRO =        -0.00000001
  eigenvalues    EBANDS =     -3285.52768435
  atomic energy  EATOM  =     10876.16547012
  ---------------------------------------------------
  free energy    TOTEN  =      -624.99723771 eV

  energy without entropy =     -624.99723771  energy(sigma->0) =     -624.99723771
  exchange ACFDT corr.  =        -0.00000000  see jH, gK, PRB 81, 115126


--------------------------------------------------------------------------------------------------------




--------------------------------------- Iteration      1(   8)  ---------------------------------------


    POTLOK:  cpu time    1.0433: real time    1.0493
    SETDIJ:  cpu time    1.2287: real time    1.2364
    TRIAL :  cpu time  222.7175: real time  223.3957
    CORREC:  cpu time    0.0009: real time    0.0009
    CHARGE:  cpu time    1.2167: real time    1.2198
    --------------------------------------------
      LOOP:  cpu time  226.2085: real time  226.9084

 eigenvalue-minimisations  :     0
 total energy-change (2. order) :-0.2736350E-01  (-0.2198715E-01)
 number of electron     255.0000002 magnetization       1.0000000
 augmentation part       17.2668548 magnetization       1.1298459

 DIPCOR: dipole corrections for dipol
 direction  3 min pos     1,
 dipolmoment           0.016045      0.010630     -0.279997 electrons x Angstroem
 Tr[quadrupol]     -7238.623575

 energy correction for charged system         0.000000 eV
 dipol+quadrupol energy correction           -0.002270 eV
 added-field ion interaction          0.353125 eV  (added to PSCEN)


 Free energy of the ion-electron system (eV)
  ---------------------------------------------------
  alpha Z        PSCENC =       108.55563416
  Ewald energy   TEWEN  =     41214.60910477
  -Hartree energ DENC   =    -50658.27285973
  -exchange      EXHF   =       583.51843789
  -V(xc)+E(xc)   XCENC  =       667.87314451
  PAW double counting   =     28507.92120420   -28643.90267806
  entropy T*S    EENTRO =        -0.00000000
  eigenvalues    EBANDS =     -3281.49205907
  atomic energy  EATOM  =     10876.16547012
  ---------------------------------------------------
  free energy    TOTEN  =      -625.02460122 eV

  energy without entropy =     -625.02460121  energy(sigma->0) =     -625.02460122
  exchange ACFDT corr.  =        -0.00000000  see jH, gK, PRB 81, 115126


--------------------------------------------------------------------------------------------------------




--------------------------------------- Iteration      1(   9)  ---------------------------------------


    POTLOK:  cpu time    1.0407: real time    1.0460
    SETDIJ:  cpu time    1.2294: real time    1.2326
    TRIAL :  cpu time  222.3461: real time  223.0261
    CORREC:  cpu time    0.0008: real time    0.0008
    CHARGE:  cpu time    1.2165: real time    1.2198
    --------------------------------------------
      LOOP:  cpu time  225.8364: real time  226.5322

 eigenvalue-minimisations  :     0
 total energy-change (2. order) :-0.1968391E-01  (-0.1678731E-01)
 number of electron     255.0000002 magnetization       1.0000000
 augmentation part       17.2650015 magnetization       1.1434016

 DIPCOR: dipole corrections for dipol
 direction  3 min pos     1,
 dipolmoment           0.016102      0.010668     -0.280976 electrons x Angstroem
 Tr[quadrupol]     -7238.633675

 energy correction for charged system         0.000000 eV
 dipol+quadrupol energy correction           -0.002286 eV
 added-field ion interaction          0.354360 eV  (added to PSCEN)


 Free energy of the ion-electron system (eV)
  ---------------------------------------------------
  alpha Z        PSCENC =       108.55685317
  Ewald energy   TEWEN  =     41214.60910477
  -Hartree energ DENC   =    -50659.11447468
  -exchange      EXHF   =       583.60622871
  -V(xc)+E(xc)   XCENC  =       667.91419119
  PAW double counting   =     28519.38632779   -28655.34640748
  entropy T*S    EENTRO =        -0.00000000
  eigenvalues    EBANDS =     -3280.82157872
  atomic energy  EATOM  =     10876.16547012
  ---------------------------------------------------
  free energy    TOTEN  =      -625.04428513 eV

  energy without entropy =     -625.04428513  energy(sigma->0) =     -625.04428513
  exchange ACFDT corr.  =        -0.00000000  see jH, gK, PRB 81, 115126


--------------------------------------------------------------------------------------------------------




--------------------------------------- Iteration      1(  10)  ---------------------------------------


    POTLOK:  cpu time    1.0403: real time    1.0456
    SETDIJ:  cpu time    1.2253: real time    1.2286
    TRIAL :  cpu time  222.7005: real time  224.2145
    CORREC:  cpu time    0.0007: real time    0.0007
    CHARGE:  cpu time    1.2188: real time    1.2220
    --------------------------------------------
      LOOP:  cpu time  226.1877: real time  227.7174

 eigenvalue-minimisations  :     0
 total energy-change (2. order) :-0.1496105E-01  (-0.1343697E-01)
 number of electron     255.0000002 magnetization       1.0000000
 augmentation part       17.2723314 magnetization       1.1559930

 DIPCOR: dipole corrections for dipol
 direction  3 min pos     1,
 dipolmoment           0.016070      0.010646     -0.280419 electrons x Angstroem
 Tr[quadrupol]     -7238.625789

 energy correction for charged system         0.000000 eV
 dipol+quadrupol energy correction           -0.002277 eV
 added-field ion interaction          0.353657 eV  (added to PSCEN)


 Free energy of the ion-electron system (eV)
  ---------------------------------------------------
  alpha Z        PSCENC =       108.55615880
  Ewald energy   TEWEN  =     41214.60910477
  -Hartree energ DENC   =    -50658.61534138
  -exchange      EXHF   =       583.64749105
  -V(xc)+E(xc)   XCENC  =       667.91722737
  PAW double counting   =     28524.60475680   -28660.40310330
  entropy T*S    EENTRO =        -0.00000000
  eigenvalues    EBANDS =     -3281.54101041
  atomic energy  EATOM  =     10876.16547012
  ---------------------------------------------------
  free energy    TOTEN  =      -625.05924618 eV

  energy without entropy =     -625.05924618  energy(sigma->0) =     -625.05924618
  exchange ACFDT corr.  =        -0.00000000  see jH, gK, PRB 81, 115126


--------------------------------------------------------------------------------------------------------




--------------------------------------- Iteration      1(  11)  ---------------------------------------


    POTLOK:  cpu time    1.0400: real time    1.0443
    SETDIJ:  cpu time    1.2248: real time    1.2288
    TRIAL :  cpu time  223.2302: real time  223.9499
    CORREC:  cpu time    0.0008: real time    0.0008
    CHARGE:  cpu time    1.2138: real time    1.2178
    --------------------------------------------
      LOOP:  cpu time  226.7110: real time  227.4476

 eigenvalue-minimisations  :     0
 total energy-change (2. order) :-0.1207867E-01  (-0.1063442E-01)
 number of electron     255.0000002 magnetization       1.0000000
 augmentation part       17.2715462 magnetization       1.1685266

 DIPCOR: dipole corrections for dipol
 direction  3 min pos     1,
 dipolmoment           0.015887      0.010525     -0.277229 electrons x Angstroem
 Tr[quadrupol]     -7238.613362

 energy correction for charged system         0.000000 eV
 dipol+quadrupol energy correction           -0.002225 eV
 added-field ion interaction          0.349634 eV  (added to PSCEN)


 Free energy of the ion-electron system (eV)
  ---------------------------------------------------
  alpha Z        PSCENC =       108.55218750
  Ewald energy   TEWEN  =     41214.60910477
  -Hartree energ DENC   =    -50659.03317548
  -exchange      EXHF   =       583.70459869
  -V(xc)+E(xc)   XCENC  =       667.95306815
  PAW double counting   =     28527.42814552   -28663.45451542
  entropy T*S    EENTRO =        -0.00000000
  eigenvalues    EBANDS =     -3280.99620870
  atomic energy  EATOM  =     10876.16547012
  ---------------------------------------------------
  free energy    TOTEN  =      -625.07132485 eV

  energy without entropy =     -625.07132485  energy(sigma->0) =     -625.07132485
  exchange ACFDT corr.  =        -0.00000000  see jH, gK, PRB 81, 115126


--------------------------------------------------------------------------------------------------------




--------------------------------------- Iteration      1(  12)  ---------------------------------------


    POTLOK:  cpu time    1.0428: real time    1.0470
    SETDIJ:  cpu time    1.2082: real time    1.2121
    TRIAL :  cpu time  222.7218: real time  223.4878
    CORREC:  cpu time    0.0009: real time    0.0009
    CHARGE:  cpu time    1.2208: real time    1.2241
    --------------------------------------------
      LOOP:  cpu time  226.1967: real time  226.9780

 eigenvalue-minimisations  :     0
 total energy-change (2. order) :-0.9930250E-02  (-0.8843265E-02)
 number of electron     255.0000002 magnetization       1.0000000
 augmentation part       17.2721556 magnetization       1.1806004

 DIPCOR: dipole corrections for dipol
 direction  3 min pos     1,
 dipolmoment           0.015679      0.010387     -0.273597 electrons x Angstroem
 Tr[quadrupol]     -7238.597091

 energy correction for charged system         0.000000 eV
 dipol+quadrupol energy correction           -0.002167 eV
 added-field ion interaction          0.345053 eV  (added to PSCEN)


 Free energy of the ion-electron system (eV)
  ---------------------------------------------------
  alpha Z        PSCENC =       108.54766488
  Ewald energy   TEWEN  =     41214.60910477
  -Hartree energ DENC   =    -50658.45210231
  -exchange      EXHF   =       583.73124737
  -V(xc)+E(xc)   XCENC  =       667.95596333
  PAW double counting   =     28528.25557481   -28664.21414618
  entropy T*S    EENTRO =        -0.00000000
  eigenvalues    EBANDS =     -3281.68003190
  atomic energy  EATOM  =     10876.16547012
  ---------------------------------------------------
  free energy    TOTEN  =      -625.08125510 eV

  energy without entropy =     -625.08125510  energy(sigma->0) =     -625.08125510
  exchange ACFDT corr.  =        -0.00000000  see jH, gK, PRB 81, 115126


--------------------------------------------------------------------------------------------------------




--------------------------------------- Iteration      1(  13)  ---------------------------------------


    POTLOK:  cpu time    1.0442: real time    1.0502
    SETDIJ:  cpu time    1.2181: real time    1.2214
    TRIAL :  cpu time  222.6433: real time  223.2913
    CORREC:  cpu time    0.0010: real time    0.0010
    CHARGE:  cpu time    1.2142: real time    1.2175
    --------------------------------------------
      LOOP:  cpu time  226.1223: real time  226.7875

 eigenvalue-minimisations  :     0
 total energy-change (2. order) :-0.8392055E-02  (-0.7661021E-02)
 number of electron     255.0000002 magnetization       1.0000000
 augmentation part       17.2747674 magnetization       1.1920130

 DIPCOR: dipole corrections for dipol
 direction  3 min pos     1,
 dipolmoment           0.015452      0.010237     -0.269636 electrons x Angstroem
 Tr[quadrupol]     -7238.581642

 energy correction for charged system         0.000000 eV
 dipol+quadrupol energy correction           -0.002105 eV
 added-field ion interaction          0.340058 eV  (added to PSCEN)


 Free energy of the ion-electron system (eV)
  ---------------------------------------------------
  alpha Z        PSCENC =       108.54273177
  Ewald energy   TEWEN  =     41214.60910477
  -Hartree energ DENC   =    -50658.13364388
  -exchange      EXHF   =       583.76009216
  -V(xc)+E(xc)   XCENC  =       667.96563730
  PAW double counting   =     28528.96615856   -28664.91757254
  entropy T*S    EENTRO =        -0.00000000
  eigenvalues    EBANDS =     -3282.04762542
  atomic energy  EATOM  =     10876.16547012
  ---------------------------------------------------
  free energy    TOTEN  =      -625.08964716 eV

  energy without entropy =     -625.08964716  energy(sigma->0) =     -625.08964716
  exchange ACFDT corr.  =        -0.00000000  see jH, gK, PRB 81, 115126


--------------------------------------------------------------------------------------------------------




--------------------------------------- Iteration      1(  14)  ---------------------------------------


    POTLOK:  cpu time    1.0357: real time    1.0476
    SETDIJ:  cpu time    1.2271: real time    1.2304
    TRIAL :  cpu time  222.3261: real time  223.1143
    CORREC:  cpu time    0.0007: real time    0.0007
    CHARGE:  cpu time    1.2126: real time    1.2165
    --------------------------------------------
      LOOP:  cpu time  225.8040: real time  226.6162

 eigenvalue-minimisations  :     0
 total energy-change (2. order) :-0.7305664E-02  (-0.6743952E-02)
 number of electron     255.0000002 magnetization       1.0000000
 augmentation part       17.2750508 magnetization       1.2032297

 DIPCOR: dipole corrections for dipol
 direction  3 min pos     1,
 dipolmoment           0.015216      0.010081     -0.265530 electrons x Angstroem
 Tr[quadrupol]     -7238.566710

 energy correction for charged system         0.000000 eV
 dipol+quadrupol energy correction           -0.002041 eV
 added-field ion interaction          0.334880 eV  (added to PSCEN)


 Free energy of the ion-electron system (eV)
  ---------------------------------------------------
  alpha Z        PSCENC =       108.53761741
  Ewald energy   TEWEN  =     41214.60910477
  -Hartree energ DENC   =    -50658.11045989
  -exchange      EXHF   =       583.79283642
  -V(xc)+E(xc)   XCENC  =       667.98337776
  PAW double counting   =     28530.02718359   -28666.05098817
  entropy T*S    EENTRO =        -0.00000000
  eigenvalues    EBANDS =     -3282.05109483
  atomic energy  EATOM  =     10876.16547012
  ---------------------------------------------------
  free energy    TOTEN  =      -625.09695282 eV

  energy without entropy =     -625.09695282  energy(sigma->0) =     -625.09695282
  exchange ACFDT corr.  =        -0.00000000  see jH, gK, PRB 81, 115126


--------------------------------------------------------------------------------------------------------




--------------------------------------- Iteration      1(  15)  ---------------------------------------


    POTLOK:  cpu time    1.0348: real time    1.0405
    SETDIJ:  cpu time    1.2276: real time    1.2314
    TRIAL :  cpu time  222.4487: real time  223.1736
    CORREC:  cpu time    0.0008: real time    0.0008
    CHARGE:  cpu time    1.2193: real time    1.2225
    --------------------------------------------
      LOOP:  cpu time  225.9346: real time  226.6764

 eigenvalue-minimisations  :     0
 total energy-change (2. order) :-0.6485140E-02  (-0.6018482E-02)
 number of electron     255.0000002 magnetization       1.0000000
 augmentation part       17.2755626 magnetization       1.2138239

 DIPCOR: dipole corrections for dipol
 direction  3 min pos     1,
 dipolmoment           0.014995      0.009934     -0.261658 electrons x Angstroem
 Tr[quadrupol]     -7238.550743

 energy correction for charged system         0.000000 eV
 dipol+quadrupol energy correction           -0.001982 eV
 added-field ion interaction          0.329997 eV  (added to PSCEN)


 Free energy of the ion-electron system (eV)
  ---------------------------------------------------
  alpha Z        PSCENC =       108.53279326
  Ewald energy   TEWEN  =     41214.60910477
  -Hartree energ DENC   =    -50657.80605396
  -exchange      EXHF   =       583.81589179
  -V(xc)+E(xc)   XCENC  =       667.99096525
  PAW double counting   =     28531.19750216   -28667.20865774
  entropy T*S    EENTRO =        -0.00000000
  eigenvalues    EBANDS =     -3282.40045363
  atomic energy  EATOM  =     10876.16547012
  ---------------------------------------------------
  free energy    TOTEN  =      -625.10343796 eV

  energy without entropy =     -625.10343796  energy(sigma->0) =     -625.10343796
  exchange ACFDT corr.  =        -0.00000000  see jH, gK, PRB 81, 115126


--------------------------------------------------------------------------------------------------------




--------------------------------------- Iteration      1(  16)  ---------------------------------------


    POTLOK:  cpu time    1.0366: real time    1.0403
    SETDIJ:  cpu time    1.2272: real time    1.2306
    TRIAL :  cpu time  222.3627: real time  223.0266
    CORREC:  cpu time    0.0008: real time    0.0008
    CHARGE:  cpu time    1.2152: real time    1.2184
    --------------------------------------------
      LOOP:  cpu time  225.8459: real time  226.5241

 eigenvalue-minimisations  :     0
 total energy-change (2. order) :-0.5814991E-02  (-0.5430805E-02)
 number of electron     255.0000002 magnetization       1.0000000
 augmentation part       17.2765708 magnetization       1.2236843

 DIPCOR: dipole corrections for dipol
 direction  3 min pos     1,
 dipolmoment           0.014764      0.009781     -0.257636 electrons x Angstroem
 Tr[quadrupol]     -7238.534038

 energy correction for charged system         0.000000 eV
 dipol+quadrupol energy correction           -0.001922 eV
 added-field ion interaction          0.324924 eV  (added to PSCEN)


 Free energy of the ion-electron system (eV)
  ---------------------------------------------------
  alpha Z        PSCENC =       108.52778063
  Ewald energy   TEWEN  =     41214.60910477
  -Hartree energ DENC   =    -50657.52680183
  -exchange      EXHF   =       583.83795979
  -V(xc)+E(xc)   XCENC  =       667.99923681
  PAW double counting   =     28532.58362341   -28668.59939665
  entropy T*S    EENTRO =        -0.00000000
  eigenvalues    EBANDS =     -3282.70623001
  atomic energy  EATOM  =     10876.16547012
  ---------------------------------------------------
  free energy    TOTEN  =      -625.10925295 eV

  energy without entropy =     -625.10925295  energy(sigma->0) =     -625.10925295
  exchange ACFDT corr.  =        -0.00000000  see jH, gK, PRB 81, 115126


--------------------------------------------------------------------------------------------------------




--------------------------------------- Iteration      1(  17)  ---------------------------------------


    POTLOK:  cpu time    1.0389: real time    1.0454
    SETDIJ:  cpu time    1.2267: real time    1.2300
    TRIAL :  cpu time  222.4823: real time  223.1949
    CORREC:  cpu time    0.0007: real time    0.0007
    CHARGE:  cpu time    1.2141: real time    1.2185
    --------------------------------------------
      LOOP:  cpu time  225.9655: real time  226.6968

 eigenvalue-minimisations  :     0
 total energy-change (2. order) :-0.5257780E-02  (-0.4930954E-02)
 number of electron     255.0000002 magnetization       1.0000000
 augmentation part       17.2767444 magnetization       1.2332548

 DIPCOR: dipole corrections for dipol
 direction  3 min pos     1,
 dipolmoment           0.014522      0.009621     -0.253416 electrons x Angstroem
 Tr[quadrupol]     -7238.516709

 energy correction for charged system         0.000000 eV
 dipol+quadrupol energy correction           -0.001859 eV
 added-field ion interaction          0.319602 eV  (added to PSCEN)


 Free energy of the ion-electron system (eV)
  ---------------------------------------------------
  alpha Z        PSCENC =       108.52252151
  Ewald energy   TEWEN  =     41214.60910477
  -Hartree energ DENC   =    -50657.30181113
  -exchange      EXHF   =       583.86017379
  -V(xc)+E(xc)   XCENC  =       668.00928144
  PAW double counting   =     28534.05779259   -28670.10244161
  entropy T*S    EENTRO =        -0.00000000
  eigenvalues    EBANDS =     -3282.93460220
  atomic energy  EATOM  =     10876.16547012
  ---------------------------------------------------
  free energy    TOTEN  =      -625.11451073 eV

[...]
  energy-cutoff  :      500.00
  volume of cell :     3176.88
      direct lattice vectors                 reciprocal lattice vectors
    12.902172049 -0.009244081 -0.443158246     0.077661479  0.001131943  0.004493427
    -0.193236968 12.313512608  0.237875378     0.000164297  0.081154470  0.003090515
    -1.147373265 -0.760150663 20.021947986     0.001716978 -0.000939120  0.050007928

  length of vectors
    12.909783819 12.317325926 20.069197682     0.077799598  0.081213461  0.050046207


 FORCES acting on ions:
    Electron-Ion                     Ewald-Force                    Non-Local-Force
 -----------------------------------------------------------------------------------------------
   0.654E+01 -.859E+01 0.316E+01   -.677E+01 0.893E+01 -.317E+01   0.202E+00 -.268E+00 -.645E-03
   0.546E+01 -.203E+01 0.380E+01   -.539E+01 0.203E+01 -.382E+01   -.418E-01 -.889E-03 0.161E-01
   0.426E+01 -.473E+01 0.148E+01   -.432E+01 0.476E+01 -.147E+01   0.499E-01 -.265E-01 -.328E-01
   0.783E+01 0.914E+00 0.505E+01   -.797E+01 -.870E+00 -.503E+01   0.117E+00 -.924E-01 -.267E-01
   0.816E+01 0.114E+02 0.658E+01   -.821E+01 -.113E+02 -.659E+01   -.661E-02 -.164E+00 0.747E-02
   0.950E+01 0.117E+02 0.113E+02   -.945E+01 -.119E+02 -.114E+02   -.207E-01 0.310E+00 0.344E-01
   0.457E+01 0.110E+02 0.616E+01   -.444E+01 -.111E+02 -.615E+01   -.602E-01 0.852E-01 -.829E-02
   0.210E+02 0.318E+02 0.150E+02   -.211E+02 -.319E+02 -.150E+02   -.487E-02 -.191E-01 0.259E-01
   0.370E+02 0.597E+02 0.227E+02   -.382E+02 -.627E+02 -.226E+02   0.132E+01 0.322E+01 -.367E-01
   0.212E+02 0.111E+02 0.143E+02   -.216E+02 -.113E+02 -.142E+02   0.348E+00 0.179E+00 -.272E-01
   0.206E+02 0.202E+02 0.163E+02   -.208E+02 -.205E+02 -.163E+02   0.157E+00 0.240E+00 0.407E-01
   0.642E+02 -.263E+02 0.298E+02   -.660E+02 0.288E+02 -.298E+02   0.177E+01 -.261E+01 -.124E-01
   0.181E+02 -.789E+01 0.972E+01   -.183E+02 0.827E+01 -.971E+01   0.140E+00 -.309E+00 -.830E-02
   0.374E+02 -.848E+01 0.155E+02   -.379E+02 0.877E+01 -.155E+02   0.497E+00 -.224E+00 -.212E-01
   0.577E+02 -.451E+02 0.289E+02   -.608E+02 0.453E+02 -.289E+02   0.325E+01 -.181E+00 0.278E-01
   0.250E+02 -.308E+02 0.125E+02   -.256E+02 0.311E+02 -.125E+02   0.484E+00 -.331E+00 -.906E-02
   0.949E+01 -.115E+02 0.327E+01   -.958E+01 0.117E+02 -.329E+01   0.518E-01 -.121E+00 0.107E-01
   0.149E+02 -.171E+02 0.729E+01   -.153E+02 0.172E+02 -.727E+01   0.355E+00 -.756E-01 -.243E-01
   0.760E+01 -.278E+02 0.741E+01   -.763E+01 0.282E+02 -.738E+01   0.794E-01 -.443E+00 -.411E-01
   -.693E+01 -.103E+01 0.117E+02   0.708E+01 0.983E+00 -.117E+02   -.114E+00 0.932E-01 -.175E-01
   0.118E+01 0.109E+02 0.106E+02   -.140E+01 -.110E+02 -.106E+02   0.220E+00 0.142E+00 0.134E-02
   0.177E+00 -.109E+02 0.113E+02   0.368E-01 0.111E+02 -.113E+02   -.222E+00 -.147E+00 0.522E-01
   -.575E+01 0.858E+01 0.149E+02   0.598E+01 -.891E+01 -.149E+02   -.201E+00 0.267E+00 0.332E-01
   -.618E+01 0.277E+02 0.211E+02   0.622E+01 -.281E+02 -.211E+02   -.854E-01 0.448E+00 -.209E-01
   0.319E+02 0.641E+02 0.254E+02   -.339E+02 -.667E+02 -.252E+02   0.218E+01 0.279E+01 -.983E-01
   0.730E+01 0.252E+02 0.191E+02   -.737E+01 -.256E+02 -.191E+02   0.122E+00 0.264E+00 0.414E-01
   -.230E+02 0.304E+02 0.346E+02   0.235E+02 -.307E+02 -.346E+02   -.480E+00 0.326E+00 0.683E-01
   -.534E+02 0.438E+02 0.548E+02   0.566E+02 -.440E+02 -.551E+02   -.323E+01 0.172E+00 0.364E+00
   -.606E+02 0.245E+02 0.572E+02   0.624E+02 -.270E+02 -.575E+02   -.176E+01 0.261E+01 0.344E+00
   -.344E+02 -.618E+02 0.317E+02   0.356E+02 0.648E+02 -.315E+02   -.133E+01 -.322E+01 -.799E-01
   -.187E+02 -.330E+02 0.197E+02   0.187E+02 0.331E+02 -.197E+02   -.524E-03 0.991E-02 0.360E-01
   -.544E+01 -.255E+02 0.135E+02   0.552E+01 0.259E+02 -.135E+02   -.116E+00 -.267E+00 0.291E-01
   -.286E+02 -.650E+02 0.230E+02   0.306E+02 0.676E+02 -.230E+02   -.218E+01 -.279E+01 0.316E-01
   -.697E+01 -.121E+02 0.128E+02   0.702E+01 0.119E+02 -.129E+02   0.166E-02 0.168E+00 0.377E-01
   0.230E+01 -.440E+01 0.635E+01   -.231E+01 0.448E+01 -.638E+01   0.259E-01 -.376E-01 0.162E-01
   -.382E+01 0.459E+01 0.137E+02   0.389E+01 -.461E+01 -.137E+02   -.547E-01 0.267E-01 0.538E-02
   -.526E+01 0.181E+01 0.965E+01   0.521E+01 -.181E+01 -.965E+01   0.461E-01 0.478E-02 0.278E-02
   -.227E+01 0.421E+01 0.676E+01   0.229E+01 -.429E+01 -.676E+01   -.263E-01 0.260E-01 -.530E-03
   -.196E+01 0.518E+01 0.128E+02   0.194E+01 -.524E+01 -.128E+02   -.341E-01 0.620E-01 0.218E-01
   -.140E+02 0.168E+02 0.283E+02   0.144E+02 -.168E+02 -.283E+02   -.348E+00 0.812E-01 0.410E-01
   -.914E+01 0.114E+02 0.180E+02   0.924E+01 -.115E+02 -.180E+02   -.530E-01 0.120E+00 0.111E-01
   -.255E+01 0.919E+01 0.139E+02   0.261E+01 -.929E+01 -.139E+02   -.577E-01 0.998E-01 0.622E-02
   -.482E+01 0.878E+01 0.189E+02   0.489E+01 -.880E+01 -.189E+02   -.458E-01 0.512E-01 0.900E-02
   -.364E+02 0.746E+01 0.361E+02   0.369E+02 -.776E+01 -.361E+02   -.491E+00 0.227E+00 0.416E-01
   -.176E+02 0.738E+01 0.283E+02   0.177E+02 -.776E+01 -.284E+02   -.144E+00 0.306E+00 0.202E-01
   0.485E+01 -.240E+00 0.153E+02   -.496E+01 0.227E+00 -.153E+02   0.161E+00 -.342E-01 0.110E-01
   -.501E+01 -.474E+00 0.152E+02   0.514E+01 0.487E+00 -.152E+02   -.158E+00 0.376E-01 0.135E-01
   -.200E+02 -.215E+02 0.234E+02   0.203E+02 0.218E+02 -.234E+02   -.148E+00 -.242E+00 0.348E-01
   -.209E+02 -.121E+02 0.233E+02   0.213E+02 0.123E+02 -.233E+02   -.351E+00 -.176E+00 -.779E-02
   0.483E+01 -.932E+01 0.909E+01   -.490E+01 0.934E+01 -.909E+01   0.426E-01 -.464E-01 -.208E-01
   0.255E+01 -.975E+01 0.822E+01   -.260E+01 0.985E+01 -.824E+01   0.574E-01 -.958E-01 0.168E-01
   -.422E+01 -.116E+02 0.109E+02   0.410E+01 0.117E+02 -.109E+02   0.645E-01 -.881E-01 -.602E-02
   -.933E+01 -.125E+02 0.129E+02   0.931E+01 0.128E+02 -.129E+02   0.324E-01 -.312E+00 0.506E-02
   0.211E+01 -.544E+01 0.467E+01   -.209E+01 0.550E+01 -.466E+01   0.331E-01 -.668E-01 -.757E-02
   0.387E+02 0.437E+02 0.532E+02   -.191E+02 -.429E+02 -.534E+02   -.189E+02 -.952E+00 0.302E+00
   0.263E+02 0.512E+02 0.606E+02   -.360E+02 -.336E+02 -.591E+02   0.916E+01 -.171E+02 -.141E+01
   -.320E+02 -.475E+02 0.727E+02   0.124E+02 0.467E+02 -.716E+02   0.188E+02 0.967E+00 -.101E+01
   -.189E+02 -.537E+02 0.484E+02   0.287E+02 0.361E+02 -.484E+02   -.923E+01 0.171E+02 0.672E-01
   0.972E+01 -.326E+01 0.104E+03   -.969E+01 0.324E+01 -.103E+03   -.959E-01 0.476E-01 -.179E+01
   -.546E+02 0.273E+02 -.124E+04   0.539E+02 -.270E+02 0.123E+04   0.661E+00 -.235E+00 0.909E+01
 -----------------------------------------------------------------------------------------------
   -.287E+00 0.230E+00 -.643E+01   -.568E-13 0.313E-12 -.227E-12   0.500E+00 -.171E+00 0.619E+01
 
 
 POSITION                                       TOTAL-FORCE (eV/Angst)
 -----------------------------------------------------------------------------------
      2.29946     -0.34279      9.91790        -0.019697      0.054245     -0.009965
      0.15125      0.87583      9.99340         0.021203     -0.006677     -0.009488
      0.86663     -0.35374      9.96072        -0.014846     -0.004632     -0.022604
      3.01660      0.89634      9.91221        -0.016310     -0.059078     -0.010313
      2.31268      2.15472      9.96238        -0.071004     -0.002499     -0.010637
      0.13366      3.34041     10.02142         0.021247      0.065201      0.000082
      0.87334      2.11970      9.99467         0.060561     -0.057932     -0.007045
      3.03286      3.41810      9.97180        -0.048897     -0.058802     -0.001936
      2.26750      4.65674     10.02202         0.200382      0.421198      0.014113
      0.04620      5.79560     10.07144        -0.043329     -0.000897     -0.000386
      0.82595      4.59211     10.03311        -0.103544     -0.071326      0.008952
      2.11417      7.05646     10.06811         0.058596     -0.241593      0.014746
     -0.02395      8.27081     10.13402         0.018409      0.052538     -0.007656
      0.71055      7.04709     10.08974         0.093097      0.052807     -0.011606
      2.81037      8.29294     10.07446         0.296318      0.008780      0.025596
      2.09601      9.50997     10.10915        -0.029356     -0.028958     -0.007148
     -0.04946     10.72721     10.19250        -0.041328      0.006932     -0.012373
      0.67163      9.50287     10.14698        -0.015197     -0.049521     -0.007538
      2.82171     10.73173     10.10931         0.048391     -0.076293     -0.011159
      6.39526     11.87145      9.96600         0.024864      0.057596     -0.000006
      4.44447      0.85736      9.84456         0.008976      0.020332     -0.002350
      4.96757     11.91061     10.03104        -0.018556     -0.028020      0.002989
      7.30489      0.79736      9.70351         0.020949     -0.057140      0.002067
      6.58938      2.03621      9.74646        -0.054591      0.090188      0.013644
      4.48053      3.37712      9.90599         0.252962      0.382664      0.007596
      5.16278      2.09594      9.82702         0.059929     -0.116042      0.003689
      7.31369      3.25877      9.71482         0.026319      0.019527      0.019303
      6.60066      4.47522      9.78414        -0.281339     -0.012481      0.089310
      7.29630      5.71207      9.77351        -0.047370      0.230877      0.079614
      7.14553      8.11081      9.87530        -0.197734     -0.417302      0.026413
      6.38139      9.34913      9.94625         0.026943      0.045399      0.007169
      4.24918     10.67174     10.05093        -0.052889      0.121687      0.011488
      4.93381      9.38996     10.02128        -0.249871     -0.403211      0.016558
      7.09982     10.61281      9.92307         0.054829      0.019953      0.006129
     10.69658     11.91851      9.81679         0.018398      0.029001     -0.007464
      8.73728      0.80864      9.64621         0.007974      0.005734      0.003547
      9.25925     11.89260      9.85357        -0.009312      0.015610      0.001139
     11.61590      0.84146      9.57636        -0.020594     -0.044825     -0.004486
     10.88970      2.06465      9.59717        -0.051654      0.000081      0.005736
      8.73723      3.26601      9.65314         0.028261      0.065290      0.023776
      9.45928      2.04158      9.62683         0.037539     -0.005930      0.010316
     11.60035      3.30520      9.59799        -0.013119      0.012271     -0.001998
     10.85423      4.52055      9.62736         0.018405      0.037955      0.002321
      8.69840      5.72223      9.70553        -0.081432     -0.048415      0.016073
      9.43285      4.49871      9.65167        -0.029060     -0.064488      0.015899
     11.53016      5.76741      9.64803         0.050463     -0.056982     -0.000953
     10.78097      6.99265      9.69728        -0.047387      0.059661     -0.001286
      8.58424      8.17680      9.79735         0.120074      0.064794      0.013420
      9.36319      6.97366      9.72974         0.034545     -0.001302      0.011672
     11.45709      8.23943      9.72136        -0.024311     -0.030764     -0.015842
     10.71155      9.45451      9.77050         0.008673     -0.003011     -0.005955
      8.53754     10.64868      9.86182        -0.049495      0.053658      0.011271
      9.27622      9.42841      9.80918         0.002594     -0.066822     -0.002784
     11.42247     10.69522      9.78152         0.044654     -0.005478     -0.007830
      2.88575      5.90200     10.05256        -0.935717     -0.260811      0.092387
      5.22606      4.54902      9.91308         0.311956     -0.962028     -0.010631
      6.52942      6.86432      9.88555         0.929936      0.251952      0.031767
      4.19078      8.21658     10.06218        -0.298232      0.976931      0.062783
      4.71699      6.37882     10.13839        -0.059069      0.023826     -0.769626
      4.87111      6.31725     12.46497         0.017790     -0.003428      0.309497
 -----------------------------------------------------------------------------------
    total drift:                                0.243481      0.048419      0.084028


--------------------------------------------------------------------------------------------------------



  FREE ENERGIE OF THE ION-ELECTRON SYSTEM (eV)
  ---------------------------------------------------
  free  energy   TOTEN  =      -625.16279610 eV

  energy  without entropy=     -625.16279610  energy(sigma->0) =     -625.16279610
 


--------------------------------------------------------------------------------------------------------


    POTLOK:  cpu time    2.2184: real time    2.2344


--------------------------------------------------------------------------------------------------------


 stress matrix after NEB project (eV)
    -46.30932     -0.93670      1.52855
     -0.93668    -46.10485     -0.82186
      1.52896     -0.82228      0.05865
  FORCES: max atom, RMS     1.023366    0.316999
  FORCE total and by dimension    2.455461    0.976931
  Stress total and by dimension   65.406381   46.309322
 writing wavefunctions
     LOOP+:  cpu time12699.9944: real time12751.0791
 vacuum level on the upper side and lower side of the slab         1.409         1.614
    4ORBIT:  cpu time    0.0000: real time    0.0000
 


 total charge     
 
# of ion       s       p       d       tot
------------------------------------------
    1        0.863   1.763   0.000   2.626
    2        0.864   1.757   0.000   2.621
    3        0.865   1.771   0.000   2.636
    4        0.862   1.756   0.000   2.618
    5        0.857   1.730   0.000   2.586
    6        0.864   1.762   0.000   2.626
    7        0.861   1.758   0.000   2.619
    8        0.848   1.741   0.000   2.588
    9        0.851   1.697   0.000   2.548
   10        0.869   1.777   0.000   2.646
   11        0.862   1.759   0.000   2.622
   12        0.867   1.769   0.000   2.636
   13        0.868   1.787   0.000   2.655
   14        0.873   1.796   0.000   2.669
   15        0.868   1.767   0.000   2.634
   16        0.871   1.792   0.000   2.662
   17        0.866   1.771   0.000   2.637
   18        0.869   1.788   0.000   2.656
   19        0.868   1.766   0.000   2.634
   20        0.862   1.756   0.000   2.618
   21        0.861   1.750   0.000   2.611
   22        0.861   1.750   0.000   2.611
   23        0.863   1.763   0.000   2.626
   24        0.867   1.766   0.000   2.633
   25        0.851   1.697   0.000   2.548
   26        0.861   1.755   0.000   2.615
   27        0.871   1.791   0.000   2.662
   28        0.868   1.767   0.000   2.634
   29        0.867   1.769   0.000   2.636
   30        0.851   1.697   0.000   2.548
   31        0.848   1.741   0.000   2.589
   32        0.861   1.755   0.000   2.615
   33        0.851   1.697   0.000   2.548
   34        0.857   1.730   0.000   2.587
   35        0.864   1.763   0.000   2.627
   36        0.865   1.771   0.000   2.637
   37        0.864   1.758   0.000   2.621
   38        0.864   1.763   0.000   2.628
   39        0.866   1.770   0.000   2.636
   40        0.869   1.787   0.000   2.656
   41        0.866   1.771   0.000   2.637
   42        0.865   1.765   0.000   2.630
   43        0.870   1.778   0.000   2.648
   44        0.873   1.796   0.000   2.669
   45        0.868   1.787   0.000   2.654
   46        0.866   1.781   0.000   2.648
   47        0.866   1.781   0.000   2.648
   48        0.862   1.760   0.000   2.622
   49        0.869   1.777   0.000   2.646
   50        0.870   1.778   0.000   2.648
   51        0.865   1.765   0.000   2.629
   52        0.861   1.759   0.000   2.620
   53        0.864   1.762   0.000   2.626
   54        0.866   1.770   0.000   2.636
   55        1.231   2.659   0.000   3.890
   56        1.234   2.654   0.000   3.887
   57        1.231   2.659   0.000   3.890
   58        1.234   2.653   0.000   3.887
   59        0.478   0.689   6.346   7.513
   60        0.416   0.039   9.450   9.904
--------------------------------------------------
tot         52.463 106.485  15.796 174.744
 


 magnetization (x)
 
# of ion       s       p       d       tot
------------------------------------------
    1        0.000   0.001   0.000   0.001
    2        0.000  -0.000   0.000  -0.000
    3       -0.000  -0.002   0.000  -0.002
    4       -0.000  -0.001   0.000  -0.001
    5        0.000   0.001   0.000   0.001
    6       -0.000  -0.001   0.000  -0.001
    7       -0.000  -0.001   0.000  -0.001
    8       -0.000  -0.003   0.000  -0.003
    9       -0.000  -0.004   0.000  -0.004
   10       -0.000  -0.002   0.000  -0.002
   11       -0.000   0.001   0.000   0.001
   12        0.000   0.004   0.000   0.004
   13        0.000   0.001   0.000   0.001
   14       -0.000  -0.002   0.000  -0.002
   15       -0.000  -0.000   0.000  -0.000
   16       -0.000  -0.001   0.000  -0.001
   17        0.000   0.000   0.000   0.000
   18       -0.000  -0.001   0.000  -0.001
   19       -0.000  -0.002   0.000  -0.002
   20       -0.000  -0.001   0.000  -0.001
   21       -0.000  -0.001   0.000  -0.001
   22       -0.000  -0.001   0.000  -0.001
   23        0.000   0.001   0.000   0.001
   24       -0.000  -0.002   0.000  -0.002
   25       -0.000  -0.005   0.000  -0.006
   26        0.000   0.001   0.000   0.001
   27       -0.000  -0.001   0.000  -0.001
   28       -0.000   0.000   0.000  -0.000
   29        0.000   0.004   0.000   0.004
   30       -0.000  -0.004   0.000  -0.004
   31       -0.000  -0.003   0.000  -0.003
   32        0.000   0.001   0.000   0.001
   33       -0.000  -0.005   0.000  -0.006
   34        0.000   0.001   0.000   0.001
   35        0.000   0.000   0.000   0.000
   36       -0.000  -0.002   0.000  -0.002
   37        0.000  -0.000   0.000  -0.000
   38        0.000   0.000   0.000   0.000
   39       -0.000  -0.001   0.000  -0.001
   40       -0.000  -0.001   0.000  -0.001
   41        0.000   0.000   0.000   0.000
   42       -0.000  -0.000   0.000  -0.000
   43       -0.000  -0.002   0.000  -0.002
   44       -0.000  -0.002   0.000  -0.003
   45        0.000   0.001   0.000   0.001
   46        0.000   0.000   0.000   0.000
   47        0.000   0.000   0.000   0.000
   48       -0.000   0.001   0.000   0.001
   49       -0.000  -0.002   0.000  -0.002
   50       -0.000  -0.002   0.000  -0.002
   51       -0.000  -0.000   0.000  -0.000
   52       -0.000  -0.001   0.000  -0.001
   53       -0.000  -0.001   0.000  -0.001
   54       -0.000  -0.001   0.000  -0.001
   55       -0.005  -0.031   0.000  -0.036
   56       -0.005  -0.023   0.000  -0.028
   57       -0.005  -0.030   0.000  -0.035
   58       -0.005  -0.024   0.000  -0.029
   59        0.023   0.009   1.615   1.647
   60       -0.216   0.007   0.059  -0.150
--------------------------------------------------
tot         -0.216  -0.135   1.674   1.323
 

 total amount of memory used by VASP MPI-rank0   154971. kBytes
=======================================================================

   base      :      30000. kBytes
   nonl-proj :       4352. kBytes
   fftplans  :      11188. kBytes
   grid      :      29312. kBytes
   one-center:         62. kBytes
   HF        :         23. kBytes
   nonlr-proj:      15924. kBytes
   wavefun   :      64110. kBytes
 
  
  
 General timing and accounting informations for this job:
 ========================================================
  
                  Total CPU time used (sec):    12764.453
                            User time (sec):    12717.516
                          System time (sec):       46.937
                         Elapsed time (sec):    12822.875
  
                   Maximum memory used (kb):      392000.
                   Average memory used (kb):           0.
  
                          Minor page faults:       927456
                          Major page faults:            2
                 Voluntary context switches:       241281
