 vasp.5.4.4.18Apr17-6-g9f103f2a35 (build Feb 25 2019 10:51:38) complex          
  
 executed on             LinuxIFC date 2021.03.06  03:24:42
 running on   80 total cores
 distrk:  each k-point on   40 cores,    2 groups
 distr:  one band on NCORES_PER_BAND=  40 cores,    1 groups


--------------------------------------------------------------------------------------------------------


 INCAR:
 POTCAR:    PAW_PBE C 08Apr2002                   
 POTCAR:    PAW_PBE N 08Apr2002                   
 POTCAR:    PAW_PBE Fe 06Sep2000                  

 ----------------------------------------------------------------------------- 
|                                                                             |
|           W    W    AA    RRRRR   N    N  II  N    N   GGGG   !!!           |
|           W    W   A  A   R    R  NN   N  II  NN   N  G    G  !!!           |
|           W    W  A    A  R    R  N N  N  II  N N  N  G       !!!           |
|           W WW W  AAAAAA  RRRRR   N  N N  II  N  N N  G  GGG   !            |
|           WW  WW  A    A  R   R   N   NN  II  N   NN  G    G                |
|           W    W  A    A  R    R  N    N  II  N    N   GGGG   !!!           |
|                                                                             |
|      For optimal performance we recommend to set                            |
|        NCORE= 4 - approx SQRT( number of cores)                             |
|      NCORE specifies how many cores store one orbital (NPAR=cpu/NCORE).     |
|      This setting can  greatly improve the performance of VASP for DFT.     |
|      The default,   NCORE=1            might be grossly inefficient         |
|      on modern multi-core architectures or massively parallel machines.     |
|      Do your own testing !!!!                                               |
|      Unfortunately you need to use the default for GW and RPA calculations. |
|      (for HF NCORE is supported but not extensively tested yet)             |
|                                                                             |
 ----------------------------------------------------------------------------- 


 ----------------------------------------------------------------------------- 
|                                                                             |
|           W    W    AA    RRRRR   N    N  II  N    N   GGGG   !!!           |
|           W    W   A  A   R    R  NN   N  II  NN   N  G    G  !!!           |
|           W    W  A    A  R    R  N N  N  II  N N  N  G       !!!           |
|           W WW W  AAAAAA  RRRRR   N  N N  II  N  N N  G  GGG   !            |
|           WW  WW  A    A  R   R   N   NN  II  N   NN  G    G                |
|           W    W  A    A  R    R  N    N  II  N    N   GGGG   !!!           |
|                                                                             |
|      You have enabled k-point parallelism (KPAR>1).                         |
|      This developmental code was originally  written by Paul Kent at ORNL,  |
|      and carefully double checked in Vienna.                                |
|      GW as well as linear response parallelism added by Martijn Marsman     |
|      and Georg Kresse.                                                      |
|      Carefully verify results versus KPAR=1.                                |
|      Report problems to Paul Kent and Vienna.                               |
|                                                                             |
 ----------------------------------------------------------------------------- 

 POTCAR:    PAW_PBE C 08Apr2002                   
   VRHFIN =C: s2p2                                                              
   LEXCH  = PE                                                                  
   EATOM  =   147.1560 eV,   10.8157 Ry                                         
                                                                                
   TITEL  = PAW_PBE C 08Apr2002                                                 
   LULTRA =        F    use ultrasoft PP ?                                      
   IUNSCR =        1    unscreen: 0-lin 1-nonlin 2-no                           
   RPACOR =    1.200    partial core radius                                     
   POMASS =   12.011; ZVAL   =    4.000    mass and valenz                      
   RCORE  =    1.500    outmost cutoff radius                                   
   RWIGS  =    1.630; RWIGS  =    0.863    wigner-seitz radius (au A)           
   ENMAX  =  400.000; ENMIN  =  300.000 eV                                      
   ICORE  =        2    local potential                                         
   LCOR   =        T    correct aug charges                                     
   LPAW   =        T    paw PP                                                  
   EAUG   =  644.873                                                            
   DEXC   =    0.000                                                            
   RMAX   =    1.529    core radius for proj-oper                               
   RAUG   =    1.300    factor for augmentation sphere                          
   RDEP   =    1.501    radius for radial grids                                 
   RDEPT  =    1.300    core radius for aug-charge                              
                                                                                
   Atomic configuration                                                         
    4 entries                                                                   
     n  l   j            E        occ.                                          
     1  0  0.50      -273.3789   2.0000                                         
     2  0  0.50       -13.7508   2.0000                                         
     2  1  0.50        -5.2854   2.0000                                         
     3  2  1.50        -5.4423   0.0000                                         
   Description                                                                  
     l       E           TYP  RCUT    TYP  RCUT                                 
     0    -13.7508458     23  1.200                                             
     0     -8.2022199     23  1.200                                             
     1     -5.2854383     23  1.500                                             
     1     34.0145650     23  1.500                                             
     2     -5.4423304      7  1.500                                             
  local pseudopotential read in
  partial core-charges read in
  partial kinetic energy density read in
  atomic valenz-charges read in
  non local Contribution for L=           0  read in
    real space projection operators read in
  non local Contribution for L=           0  read in
    real space projection operators read in
  non local Contribution for L=           1  read in
    real space projection operators read in
  non local Contribution for L=           1  read in
    real space projection operators read in
    PAW grid and wavefunctions read in
 
   number of l-projection  operators is LMAX  =           4
   number of lm-projection operators is LMMAX =           8
 
 POTCAR:    PAW_PBE N 08Apr2002                   
   VRHFIN =N: s2p3                                                              
   LEXCH  = PE                                                                  
   EATOM  =   264.5486 eV,   19.4438 Ry                                         
                                                                                
   TITEL  = PAW_PBE N 08Apr2002                                                 
   LULTRA =        F    use ultrasoft PP ?                                      
   IUNSCR =        1    unscreen: 0-lin 1-nonlin 2-no                           
   RPACOR =    1.200    partial core radius                                     
   POMASS =   14.001; ZVAL   =    5.000    mass and valenz                      
   RCORE  =    1.500    outmost cutoff radius                                   
   RWIGS  =    1.400; RWIGS  =    0.741    wigner-seitz radius (au A)           
   ENMAX  =  400.000; ENMIN  =  300.000 eV                                      
   ICORE  =        2    local potential                                         
   LCOR   =        T    correct aug charges                                     
   LPAW   =        T    paw PP                                                  
   EAUG   =  627.112                                                            
   DEXC   =    0.000                                                            
   RMAX   =    1.529    core radius for proj-oper                               
   RAUG   =    1.300    factor for augmentation sphere                          
   RDEP   =    1.514    radius for radial grids                                 
   RDEPT  =    1.338    core radius for aug-charge                              
                                                                                
   Atomic configuration                                                         
    4 entries                                                                   
     n  l   j            E        occ.                                          
     1  0  0.50      -384.7179   2.0000                                         
     2  0  0.50       -18.5828   2.0000                                         
     2  1  0.50        -7.0898   3.0000                                         
     3  2  1.50        -6.8029   0.0000                                         
   Description                                                                  
     l       E           TYP  RCUT    TYP  RCUT                                 
     0    -18.5828119     23  1.200                                             
     0    -13.5018863     23  1.200                                             
     1     -7.0897853     23  1.500                                             
     1      9.5240782     23  1.500                                             
     2     -6.8029130      7  1.500                                             
  local pseudopotential read in
  partial core-charges read in
  partial kinetic energy density read in
  atomic valenz-charges read in
  non local Contribution for L=           0  read in
    real space projection operators read in
  non local Contribution for L=           0  read in
    real space projection operators read in
  non local Contribution for L=           1  read in
    real space projection operators read in
  non local Contribution for L=           1  read in
    real space projection operators read in
    PAW grid and wavefunctions read in
 
   number of l-projection  operators is LMAX  =           4
   number of lm-projection operators is LMMAX =           8
 
 POTCAR:    PAW_PBE Fe 06Sep2000                  
   VRHFIN =Fe:  d7 s1                                                           
   LEXCH  = PE                                                                  
   EATOM  =   594.3153 eV,   43.6809 Ry                                         
                                                                                
   TITEL  = PAW_PBE Fe 06Sep2000                                                
   LULTRA =        F    use ultrasoft PP ?                                      
   IUNSCR =        1    unscreen: 0-lin 1-nonlin 2-no                           
   RPACOR =    2.000    partial core radius                                     
   POMASS =   55.847; ZVAL   =    8.000    mass and valenz                      
   RCORE  =    2.300    outmost cutoff radius                                   
   RWIGS  =    2.460; RWIGS  =    1.302    wigner-seitz radius (au A)           
   ENMAX  =  267.882; ENMIN  =  200.911 eV                                      
   RCLOC  =    1.701    cutoff for local pot                                    
   LCOR   =        T    correct aug charges                                     
   LPAW   =        T    paw PP                                                  
   EAUG   =  511.368                                                            
   DEXC   =    0.000                                                            
   RMAX   =    2.356    core radius for proj-oper                               
   RAUG   =    1.300    factor for augmentation sphere                          
   RDEP   =    2.442    radius for radial grids                                 
   RDEPT  =    1.890    core radius for aug-charge                              
                                                                                
   Atomic configuration                                                         
    9 entries                                                                   
     n  l   j            E        occ.                                          
     1  0  0.50     -6993.8440   2.0000                                         
     2  0  0.50      -814.6047   2.0000                                         
     2  1  1.50      -693.3689   6.0000                                         
     3  0  0.50       -89.4732   2.0000                                         
     3  1  1.50       -55.6373   6.0000                                         
     3  2  2.50        -3.8151   7.0000                                         
     4  0  0.50        -4.2551   1.0000                                         
     4  1  1.50        -3.4015   0.0000                                         
     4  3  2.50        -1.3606   0.0000                                         
   Description                                                                  
     l       E           TYP  RCUT    TYP  RCUT                                 
     2     -3.8151135     23  2.300                                             
     2     -5.1756961     23  2.300                                             
     0     -4.2550963     23  2.300                                             
     0      7.2035603     23  2.300                                             
     1     -2.7211652     23  2.300                                             
     1     18.4316424     23  2.300                                             
  local pseudopotential read in
  partial core-charges read in
  partial kinetic energy density read in
  atomic valenz-charges read in
  non local Contribution for L=           2  read in
    real space projection operators read in
  non local Contribution for L=           2  read in
    real space projection operators read in
  non local Contribution for L=           0  read in
    real space projection operators read in
  non local Contribution for L=           0  read in
    real space projection operators read in
  non local Contribution for L=           1  read in
    real space projection operators read in
  non local Contribution for L=           1  read in
    real space projection operators read in
    PAW grid and wavefunctions read in
 
   number of l-projection  operators is LMAX  =           6
   number of lm-projection operators is LMMAX =          18
 

 ----------------------------------------------------------------------------- 
|                                                                             |
|  ADVICE TO THIS USER RUNNING 'VASP/VAMP'   (HEAR YOUR MASTER'S VOICE ...):  |
|                                                                             |
|      You have a (more or less) 'large supercell' and for larger cells       |
|      it might be more efficient to use real space projection opertators     |
|      So try LREAL= Auto  in the INCAR   file.                               |
|      Mind:          For very  accurate calculation you might also keep the  |
|      reciprocal projection scheme          (i.e. LREAL=.FALSE.)             |
|                                                                             |
 ----------------------------------------------------------------------------- 

  PAW_PBE C 08Apr2002                   :
 energy of atom  1       EATOM= -147.1560
 kinetic energy error for atom=    0.0076 (will be added to EATOM!!)
  PAW_PBE N 08Apr2002                   :
 energy of atom  2       EATOM= -264.5486
 kinetic energy error for atom=    0.0138 (will be added to EATOM!!)
  PAW_PBE Fe 06Sep2000                  :
 energy of atom  3       EATOM= -594.3153
 kinetic energy error for atom=    0.0026 (will be added to EATOM!!)
 
 
 POSCAR:  C  N Fe                                
  positions in cartesian coordinates
  No initial velocities read in
 exchange correlation table for  LEXCH =        8
   RHO(1)=    0.500       N(1)  =     2000
   RHO(2)=  100.500       N(2)  =     4000

 VTST: version 3.2, (02/03/18)

 CHAIN: initializing optimizer
 
 OPT: Using VASP Conjugate-Gradient optimizer
 CHAIN: Read ICHAIN            0
 
 POSCAR:  C  N Fe                                
  positions in cartesian coordinates
  No initial velocities read in
 


--------------------------------------------------------------------------------------------------------


 ion  position               nearest neighbor table
   1  0.221  0.999  0.500-   3 1.41   4 1.41  17 1.42
   2  0.055  0.100  0.500-  34 1.42   7 1.43   3 1.43
   3  0.110  0.999  0.500-   1 1.41  15 1.43   2 1.43
   4  0.277  0.096  0.500-  19 1.41   1 1.41   5 1.42
   5  0.223  0.195  0.500-   4 1.42   8 1.42   7 1.42
   6  0.057  0.300  0.500-   7 1.44  38 1.44  10 1.44
   7  0.111  0.198  0.500-   5 1.42   2 1.43   6 1.44
   8  0.281  0.291  0.500-  51 1.38  53 1.38   5 1.42
   9  0.064  0.498  0.500-  10 1.46  12 1.47  42 1.47
  10  0.119  0.396  0.499-  51 1.41   6 1.44   9 1.46
  11  0.058  0.699  0.500-  46 1.43  16 1.44  12 1.45
  12  0.119  0.601  0.500-  52 1.38  11 1.45   9 1.47
  13  0.278  0.704  0.501-  52 1.38  14 1.41  25 1.43
  14  0.223  0.802  0.501-  13 1.41  16 1.42  17 1.42
  15  0.056  0.899  0.500-  50 1.41  16 1.43   3 1.43
  16  0.111  0.800  0.500-  14 1.42  15 1.43  11 1.44
  17  0.278  0.900  0.500-  28 1.41  14 1.42   1 1.42
  18  0.556  0.999  0.500-  20 1.41  21 1.42  30 1.42
  19  0.389  0.096  0.500-  23 1.41   4 1.41  20 1.42
  20  0.445  0.998  0.500-  18 1.41  19 1.42  28 1.42
  21  0.611  0.097  0.499-  22 1.41  32 1.42  18 1.42
  22  0.555  0.195  0.500-  54 1.38  21 1.41  23 1.43
  23  0.443  0.194  0.500-  53 1.39  19 1.41  22 1.43
  24  0.553  0.608  0.500-  55 1.38  56 1.38  26 1.42
  25  0.391  0.705  0.500-  56 1.39  29 1.41  13 1.43
  26  0.611  0.704  0.500-  27 1.42  24 1.42  44 1.42
  27  0.556  0.803  0.500-  29 1.41  30 1.42  26 1.42
  28  0.389  0.901  0.500-  17 1.41  29 1.42  20 1.42
  29  0.445  0.803  0.500-  25 1.41  27 1.41  28 1.42
  30  0.612  0.900  0.500-  48 1.41  27 1.42  18 1.42
  31  0.889  1.000  0.500-  33 1.41  34 1.44  50 1.44
  32  0.722  0.099  0.500-  21 1.42  33 1.43  37 1.44
  33  0.778  1.000  0.500-  31 1.41  32 1.43  48 1.43
  34  0.943  0.100  0.500-   2 1.42  31 1.44  35 1.44
  35  0.888  0.201  0.500-  37 1.43  34 1.44  38 1.44
  36  0.715  0.299  0.500-  54 1.38  37 1.45  41 1.47
  37  0.775  0.200  0.500-  35 1.43  32 1.44  36 1.45
  38  0.943  0.301  0.500-   6 1.44  35 1.44  39 1.44
  39  0.886  0.401  0.500-  38 1.44  42 1.46  41 1.47
  40  0.715  0.503  0.501-  55 1.41  45 1.44  41 1.45
  41  0.770  0.401  0.500-  40 1.45  36 1.47  39 1.47
  42  0.948  0.498  0.500-  43 1.44  39 1.46   9 1.47
  43  0.890  0.598  0.500-  45 1.44  46 1.44  42 1.44
  44  0.723  0.701  0.500-  26 1.42  49 1.43  45 1.44
  45  0.777  0.599  0.500-  44 1.44  43 1.44  40 1.44
  46  0.946  0.698  0.500-  11 1.43  47 1.44  43 1.44
  47  0.891  0.799  0.500-  49 1.42  50 1.44  46 1.44
  48  0.724  0.900  0.500-  30 1.41  33 1.43  49 1.43
  49  0.779  0.800  0.500-  47 1.42  44 1.43  48 1.43
  50  0.944  0.899  0.500-  15 1.41  47 1.44  31 1.44
  51  0.230  0.388  0.498-   8 1.38  10 1.41  57 1.91
  52  0.228  0.607  0.501-  13 1.38  12 1.38  57 1.97
  53  0.390  0.291  0.502-   8 1.38  23 1.39  58 1.96
  54  0.606  0.292  0.500-  22 1.38  36 1.38  58 1.97
  55  0.604  0.511  0.502-  24 1.38  40 1.41  58 1.91
  56  0.444  0.608  0.499-  24 1.38  25 1.39  57 1.96
  57  0.337  0.495  0.494-  51 1.91  56 1.96  52 1.97  58 2.33
  58  0.497  0.404  0.506-  55 1.91  53 1.96  54 1.97  57 2.33
 
  LATTYP: Found a triclinic cell.
 ALAT       =    34.4646957601
 B/A-ratio  =     0.3641481713
 C/A-ratio  =     0.5796768412
 COS(alpha) =     0.0000129923
 COS(beta)  =     0.5799505641
 COS(gamma) =     0.7269903478
  
  Lattice vectors:
  
 A1 = (  12.6336598582, -25.0769910814, -19.9837536695)
 A2 = (  -0.0218489691, -12.5502369110,  -0.0003405478)
 A3 = (   0.0069686156,   0.0002704107, -19.9783847543)


Analysis of symmetry for initial positions (statically):
=====================================================================
 Subroutine PRICEL returns:
 Original cell was already a primitive cell.
 

 Routine SETGRP: Setting up the symmetry group for a 
 triclinic supercell.


 Subroutine GETGRP returns: Found  1 space group operations
 (whereof  1 operations were pure point group operations)
 out of a pool of  2 trial point group operations.


The static configuration has the point symmetry C_1 .


Analysis of symmetry for dynamics (positions and initial velocities):
=====================================================================
 Subroutine PRICEL returns:
 Original cell was already a primitive cell.
 

 Routine SETGRP: Setting up the symmetry group for a 
 triclinic supercell.


 Subroutine GETGRP returns: Found  1 space group operations
 (whereof  1 operations were pure point group operations)
 out of a pool of  2 trial point group operations.


The dynamic configuration has the point symmetry C_1 .


Analysis of structural, dynamic, and magnetic symmetry:
=====================================================================
 Subroutine PRICEL returns:
 Original cell was already a primitive cell.
 

 Routine SETGRP: Setting up the symmetry group for a 
 triclinic supercell.


 Subroutine GETGRP returns: Found  1 space group operations
 (whereof  1 operations were pure point group operations)
 out of a pool of  2 trial point group operations.


The magnetic configuration has the point symmetry C_1 .


 Subroutine INISYM returns: Found  1 space group operations
 (whereof  1 operations are pure point group operations),
 and found     1 'primitive' translations

 
 
 KPOINTS: KPOINTS created by Atomic Simulation Env

Automatic generation of k-mesh.
Space group operators:
 irot       det(A)        alpha          n_x          n_y          n_z        tau_x        tau_y        tau_z
    1     1.000000     0.000001     1.000000     0.000000     0.000000     0.000000     0.000000     0.000000
 
 Subroutine IBZKPT returns following result:
 ===========================================
 
 Found      2 irreducible k-points:
 
 Following reciprocal coordinates:
            Coordinates               Weight
  0.250000  0.250000 -0.000000      2.000000
 -0.250000  0.250000  0.000000      2.000000
 
 Following cartesian coordinates:
            Coordinates               Weight
  0.019695  0.019886  0.000007      2.000000
 -0.019768  0.019954 -0.000007      2.000000
 
 
 Subroutine IBZKPT_HF returns following result:
 ==============================================
 
 Found      4 k-points in 1st BZ
 the following      4 k-points will be used (e.g. in the exchange kernel)
 Following reciprocal coordinates:   # in IRBZ
  0.250000  0.250000 -0.000000    0.25000000   1 t-inv F
 -0.250000  0.250000  0.000000    0.25000000   2 t-inv F
 -0.250000 -0.250000  0.000000    0.25000000   1 t-inv T
  0.250000 -0.250000 -0.000000    0.25000000   2 t-inv T


--------------------------------------------------------------------------------------------------------




 Dimension of arrays:
   k-points           NKPTS =      2   k-points in BZ     NKDIM =      4   number of bands    NBANDS=    155
   number of dos      NEDOS =    301   number of ions     NIONS =     58
   non local maximal  LDIM  =      6   non local SUM 2l+1 LMDIM =     18
   total plane-waves  NPLWV = ******
   max r-space proj   IRMAX =      1   max aug-charges    IRDMAX=  15698
   dimension x,y,z NGX =    96 NGY =   96 NGZ =  150
   dimension x,y,z NGXF=   192 NGYF=  192 NGZF=  300
   support grid    NGXF=   192 NGYF=  192 NGZF=  300
   ions per type =              50   6   2
   NGX,Y,Z   is equivalent  to a cutoff of  12.60, 12.72, 12.48 a.u.
   NGXF,Y,Z  is equivalent  to a cutoff of  25.19, 25.43, 24.96 a.u.

 SYSTEM =  unknown system                          
 POSCAR =   C  N Fe                                

 Startparameter for this run:
   NWRITE =      2    write-flag & timer
   PREC   = accura    normal or accurate (medium, high low for compatibility)
   ISTART =      1    job   : 0-new  1-cont  2-samecut
   ICHARG =      0    charge: 1-file 2-atom 10-const
   ISPIN  =      2    spin polarized calculation?
   LNONCOLLINEAR =      F non collinear calculations
   LSORBIT =      F    spin-orbit coupling
   INIWAV =      1    electr: 0-lowe 1-rand  2-diag
   LASPH  =      T    aspherical Exc in radial PAW
   METAGGA=      F    non-selfconsistent MetaGGA calc.

 Electronic Relaxation 1
   ENCUT  =  500.0 eV  36.75 Ry    6.06 a.u.  23.10 22.88 36.43*2*pi/ulx,y,z
   ENINI  =  500.0     initial cutoff
   ENAUG  =  644.9 eV  augmentation charge cutoff
   NELM   =    250;   NELMIN=  2; NELMDL=  0     # of ELM steps 
   EDIFF  = 0.1E-03   stopping-criterion for ELM
   LREAL  =      F    real-space projection
   NLSPLINE    = F    spline interpolate recip. space projectors
   LCOMPAT=      F    compatible to vasp.4.4
   GGA_COMPAT  = T    GGA compatible to vasp.4.4-vasp.4.6
   LMAXPAW     = -100 max onsite density
   LMAXMIX     =    2 max onsite mixed and CHGCAR
   VOSKOWN=      0    Vosko Wilk Nusair interpolation
   ROPT   =    0.00000   0.00000   0.00000
 Ionic relaxation
   EDIFFG = -.3E-01   stopping-criterion for IOM
   NSW    =      0    number of steps for IOM
   NBLOCK =      1;   KBLOCK =      1    inner block; outer block 
   IBRION =     -1    ionic relax: 0-MD 1-quasi-New 2-CG
   NFREE  =      1    steps in history (QN), initial steepest desc. (CG)
   ISIF   =      2    stress and relaxation
   IWAVPR =     10    prediction:  0-non 1-charg 2-wave 3-comb
   ISYM   =      3    0-nonsym 1-usesym 2-fastsym
   LCORR  =      T    Harris-Foulkes like correction to forces

   POTIM  = 0.5000    time-step for ionic-motion
   TEIN   =    0.0    initial temperature
   TEBEG  =    0.0;   TEEND  =   0.0 temperature during run
   SMASS  =  -3.00    Nose mass-parameter (am)
   estimated Nose-frequenzy (Omega)   =  0.10E-29 period in steps =****** mass=  -0.367E-26a.u.
   SCALEE = 1.0000    scale energy and forces
   NPACO  =    256;   APACO  = 16.0  distance and # of slots for P.C.
   PSTRESS=    0.0 pullay stress

  Mass of Ions in am
   POMASS =  12.01 14.00 55.85
  Ionic Valenz
   ZVAL   =   4.00  5.00  8.00
  Atomic Wigner-Seitz radii
   RWIGS  =  -1.00 -1.00 -1.00
  virtual crystal weights 
   VCA    =   1.00  1.00  1.00
   NELECT =     246.0000    total number of electrons
   NUPDOWN=      -1.0000    fix difference up-down

 DOS related values:
   EMIN   =  10.00;   EMAX   =-10.00  energy-range for DOS
   EFERMI =   0.00
   ISMEAR =     0;   SIGMA  =   0.10  broadening in eV -4-tet -1-fermi 0-gaus

 Electronic relaxation 2 (details)
   IALGO  =     53    algorithm
   LDIAG  =      T    sub-space diagonalisation (order eigenvalues)
   LSUBROT=      F    optimize rotation matrix (better conditioning)
   TURBO    =      0    0=normal 1=particle mesh
   IRESTART =      0    0=no restart 2=restart with 2 vectors
   NREBOOT  =      0    no. of reboots
   NMIN     =      0    reboot dimension
   EREF     =   0.00    reference energy to select bands
   IMIX   =      4    mixing-type and parameters
     AMIX     =   0.40;   BMIX     =  1.00
     AMIX_MAG =   1.60;   BMIX_MAG =  1.00
     AMIN     =   0.10
     WC   =   100.;   INIMIX=   1;  MIXPRE=   1;  MAXMIX= -45

 Intra band minimization:
   WEIMIN = 0.0000     energy-eigenvalue tresh-hold
   EBREAK =  0.16E-06  absolut break condition
   DEPER  =   0.30     relativ break condition  

   TIME   =   0.20     timestep for ELM

  volume/ion in A,a.u.               =      54.77       369.63
  Fermi-wavevector in a.u.,A,eV,Ry     =   0.697782  1.318616  6.624668  0.486899
  Thomas-Fermi vector in A             =   1.781204
 
 Write flags
   LWAVE        =      T    write WAVECAR
   LDOWNSAMPLE  =      F    k-point downsampling of WAVECAR
   LCHARG       =      T    write CHGCAR
   LVTOT        =      F    write LOCPOT, total local potential
   LVHAR        =      T    write LOCPOT, Hartree potential only
   LELF         =      F    write electronic localiz. function (ELF)
   LORBIT       =     11    0 simple, 1 ext, 2 COOP (PROOUT), +10 PAW based schemes


 Dipole corrections
   LMONO  =      F    monopole corrections only (constant potential shift)
   LDIPOL =      T    correct potential (dipole corrections)
   IDIPOL =      3    1-x, 2-y, 3-z, 4-all directions 
   EPSILON=  1.0000000 bulk dielectric constant

 Exchange correlation treatment:
   GGA     =    PE    GGA type
   LEXCH   =     8    internal setting for exchange type
   VOSKOWN=      0    Vosko Wilk Nusair interpolation
   EXXOEP  =     0    0=HF, 1=EXX-LHF (local Hartree Fock) 2=EXX OEP
   LHFCALC =     T    Hartree Fock is set to
   LSYMGRAD=     F    symmetrize gradient (conserves proper symmetry)
   PRECFOCK=normal    Normal, Fast or Accurate (Low or Medium for compatibility)
   LRHFCALC=     F    long range Hartree Fock
   LRSCOR  =     F    long range correlation only (use DFT for short range part)
   LTHOMAS =     F    Thomas Fermi screening in HF
   LMODELHF=     F    short range full HF, long range fraction AEXX
   ENCUT4O =  -1.0   cutoff for four orbital integrals eV
   LMAXFOCK=     4    L truncation for augmentation on plane wave grid
   LMAXFOCKAE=  -1    L truncation for all-electron charge restoration on plane wave grid
   NMAXFOCKAE=   1    number of basis functions for all-electron charge restoration
   LFOCKAEDFT=     F  apply the AE augmentation even for DFT
   NKREDX  =     1    reduce k-point grid by
   NKREDY  =     1    reduce k-point grid by
   NKREDZ  =     1    reduce k-point grid by
   SHIFTRED=     F    shift reduced grid of Gamma
   HFKIDENT=     F    idential grid for each k-point
   ODDONLY =     F    use only odd q-grid points
   EVENONLY=     F    use only even q-grid points
   HFALPHA =   -1.0000 decay constant for conv. correction
   MCALPHA =    0.0000 extent of test-charge in conv. correction in multipole expansion
   AEXX    =    0.2500 exact exchange contribution
   HFSCREEN=    0.2000 screening length (either q_TF or 0.3 A-1)
   HFSCREENC=   0.2000 screening length for correlation (either q_TF or 0.3 A-1)
   HFRCUT  =    0.0000 spherical cutoff for potential kernel
   ALDAX   =    0.7500 LDA exchange part
   AGGAX   =    0.7500 GGA exchange part
   ALDAC   =    1.0000 LDA correlation
   AGGAC   =    1.0000 GGA correlation
   ENCUTFOCK=  -1.0 apply spherical cutoff to Coloumb kernel
   NBANDSGWLOW=     1    first orbital included in HF term
   NBLOCK_FOCK=    64    blocking factor in FOCK_ACC
 Linear response parameters
   LEPSILON=     F    determine dielectric tensor
   LRPA    =     F    only Hartree local field effects (RPA)
   LNABLA  =     F    use nabla operator in PAW spheres
   LVEL    =     F    velocity operator in full k-point grid
   LINTERFAST=   F  fast interpolation
   KINTER  =     0    interpolate to denser k-point grid
   CSHIFT  =0.1000    complex shift for real part using Kramers Kronig
   OMEGAMAX=  -1.0    maximum frequency
   DEG_THRESHOLD= 0.2000000E-02 threshold for treating states as degnerate
   RTIME   =   -0.100 relaxation time in fs
  (WPLASMAI=    0.000 imaginary part of plasma frequency in eV, 0.658/RTIME)
   DFIELD  = 0.0000000 0.0000000 0.0000000 field for delta impulse in time
 
 Orbital magnetization related:
   ORBITALMAG=     F  switch on orbital magnetization
   LCHIMAG   =     F  perturbation theory with respect to B field
   DQ        =  0.001000  dq finite difference perturbation B field
   LLRAUG    =     F  two centre corrections for induced B field



--------------------------------------------------------------------------------------------------------


 Static calculation
 charge density and potential will be updated during run
 spin polarized calculation
 Conjugate gradient for all bands (Freysoldt, et al. PRB 79, 241103 (2009))
 perform sub-space diagonalisation
    before iterative eigenvector-optimisation
 modified Broyden-mixing scheme, WC =      100.0
 initial mixing is a Kerker type mixing with AMIX =  0.4000 and BMIX =      1.0000
 Hartree-type preconditioning will be used
 using additional bands           32
 reciprocal scheme for non local part
 use partial core corrections
 no Harris-corrections to forces 
 use gradient corrections 
 use of overlap-Matrix (Vanderbilt PP)
 Gauss-broadening in eV      SIGMA  =   0.10


--------------------------------------------------------------------------------------------------------


  energy-cutoff  :      500.00
  volume of cell :     3176.88
      direct lattice vectors                 reciprocal lattice vectors
    12.670389181  0.023212330 -0.004687820     0.078924436 -0.000137402  0.000027528
     0.021848969 12.550236911  0.000340548    -0.000145975  0.079680025  0.000001028
    -0.006968616 -0.000270411 19.978384754     0.000018522 -0.000001390  0.050054103

  length of vectors
    12.670411311 12.550255934 19.978385971     0.078924560  0.079680159  0.050054106


 
 old parameters found on file WAVECAR:
  energy-cutoff  :      500.00
  volume of cell :     3176.88
      direct lattice vectors                 reciprocal lattice vectors
    12.810000000  0.000000000  0.000000000     0.078064012  0.000000000  0.000000000
     0.000000000 12.400000000  0.000000000     0.000000000  0.080645161  0.000000000
     0.000000000  0.000000000 20.000000000     0.000000000  0.000000000  0.050000000

  length of vectors

 
 k-points in units of 2pi/SCALE and weight: KPOINTS created by Atomic Simulation Env
   0.01969462  0.01988566  0.00000714       0.500
  -0.01976760  0.01995436 -0.00000663       0.500
 
 k-points in reciprocal lattice and weights: KPOINTS created by Atomic Simulation Env
   0.25000000  0.25000000 -0.00000000       0.500
  -0.25000000  0.25000000  0.00000000       0.500
 
 position of ions in fractional coordinates (direct lattice) 
   0.22146353  0.99876933  0.50026625
   0.05498438  0.09958280  0.49995338
   0.11001355  0.99949663  0.50008711
   0.27719675  0.09625345  0.50045368
   0.22268019  0.19497116  0.50035711
   0.05718927  0.29983830  0.49989805
   0.11070942  0.19849335  0.49992878
   0.28113679  0.29116636  0.50032998
   0.06411055  0.49796642  0.49988220
   0.11915022  0.39601320  0.49941999
   0.05849102  0.69880713  0.50027594
   0.11901100  0.60068458  0.50044343
   0.27821073  0.70425091  0.50064886
   0.22283478  0.80197751  0.50065437
   0.05566287  0.89946615  0.50007723
   0.11112867  0.80002171  0.50040477
   0.27757936  0.90049513  0.50034694
   0.55600141  0.99867487  0.49957526
   0.38884786  0.09635803  0.50015681
   0.44484916  0.99839431  0.49984146
   0.61075690  0.09720756  0.49934135
   0.55540635  0.19493765  0.49954409
   0.44294864  0.19435751  0.50040493
   0.55260254  0.60797623  0.50004961
   0.39069174  0.70479600  0.49985843
   0.61102343  0.70415263  0.49980784
   0.55644875  0.80286261  0.49957883
   0.38874073  0.90072746  0.50009197
   0.44478586  0.80276509  0.49990736
   0.61213261  0.90039649  0.49964894
   0.88927860  0.99986935  0.49992040
   0.72246583  0.09916197  0.49953195
   0.77790913  0.99970738  0.49978466
   0.94301204  0.10040097  0.49995790
   0.88782627  0.20102858  0.49995716
   0.71465095  0.29851540  0.49969726
   0.77515961  0.20036256  0.49969825
   0.94341052  0.30119157  0.50002146
   0.88596721  0.40073962  0.50005246
   0.71460539  0.50316946  0.50081637
   0.76962625  0.40122259  0.50024884
   0.94776636  0.49832413  0.49998048
   0.89033700  0.59790552  0.49995825
   0.72299293  0.70065447  0.50013112
   0.77657506  0.59932342  0.50018565
   0.94584351  0.69810984  0.49995368
   0.89062517  0.79878158  0.49991101
   0.72358531  0.89964690  0.49980138
   0.77867048  0.79958126  0.49996475
   0.94430186  0.89934038  0.49991137
   0.23013869  0.38801753  0.49810607
   0.22797344  0.60705193  0.50065018
   0.39018253  0.29138466  0.50180150
   0.60568478  0.29212052  0.49964190
   0.60360469  0.51112378  0.50235087
   0.44355961  0.60782566  0.49866717
   0.33689733  0.49482958  0.49412994
   0.49685038  0.40436885  0.50643302
 
 position of ions in cartesian coordinates  (Angst):
   2.82436505 12.53979707  9.99381357
   0.69536523  1.25092890  9.98803705
   1.41226755 12.54633791  9.99075730
   3.51080624  1.21430267  9.99698944
   2.82221780  2.45196787  9.99534934
   0.72767787  3.76423407  9.98698955
   1.40358454  2.49357314  9.98731822
   3.56498765  3.66059730  9.99456607
   0.81970218  6.25094955  9.98670796
   1.51485192  4.97269015  9.97718109
   0.75288595  8.77141753  9.99466892
   1.51755258  7.54136094  9.99769803
   3.53693658  8.84483825 10.00109126
   2.83743696 10.07004486 10.00149411
   0.72143777 11.28967009  9.99078071
   1.42203604 10.04290622  9.99703052
   3.53322665 11.30773518  9.99512919
   7.06309287 12.54637719  9.97844034
   4.92547363  1.21820695  9.99053517
   5.65474271 12.54027600  9.98427959
   7.73717177  1.23401996  9.97320365
   7.03799262  2.45927084  9.97754679
   5.61309107  2.44937930  9.99527195
   7.01148822  7.64293773  9.98780011
   4.96213214  8.85429047  9.98477259
   7.75380670  8.85133046  9.98272866
   7.06448262 10.08889739  9.97844299
   4.94169131 11.31323134  9.98951425
   5.64966588 10.08508140  9.98552980
   7.77214932 11.31426323  9.97961584
  11.28586827 12.56910430  9.98377391
   9.15260873  1.26114124  9.97648840
   9.87477118 12.56448635  9.98158408
  11.94703925  1.28181024  9.98396471
  11.25001268  2.54342963  9.98424307
   9.05794571  3.76289260  9.97989561
   9.82246948  2.53245567  9.97959835
  11.95647467  3.80178916  9.98530112
  11.23082046  5.04980728  9.98622374
   9.06183215  6.33134813 10.00232361
   9.75674433  5.05316812  9.99069261
  12.01597237  6.27595049  9.98452911
  11.29049587  7.52438758  9.98438810
   9.17242515  8.81002668  9.98866132
   9.84911725  7.53954177  9.98946496
  11.99597434  8.78326398  9.98407070
  11.29853642 10.04543641  9.98351142
   9.18428092 11.30744274  9.98213859
   9.88004396 10.05287375  9.98511024
  11.98083805 11.30871912  9.98330133
   2.92095349  4.87491924  9.95040806
   2.89828689  7.62380192 10.00131987
   4.94663407  3.66586790 10.02345353
   7.67716260  3.68010600  9.97929816
   7.65557316  6.42859972 10.03350347
   5.62987817  7.63851719  9.96069234
   4.27598843  6.21791495  9.87050720
   6.30059359  5.08632100 10.11552227
 


--------------------------------------------------------------------------------------------------------


 k-point  1 :   0.2500 0.2500-0.0000  plane waves:   80667
 k-point  2 :  -0.2500 0.2500 0.0000  plane waves:   80668

 maximum and minimum number of plane-waves per node :      2055     1996

 maximum number of plane-waves:     80668
 maximum index in each direction: 
   IXMAX=   23   IYMAX=   22   IZMAX=   36
   IXMIN=  -23   IYMIN=  -23   IZMIN=  -36


 parallel 3D FFT for wavefunctions:
    minimum data exchange during FFTs selected (reduces bandwidth)
 parallel 3D FFT for charge:
    minimum data exchange during FFTs selected (reduces bandwidth)


 FFT grid for exact exchange (Hartree Fock) 
  NGX = 70; NGY = 70; NGZ =112

 
 Radii for the augmentation spheres in the non-local exchange
 for species   1 augmentation radius   0.874 (default was   0.699)
       energy cutoff for augmentation   2000.0
 for species   2 augmentation radius   0.886 (default was   0.709)
       energy cutoff for augmentation   2000.0
 for species   3 augmentation radius   1.263 (default was   1.010)
       energy cutoff for augmentation   2000.0

 real space projection operators:
  total allocation   :       2456.86 KBytes
  max/ min on nodes  :         89.98         43.58

 Maximum index for augmentation-charges in exchange           72
  SETUP_FOCK is finished

 total amount of memory used by VASP MPI-rank0   138311. kBytes
=======================================================================

   base      :      30000. kBytes
   nonl-proj :       3696. kBytes
   fftplans  :      11851. kBytes
   grid      :      28947. kBytes
   one-center:         62. kBytes
   HF        :         23. kBytes
   nonlr-proj:       1566. kBytes
   wavefun   :      62166. kBytes
 
     INWAV:  cpu time    4.1432: real time    4.1536
 Broyden mixing: mesh for mixing (old mesh)
   NGX = 47   NGY = 45   NGZ = 73
  (NGX  =192   NGY  =192   NGZ  =300)
  gives a total of 154395 points

 charge density for first step will be calculated from the start-wavefunctions


--------------------------------------------------------------------------------------------------------


 Maximum index for augmentation-charges          336 (set IRDMAX)


--------------------------------------------------------------------------------------------------------


 initial charge from wavefunction
 First call to EWALD:  gamma=   0.121
 Maximum number of real-space cells 3x 3x 2
 Maximum number of reciprocal cells 2x 2x 4

    FEWALD:  cpu time    0.0031: real time    0.0031


--------------------------------------- Iteration      1(   1)  ---------------------------------------


    POTLOK:  cpu time    0.9138: real time    0.9220
    SETDIJ:  cpu time    1.0122: real time    1.0176
    TRIAL :  cpu time  160.2476: real time  160.6992
    CORREC:  cpu time    0.0007: real time    0.0007
    CHARGE:  cpu time    0.7487: real time    0.7505
    --------------------------------------------
      LOOP:  cpu time  162.9425: real time  163.4120

 eigenvalue-minimisations  :     0
 total energy-change (2. order) :-0.6093482E+03  (-0.6070923E+00)
 number of electron     245.9999997 magnetization      -0.0020044
 augmentation part       14.4718345 magnetization      -0.0013766

 DIPCOR: dipole corrections for dipol
 direction  3 min pos     1,
 dipolmoment          -0.000000     -0.000000      0.000668 electrons x Angstroem
 Tr[quadrupol]     -6637.016915

 energy correction for charged system         0.000000 eV
 dipol+quadrupol energy correction            0.000000 eV
 added-field ion interaction          0.000000 eV  (added to PSCEN)


 Free energy of the ion-electron system (eV)
  ---------------------------------------------------
  alpha Z        PSCENC =       102.90370970
  Ewald energy   TEWEN  =     39931.08162972
  -Hartree energ DENC   =    -48584.31657435
  -exchange      EXHF   =       560.87307452
  -V(xc)+E(xc)   XCENC  =       626.96502759
  PAW double counting   =     26571.45038833   -26619.06451939
  entropy T*S    EENTRO =        -0.01066314
  eigenvalues    EBANDS =     -3217.29672804
  atomic energy  EATOM  =     10018.07893457
  ---------------------------------------------------
  free energy    TOTEN  =      -609.34817125 eV

  energy without entropy =     -609.33750812  energy(sigma->0) =     -609.34283968
  exchange ACFDT corr.  =        -0.07923209  see jH, gK, PRB 81, 115126


--------------------------------------------------------------------------------------------------------




--------------------------------------- Iteration      1(   2)  ---------------------------------------


    POTLOK:  cpu time    0.9516: real time    0.9539
    SETDIJ:  cpu time    1.0182: real time    1.0231
    TRIAL :  cpu time  161.6866: real time  162.1426
    CORREC:  cpu time    0.0007: real time    0.0007
    CHARGE:  cpu time    0.7525: real time    0.7543
    --------------------------------------------
      LOOP:  cpu time  164.4118: real time  164.8799

 eigenvalue-minimisations  :     0
 total energy-change (2. order) :-0.4475309E+00  (-0.5299505E+00)
 number of electron     245.9999997 magnetization       0.0005640
 augmentation part       14.3884085 magnetization       0.0004705

 DIPCOR: dipole corrections for dipol
 direction  3 min pos     1,
 dipolmoment           0.000000      0.000000     -0.000699 electrons x Angstroem
 Tr[quadrupol]     -6636.874925

 energy correction for charged system         0.000000 eV
 dipol+quadrupol energy correction            0.000000 eV
 added-field ion interaction          0.000000 eV  (added to PSCEN)


 Free energy of the ion-electron system (eV)
  ---------------------------------------------------
  alpha Z        PSCENC =       102.90370970
  Ewald energy   TEWEN  =     39931.08162972
  -Hartree energ DENC   =    -48575.53877629
  -exchange      EXHF   =       560.90725472
  -V(xc)+E(xc)   XCENC  =       626.64592845
  PAW double counting   =     26706.58413447   -26754.69154221
  entropy T*S    EENTRO =        -0.00472926
  eigenvalues    EBANDS =     -3225.75631219
  atomic energy  EATOM  =     10018.07893457
  ---------------------------------------------------
  free energy    TOTEN  =      -609.79570219 eV

  energy without entropy =     -609.79097293  energy(sigma->0) =     -609.79333756
  exchange ACFDT corr.  =        -0.09184073  see jH, gK, PRB 81, 115126


--------------------------------------------------------------------------------------------------------




--------------------------------------- Iteration      1(   3)  ---------------------------------------


    POTLOK:  cpu time    0.9416: real time    0.9439
    SETDIJ:  cpu time    1.0153: real time    1.0178
    TRIAL :  cpu time  161.3745: real time  161.8158
    CORREC:  cpu time    0.0007: real time    0.0007
    CHARGE:  cpu time    0.7469: real time    0.7502
    --------------------------------------------
      LOOP:  cpu time  164.0813: real time  164.5342

 eigenvalue-minimisations  :     0
 total energy-change (2. order) :-0.3955639E+00  (-0.3024528E+00)
 number of electron     245.9999997 magnetization       0.0000879
 augmentation part       14.3667827 magnetization      -0.0001477

 DIPCOR: dipole corrections for dipol
 direction  3 min pos     1,
 dipolmoment          -0.000000     -0.000000      0.000595 electrons x Angstroem
 Tr[quadrupol]     -6636.679178

 energy correction for charged system         0.000000 eV
 dipol+quadrupol energy correction            0.000000 eV
 added-field ion interaction          0.000000 eV  (added to PSCEN)


 Free energy of the ion-electron system (eV)
  ---------------------------------------------------
  alpha Z        PSCENC =       102.90370970
  Ewald energy   TEWEN  =     39931.08162972
  -Hartree energ DENC   =    -48555.60911582
  -exchange      EXHF   =       560.88565072
  -V(xc)+E(xc)   XCENC  =       626.25729233
  PAW double counting   =     26857.64542894   -26904.46739474
  entropy T*S    EENTRO =        -0.00178403
  eigenvalues    EBANDS =     -3246.96267230
  atomic energy  EATOM  =     10018.07893457
  ---------------------------------------------------
  free energy    TOTEN  =      -610.19126614 eV

  energy without entropy =     -610.18948211  energy(sigma->0) =     -610.19037412
  exchange ACFDT corr.  =        -0.01362143  see jH, gK, PRB 81, 115126


--------------------------------------------------------------------------------------------------------




--------------------------------------- Iteration      1(   4)  ---------------------------------------


    POTLOK:  cpu time    0.9494: real time    0.9518
    SETDIJ:  cpu time    1.0215: real time    1.0240
    TRIAL :  cpu time  165.5923: real time  166.0364
    CORREC:  cpu time    0.0007: real time    0.0007
    CHARGE:  cpu time    0.7473: real time    0.7493
    --------------------------------------------
      LOOP:  cpu time  168.3136: real time  168.7680

 eigenvalue-minimisations  :     0
 total energy-change (2. order) :-0.2329280E+00  (-0.2041787E+00)
 number of electron     245.9999997 magnetization      -0.0000398
 augmentation part       14.3992298 magnetization      -0.0004651

 DIPCOR: dipole corrections for dipol
 direction  3 min pos     1,
 dipolmoment          -0.000000     -0.000000      0.000108 electrons x Angstroem
 Tr[quadrupol]     -6636.613278

 energy correction for charged system         0.000000 eV
 dipol+quadrupol energy correction            0.000000 eV
 added-field ion interaction          0.000000 eV  (added to PSCEN)


 Free energy of the ion-electron system (eV)
  ---------------------------------------------------
  alpha Z        PSCENC =       102.90370969
  Ewald energy   TEWEN  =     39931.08162972
  -Hartree energ DENC   =    -48547.94770630
  -exchange      EXHF   =       561.10584333
  -V(xc)+E(xc)   XCENC  =       626.16788808
  PAW double counting   =     26995.41508520   -27041.97235149
  entropy T*S    EENTRO =        -0.00076613
  eigenvalues    EBANDS =     -3255.25544288
  atomic energy  EATOM  =     10018.07893457
  ---------------------------------------------------
  free energy    TOTEN  =      -610.42419411 eV

  energy without entropy =     -610.42342798  energy(sigma->0) =     -610.42381105
  exchange ACFDT corr.  =        -0.00370673  see jH, gK, PRB 81, 115126


--------------------------------------------------------------------------------------------------------




--------------------------------------- Iteration      1(   5)  ---------------------------------------


    POTLOK:  cpu time    0.9411: real time    0.9439
    SETDIJ:  cpu time    1.0276: real time    1.0317
    TRIAL :  cpu time  161.4851: real time  161.9187
    CORREC:  cpu time    0.0007: real time    0.0007
    CHARGE:  cpu time    0.7466: real time    0.7484
    --------------------------------------------
      LOOP:  cpu time  164.2029: real time  164.6500

 eigenvalue-minimisations  :     0
 total energy-change (2. order) :-0.1604241E+00  (-0.1295389E+00)
 number of electron     245.9999997 magnetization      -0.0000110
 augmentation part       14.4148738 magnetization      -0.0003279

 DIPCOR: dipole corrections for dipol
 direction  3 min pos     1,
 dipolmoment           0.000000      0.000000     -0.000399 electrons x Angstroem
 Tr[quadrupol]     -6636.658498

 energy correction for charged system         0.000000 eV
 dipol+quadrupol energy correction            0.000000 eV
 added-field ion interaction          0.000000 eV  (added to PSCEN)


 Free energy of the ion-electron system (eV)
  ---------------------------------------------------
  alpha Z        PSCENC =       102.90370969
  Ewald energy   TEWEN  =     39931.08162972
  -Hartree energ DENC   =    -48551.23230685
  -exchange      EXHF   =       561.48522220
  -V(xc)+E(xc)   XCENC  =       626.32053401
  PAW double counting   =     27102.12612471   -27149.25764849
  entropy T*S    EENTRO =        -0.00041051
  eigenvalues    EBANDS =     -3252.09005166
  atomic energy  EATOM  =     10018.07893457
  ---------------------------------------------------
  free energy    TOTEN  =      -610.58461822 eV

  energy without entropy =     -610.58420771  energy(sigma->0) =     -610.58441297
  exchange ACFDT corr.  =        -0.00116244  see jH, gK, PRB 81, 115126


--------------------------------------------------------------------------------------------------------




--------------------------------------- Iteration      1(   6)  ---------------------------------------


    POTLOK:  cpu time    0.9507: real time    0.9676
    SETDIJ:  cpu time    1.0157: real time    1.0181
    TRIAL :  cpu time  162.0867: real time  162.5367
    CORREC:  cpu time    0.0007: real time    0.0007
    CHARGE:  cpu time    0.7480: real time    0.7499
    --------------------------------------------
      LOOP:  cpu time  164.8037: real time  165.2790

 eigenvalue-minimisations  :     0
 total energy-change (2. order) :-0.1088260E+00  (-0.9581616E-01)
 number of electron     245.9999997 magnetization       0.0000014
 augmentation part       14.4092236 magnetization      -0.0003463

 DIPCOR: dipole corrections for dipol
 direction  3 min pos     1,
 dipolmoment           0.000000      0.000000     -0.000311 electrons x Angstroem
 Tr[quadrupol]     -6636.722853

 energy correction for charged system         0.000000 eV
 dipol+quadrupol energy correction            0.000000 eV
 added-field ion interaction          0.000000 eV  (added to PSCEN)


 Free energy of the ion-electron system (eV)
  ---------------------------------------------------
  alpha Z        PSCENC =       102.90370969
  Ewald energy   TEWEN  =     39931.08162972
  -Hartree energ DENC   =    -48555.60103167
  -exchange      EXHF   =       561.84344083
  -V(xc)+E(xc)   XCENC  =       626.51960632
  PAW double counting   =     27171.05979350   -27218.48229207
  entropy T*S    EENTRO =        -0.00024719
  eigenvalues    EBANDS =     -3248.09682457
  atomic energy  EATOM  =     10018.07893457
  ---------------------------------------------------
  free energy    TOTEN  =      -610.69344420 eV

  energy without entropy =     -610.69319701  energy(sigma->0) =     -610.69332060
  exchange ACFDT corr.  =        -0.00051717  see jH, gK, PRB 81, 115126


--------------------------------------------------------------------------------------------------------




--------------------------------------- Iteration      1(   7)  ---------------------------------------


    POTLOK:  cpu time    0.9357: real time    0.9382
    SETDIJ:  cpu time    1.0129: real time    1.0170
    TRIAL :  cpu time  162.1912: real time  162.6257
    CORREC:  cpu time    0.0006: real time    0.0006
    CHARGE:  cpu time    0.7469: real time    0.7488
    --------------------------------------------
      LOOP:  cpu time  164.8902: real time  165.3364

 eigenvalue-minimisations  :     0
 total energy-change (2. order) :-0.8245742E-01  (-0.7040379E-01)
 number of electron     245.9999997 magnetization      -0.0000020
 augmentation part       14.4080650 magnetization      -0.0004038

 DIPCOR: dipole corrections for dipol
 direction  3 min pos     1,
 dipolmoment           0.000000      0.000000     -0.000217 electrons x Angstroem
 Tr[quadrupol]     -6636.770218

 energy correction for charged system         0.000000 eV
 dipol+quadrupol energy correction            0.000000 eV
 added-field ion interaction          0.000000 eV  (added to PSCEN)


 Free energy of the ion-electron system (eV)
  ---------------------------------------------------
  alpha Z        PSCENC =       102.90370969
  Ewald energy   TEWEN  =     39931.08162972
  -Hartree energ DENC   =    -48558.17436998
  -exchange      EXHF   =       562.11759957
  -V(xc)+E(xc)   XCENC  =       626.68164212
  PAW double counting   =     27210.51105998   -27257.86918765
  entropy T*S    EENTRO =        -0.00015468
  eigenvalues    EBANDS =     -3246.10667247
  atomic energy  EATOM  =     10018.07893457
  ---------------------------------------------------
  free energy    TOTEN  =      -610.77590162 eV

  energy without entropy =     -610.77574694  energy(sigma->0) =     -610.77582428
  exchange ACFDT corr.  =        -0.00027425  see jH, gK, PRB 81, 115126


--------------------------------------------------------------------------------------------------------




--------------------------------------- Iteration      1(   8)  ---------------------------------------


    POTLOK:  cpu time    0.9344: real time    0.9367
    SETDIJ:  cpu time    1.0212: real time    1.0240
    TRIAL :  cpu time  161.4753: real time  161.9068
    CORREC:  cpu time    0.0007: real time    0.0007
    CHARGE:  cpu time    0.7471: real time    0.7489
    --------------------------------------------
      LOOP:  cpu time  164.1808: real time  164.6227

 eigenvalue-minimisations  :     0
 total energy-change (2. order) :-0.6248041E-01  (-0.5527669E-01)
 number of electron     245.9999997 magnetization      -0.0000038
 augmentation part       14.4145708 magnetization      -0.0004317

 DIPCOR: dipole corrections for dipol
 direction  3 min pos     1,
 dipolmoment           0.000000      0.000000     -0.000306 electrons x Angstroem
 Tr[quadrupol]     -6636.803139

 energy correction for charged system         0.000000 eV
 dipol+quadrupol energy correction            0.000000 eV
 added-field ion interaction          0.000000 eV  (added to PSCEN)


 Free energy of the ion-electron system (eV)
  ---------------------------------------------------
  alpha Z        PSCENC =       102.90370969
  Ewald energy   TEWEN  =     39931.08162972
  -Hartree energ DENC   =    -48560.20013979
  -exchange      EXHF   =       562.32306721
  -V(xc)+E(xc)   XCENC  =       626.80973205
  PAW double counting   =     27233.81491029   -27281.17255987
  entropy T*S    EENTRO =        -0.00010114
  eigenvalues    EBANDS =     -3244.47751121
  atomic energy  EATOM  =     10018.07893457
  ---------------------------------------------------
  free energy    TOTEN  =      -610.83838203 eV

  energy without entropy =     -610.83828089  energy(sigma->0) =     -610.83833146
  exchange ACFDT corr.  =        -0.00015671  see jH, gK, PRB 81, 115126


--------------------------------------------------------------------------------------------------------




--------------------------------------- Iteration      1(   9)  ---------------------------------------


    POTLOK:  cpu time    0.9343: real time    0.9404
    SETDIJ:  cpu time    1.0218: real time    1.0265
    TRIAL :  cpu time  160.3834: real time  160.8112
    CORREC:  cpu time    0.0006: real time    0.0006
    CHARGE:  cpu time    0.7460: real time    0.7478
    --------------------------------------------
      LOOP:  cpu time  163.0880: real time  163.5323

 eigenvalue-minimisations  :     0
 total energy-change (2. order) :-0.4993321E-01  (-0.4398645E-01)
 number of electron     245.9999997 magnetization      -0.0000027
 augmentation part       14.4194645 magnetization      -0.0004062

 DIPCOR: dipole corrections for dipol
 direction  3 min pos     1,
 dipolmoment           0.000000      0.000000     -0.000379 electrons x Angstroem
 Tr[quadrupol]     -6636.825258

 energy correction for charged system         0.000000 eV
 dipol+quadrupol energy correction            0.000000 eV
 added-field ion interaction          0.000000 eV  (added to PSCEN)


 Free energy of the ion-electron system (eV)
  ---------------------------------------------------
  alpha Z        PSCENC =       102.90370969
  Ewald energy   TEWEN  =     39931.08162972
  -Hartree energ DENC   =    -48561.88536411
  -exchange      EXHF   =       562.47647071
  -V(xc)+E(xc)   XCENC  =       626.91076533
  PAW double counting   =     27248.40143345   -27295.88353847
  entropy T*S    EENTRO =        -0.00007077
  eigenvalues    EBANDS =     -3242.97225499
  atomic energy  EATOM  =     10018.07893457
  ---------------------------------------------------
  free energy    TOTEN  =      -610.88831524 eV

  energy without entropy =     -610.88824447  energy(sigma->0) =     -610.88827986
  exchange ACFDT corr.  =        -0.00009615  see jH, gK, PRB 81, 115126


--------------------------------------------------------------------------------------------------------




--------------------------------------- Iteration      1(  10)  ---------------------------------------


    POTLOK:  cpu time    0.9277: real time    0.9306
    SETDIJ:  cpu time    1.0108: real time    1.0134
    TRIAL :  cpu time  160.4152: real time  160.8571
    CORREC:  cpu time    0.0007: real time    0.0007
    CHARGE:  cpu time    0.7470: real time    0.7489
    --------------------------------------------
      LOOP:  cpu time  163.1033: real time  163.5564

 eigenvalue-minimisations  :     0
 total energy-change (2. order) :-0.4041832E-01  (-0.3641163E-01)
 number of electron     245.9999997 magnetization      -0.0000016
 augmentation part       14.4200556 magnetization      -0.0003712

 DIPCOR: dipole corrections for dipol
 direction  3 min pos     1,
 dipolmoment           0.000000      0.000000     -0.000369 electrons x Angstroem
 Tr[quadrupol]     -6636.838057

 energy correction for charged system         0.000000 eV
 dipol+quadrupol energy correction            0.000000 eV
 added-field ion interaction          0.000000 eV  (added to PSCEN)


 Free energy of the ion-electron system (eV)
  ---------------------------------------------------
  alpha Z        PSCENC =       102.90370969
  Ewald energy   TEWEN  =     39931.08162972
  -Hartree energ DENC   =    -48562.76286463
  -exchange      EXHF   =       562.59171283
  -V(xc)+E(xc)   XCENC  =       626.98900858
  PAW double counting   =     27257.31553609   -27304.90374310
  entropy T*S    EENTRO =        -0.00005296
  eigenvalues    EBANDS =     -3242.22258653
  atomic energy  EATOM  =     10018.07893457
  ---------------------------------------------------
  free energy    TOTEN  =      -610.92873356 eV

  energy without entropy =     -610.92868060  energy(sigma->0) =     -610.92870708
  exchange ACFDT corr.  =        -0.00006417  see jH, gK, PRB 81, 115126


--------------------------------------------------------------------------------------------------------




--------------------------------------- Iteration      1(  11)  ---------------------------------------


    POTLOK:  cpu time    0.9246: real time    0.9269
    SETDIJ:  cpu time    1.0143: real time    1.0169
    TRIAL :  cpu time  160.7330: real time  161.1623
    CORREC:  cpu time    0.0007: real time    0.0007
    CHARGE:  cpu time    0.7473: real time    0.7491
    --------------------------------------------
      LOOP:  cpu time  163.4212: real time  163.8620

 eigenvalue-minimisations  :     0
 total energy-change (2. order) :-0.3393876E-01  (-0.3080432E-01)
 number of electron     245.9999997 magnetization      -0.0000014
 augmentation part       14.4201460 magnetization      -0.0003810

 DIPCOR: dipole corrections for dipol
 direction  3 min pos     1,
 dipolmoment           0.000000      0.000000     -0.000360 electrons x Angstroem
 Tr[quadrupol]     -6636.845291

 energy correction for charged system         0.000000 eV
 dipol+quadrupol energy correction            0.000000 eV
 added-field ion interaction          0.000000 eV  (added to PSCEN)


 Free energy of the ion-electron system (eV)
  ---------------------------------------------------
  alpha Z        PSCENC =       102.90370969
  Ewald energy   TEWEN  =     39931.08162972
  -Hartree energ DENC   =    -48562.96901744
  -exchange      EXHF   =       562.68423566
  -V(xc)+E(xc)   XCENC  =       627.05343868
  PAW double counting   =     27262.79455104   -27310.42468033
  entropy T*S    EENTRO =        -0.00004167
  eigenvalues    EBANDS =     -3242.16542096
  atomic energy  EATOM  =     10018.07893457
  ---------------------------------------------------
  free energy    TOTEN  =      -610.96267232 eV

  energy without entropy =     -610.96263065  energy(sigma->0) =     -610.96265148
  exchange ACFDT corr.  =        -0.00004620  see jH, gK, PRB 81, 115126


--------------------------------------------------------------------------------------------------------




--------------------------------------- Iteration      1(  12)  ---------------------------------------


    POTLOK:  cpu time    0.9229: real time    0.9271
    SETDIJ:  cpu time    1.0304: real time    1.0329
    TRIAL :  cpu time  161.1186: real time  161.5514
    CORREC:  cpu time    0.0006: real time    0.0006
    CHARGE:  cpu time    0.7529: real time    0.7547
    --------------------------------------------
      LOOP:  cpu time  163.8275: real time  164.2730

 eigenvalue-minimisations  :     0
 total energy-change (2. order) :-0.2894973E-01  (-0.2644712E-01)
 number of electron     245.9999997 magnetization      -0.0000014
 augmentation part       14.4221310 magnetization      -0.0004145

 DIPCOR: dipole corrections for dipol
 direction  3 min pos     1,
 dipolmoment           0.000000      0.000000     -0.000405 electrons x Angstroem
 Tr[quadrupol]     -6636.851064

 energy correction for charged system         0.000000 eV
 dipol+quadrupol energy correction            0.000000 eV
 added-field ion interaction          0.000000 eV  (added to PSCEN)


 Free energy of the ion-electron system (eV)
  ---------------------------------------------------
  alpha Z        PSCENC =       102.90370969
  Ewald energy   TEWEN  =     39931.08162972
  -Hartree energ DENC   =    -48563.04116967
  -exchange      EXHF   =       562.76524198
  -V(xc)+E(xc)   XCENC  =       627.11256874
  PAW double counting   =     27266.85649517   -27314.51969196
  entropy T*S    EENTRO =        -0.00003407
  eigenvalues    EBANDS =     -3242.22929862
  atomic energy  EATOM  =     10018.07893457
  ---------------------------------------------------
  free energy    TOTEN  =      -610.99162205 eV

  energy without entropy =     -610.99158798  energy(sigma->0) =     -610.99160502
  exchange ACFDT corr.  =        -0.00003523  see jH, gK, PRB 81, 115126


--------------------------------------------------------------------------------------------------------




--------------------------------------- Iteration      1(  13)  ---------------------------------------


    POTLOK:  cpu time    0.9251: real time    0.9273
    SETDIJ:  cpu time    1.0165: real time    1.0190
    TRIAL :  cpu time  161.4859: real time  161.9591
    CORREC:  cpu time    0.0006: real time    0.0006
    CHARGE:  cpu time    0.7456: real time    0.7474
    --------------------------------------------
      LOOP:  cpu time  164.1761: real time  164.6593

 eigenvalue-minimisations  :     0
 total energy-change (2. order) :-0.2506036E-01  (-0.2303114E-01)
 number of electron     245.9999997 magnetization      -0.0000013
 augmentation part       14.4247995 magnetization      -0.0004401

 DIPCOR: dipole corrections for dipol
 direction  3 min pos     1,
 dipolmoment           0.000000      0.000000     -0.000470 electrons x Angstroem
 Tr[quadrupol]     -6636.857021

 energy correction for charged system         0.000000 eV
 dipol+quadrupol energy correction            0.000000 eV
 added-field ion interaction          0.000000 eV  (added to PSCEN)


 Free energy of the ion-electron system (eV)
  ---------------------------------------------------
  alpha Z        PSCENC =       102.90370970
  Ewald energy   TEWEN  =     39931.08162972
  -Hartree energ DENC   =    -48563.25661363
  -exchange      EXHF   =       562.83899036
  -V(xc)+E(xc)   XCENC  =       627.16931027
  PAW double counting   =     27270.70932129   -27318.43237633
  entropy T*S    EENTRO =        -0.00002879
  eigenvalues    EBANDS =     -3242.10955429
  atomic energy  EATOM  =     10018.07893457
  ---------------------------------------------------
  free energy    TOTEN  =      -611.01668241 eV

  energy without entropy =     -611.01665362  energy(sigma->0) =     -611.01666802
  exchange ACFDT corr.  =        -0.00002809  see jH, gK, PRB 81, 115126


--------------------------------------------------------------------------------------------------------




--------------------------------------- Iteration      1(  14)  ---------------------------------------


    POTLOK:  cpu time    0.9248: real time    0.9347
    SETDIJ:  cpu time    1.0136: real time    1.0173
    TRIAL :  cpu time  161.5532: real time  162.0508
    CORREC:  cpu time    0.0006: real time    0.0006
    CHARGE:  cpu time    0.7462: real time    0.7480
    --------------------------------------------
      LOOP:  cpu time  164.2400: real time  164.7568

 eigenvalue-minimisations  :     0
 total energy-change (2. order) :-0.2193411E-01  (-0.2021847E-01)
 number of electron     245.9999997 magnetization      -0.0000012
 augmentation part       14.4265486 magnetization      -0.0004534

 DIPCOR: dipole corrections for dipol
 direction  3 min pos     1,
 dipolmoment           0.000000      0.000000     -0.000512 electrons x Angstroem
 Tr[quadrupol]     -6636.862744

 energy correction for charged system         0.000000 eV
 dipol+quadrupol energy correction            0.000000 eV
 added-field ion interaction          0.000000 eV  (added to PSCEN)


 Free energy of the ion-electron system (eV)
  ---------------------------------------------------
  alpha Z        PSCENC =       102.90370970
  Ewald energy   TEWEN  =     39931.08162972
  -Hartree energ DENC   =    -48563.53069535
  -exchange      EXHF   =       562.90603033
  -V(xc)+E(xc)   XCENC  =       627.22256245
  PAW double counting   =     27274.71426450   -27322.50452589
  entropy T*S    EENTRO =        -0.00002504
  eigenvalues    EBANDS =     -3241.91049776
  atomic energy  EATOM  =     10018.07893457
  ---------------------------------------------------
  free energy    TOTEN  =      -611.03861652 eV

  energy without entropy =     -611.03859148  energy(sigma->0) =     -611.03860400
  exchange ACFDT corr.  =        -0.00002326  see jH, gK, PRB 81, 115126


--------------------------------------------------------------------------------------------------------




--------------------------------------- Iteration      1(  15)  ---------------------------------------


    POTLOK:  cpu time    0.9216: real time    0.9243
    SETDIJ:  cpu time    1.0102: real time    1.0127
    TRIAL :  cpu time  160.9381: real time  161.3756
    CORREC:  cpu time    0.0006: real time    0.0006
    CHARGE:  cpu time    0.7462: real time    0.7480
    --------------------------------------------
      LOOP:  cpu time  163.6190: real time  164.0671

 eigenvalue-minimisations  :     0
 total energy-change (2. order) :-0.1933957E-01  (-0.1788354E-01)
 number of electron     245.9999997 magnetization      -0.0000011
 augmentation part       14.4273579 magnetization      -0.0004698

 DIPCOR: dipole corrections for dipol
 direction  3 min pos     1,
 dipolmoment           0.000000      0.000000     -0.000533 electrons x Angstroem
 Tr[quadrupol]     -6636.867802

 energy correction for charged system         0.000000 eV
 dipol+quadrupol energy correction            0.000000 eV
 added-field ion interaction          0.000000 eV  (added to PSCEN)


 Free energy of the ion-electron system (eV)
  ---------------------------------------------------
  alpha Z        PSCENC =       102.90370970
  Ewald energy   TEWEN  =     39931.08162972
  -Hartree energ DENC   =    -48563.73940013
  -exchange      EXHF   =       562.96723005
  -V(xc)+E(xc)   XCENC  =       627.27165629
  PAW double counting   =     27278.86536460   -27326.70534568
  entropy T*S    EENTRO =        -0.00002229
  eigenvalues    EBANDS =     -3241.78171018
  atomic energy  EATOM  =     10018.07893457
  ---------------------------------------------------
  free energy    TOTEN  =      -611.05795609 eV

  energy without entropy =     -611.05793379  energy(sigma->0) =     -611.05794494
  exchange ACFDT corr.  =        -0.00001988  see jH, gK, PRB 81, 115126


--------------------------------------------------------------------------------------------------------




--------------------------------------- Iteration      1(  16)  ---------------------------------------


    POTLOK:  cpu time    0.9200: real time    0.9228
    SETDIJ:  cpu time    0.9938: real time    0.9963
    TRIAL :  cpu time  160.7257: real time  161.1569
    CORREC:  cpu time    0.0006: real time    0.0006
    CHARGE:  cpu time    0.7488: real time    0.7507
    --------------------------------------------
      LOOP:  cpu time  163.3910: real time  163.8330

 eigenvalue-minimisations  :     0
 total energy-change (2. order) :-0.1715816E-01  (-0.1588829E-01)
 number of electron     245.9999997 magnetization      -0.0000010
 augmentation part       14.4280612 magnetization      -0.0004942

 DIPCOR: dipole corrections for dipol
 direction  3 min pos     1,
 dipolmoment           0.000000      0.000000     -0.000554 electrons x Angstroem
 Tr[quadrupol]     -6636.872242

 energy correction for charged system         0.000000 eV
 dipol+quadrupol energy correction            0.000000 eV
 added-field ion interaction          0.000000 eV  (added to PSCEN)


 Free energy of the ion-electron system (eV)
  ---------------------------------------------------
  alpha Z        PSCENC =       102.90370970
  Ewald energy   TEWEN  =     39931.08162972
  -Hartree energ DENC   =    -48563.87607198
  -exchange      EXHF   =       563.02364694
  -V(xc)+E(xc)   XCENC  =       627.31711217
  PAW double counting   =     27282.99066943   -27330.86379424
  entropy T*S    EENTRO =        -0.00002022
  eigenvalues    EBANDS =     -3241.73092825
  atomic energy  EATOM  =     10018.07893457
  ---------------------------------------------------
  free energy    TOTEN  =      -611.07511424 eV

  energy without entropy =     -611.07509403  energy(sigma->0) =     -611.07510414
  exchange ACFDT corr.  =        -0.00001743  see jH, gK, PRB 81, 115126


--------------------------------------------------------------------------------------------------------




--------------------------------------- Iteration      1(  17)  ---------------------------------------


    POTLOK:  cpu time    0.9222: real time    0.9259
    SETDIJ:  cpu time    0.9577: real time    0.9600
    TRIAL :  cpu time  161.6611: real time  162.1134
    CORREC:  cpu time    0.0006: real time    0.0006
    CHARGE:  cpu time    0.7501: real time    0.7519
    --------------------------------------------
      LOOP:  cpu time  164.2935: real time  164.7577

 eigenvalue-minimisations  :     0
 total energy-change (2. order) :-0.1528093E-01  (-0.1417445E-01)
 number of electron     245.9999997 magnetization      -0.0000010
 augmentation part       14.4289546 magnetization      -0.0005191

 DIPCOR: dipole corrections for dipol
 direction  3 min pos     1,
 dipolmoment           0.000000      0.000000     -0.000585 electrons x Angstroem
 Tr[quadrupol]     -6636.876227

 energy correction for charged system         0.000000 eV
 dipol+quadrupol energy correction            0.000000 eV
 added-field ion interaction          0.000000 eV  (added to PSCEN)


 Free energy of the ion-electron system (eV)
  ---------------------------------------------------
  alpha Z        PSCENC =       102.90370970
  Ewald energy   TEWEN  =     39931.08162972
  -Hartree energ DENC   =    -48563.99387484
  -exchange      EXHF   =       563.07594503
  -V(xc)+E(xc)   XCENC  =       627.35975014
  PAW double counting   =     27286.92594828   -27334.83048552
  entropy T*S    EENTRO =        -0.00001860
  eigenvalues    EBANDS =     -3241.69193204
  atomic energy  EATOM  =     10018.07893457
  ---------------------------------------------------
  free energy    TOTEN  =      -611.09039517 eV

  energy without entropy =     -611.09037657  energy(sigma->0) =     -611.09038587
  exchange ACFDT corr.  =        -0.00001560  see jH, gK, PRB 81, 115126


--------------------------------------------------------------------------------------------------------




--------------------------------------- Iteration      1(  18)  ---------------------------------------


    POTLOK:  cpu time    0.9181: real time    0.9210
    SETDIJ:  cpu time    1.0111: real time    1.0135
    TRIAL :  cpu time  160.6518: real time  161.0814
    CORREC:  cpu time    0.0006: real time    0.0006
    CHARGE:  cpu time    0.7477: real time    0.7495
    --------------------------------------------
      LOOP:  cpu time  163.3309: real time  163.7712

 eigenvalue-minimisations  :     0
 total energy-change (2. order) :-0.1365883E-01  (-0.1270834E-01)
 number of electron     245.9999997 magnetization      -0.0000010
 augmentation part       14.4297271 magnetization      -0.0005381

 DIPCOR: dipole corrections for dipol
 direction  3 min pos     1,
 dipolmoment           0.000000      0.000000     -0.000618 electrons x Angstroem
 Tr[quadrupol]     -6636.879760

 energy correction for charged system         0.000000 eV
 dipol+quadrupol energy correction            0.000000 eV
 added-field ion interaction          0.000000 eV  (added to PSCEN)


 Free energy of the ion-electron system (eV)
  ---------------------------------------------------
  alpha Z        PSCENC =       102.90370970
  Ewald energy   TEWEN  =     39931.08162972
  -Hartree energ DENC   =    -48564.11093522
  -exchange      EXHF   =       563.12459986
  -V(xc)+E(xc)   XCENC  =       627.40002587
  PAW double counting   =     27290.54874763   -27338.48846565
  entropy T*S    EENTRO =        -0.00001731
  eigenvalues    EBANDS =     -3241.64228187
  atomic energy  EATOM  =     10018.07893457
  ---------------------------------------------------
  free energy    TOTEN  =      -611.10405401 eV

  energy without entropy =     -611.10403669  energy(sigma->0) =     -611.10404535
  exchange ACFDT corr.  =        -0.00001418  see jH, gK, PRB 81, 115126


--------------------------------------------------------------------------------------------------------




--------------------------------------- Iteration      1(  19)  ---------------------------------------


    POTLOK:  cpu time    0.9161: real time    0.9212
    SETDIJ:  cpu time    1.0301: real time    1.0326
    TRIAL :  cpu time  161.2800: real time  161.7117
    CORREC:  cpu time    0.0006: real time    0.0006
    CHARGE:  cpu time    0.7465: real time    0.7483
    --------------------------------------------
      LOOP:  cpu time  163.9750: real time  164.4197

 eigenvalue-minimisations  :     0
 total energy-change (2. order) :-0.1226568E-01  (-0.1144579E-01)
 number of electron     245.9999997 magnetization      -0.0000009
 augmentation part       14.4302041 magnetization      -0.0005534

 DIPCOR: dipole corrections for dipol
 direction  3 min pos     1,
 dipolmoment           0.000000      0.000000     -0.000644 electrons x Angstroem
 Tr[quadrupol]     -6636.882804

 energy correction for charged system         0.000000 eV
 dipol+quadrupol energy correction            0.000000 eV
 added-field ion interaction          0.000000 eV  (added to PSCEN)


 Free energy of the ion-electron system (eV)
  ---------------------------------------------------
  alpha Z        PSCENC =       102.90370970
  Ewald energy   TEWEN  =     39931.08162972
  -Hartree energ DENC   =    -48564.20793422
  -exchange      EXHF   =       563.17013170
  -V(xc)+E(xc)   XCENC  =       627.43808746
  PAW double counting   =     27293.80440042   -27341.77817617
  entropy T*S    EENTRO =        -0.00001626
  eigenvalues    EBANDS =     -3241.60708557
  atomic energy  EATOM  =     10018.07893457
  ---------------------------------------------------
  free energy    TOTEN  =      -611.11631969 eV

  energy without entropy =     -611.11630343  energy(sigma->0) =     -611.11631156
  exchange ACFDT corr.  =        -0.00001305  see jH, gK, PRB 81, 115126


--------------------------------------------------------------------------------------------------------




--------------------------------------- Iteration      1(  20)  ---------------------------------------


    POTLOK:  cpu time    0.9168: real time    0.9238
    SETDIJ:  cpu time    1.0216: real time    1.0251
    TRIAL :  cpu time  161.3724: real time  161.8106
    CORREC:  cpu time    0.0006: real time    0.0006
    CHARGE:  cpu time    0.7484: real time    0.7502
    --------------------------------------------
      LOOP:  cpu time  164.0610: real time  164.5157

 eigenvalue-minimisations  :     0
 total energy-change (2. order) :-0.1106242E-01  (-0.1033229E-01)
 number of electron     245.9999997 magnetization      -0.0000009
 augmentation part       14.4305837 magnetization      -0.0005672

 DIPCOR: dipole corrections for dipol
 direction  3 min pos     1,
[...]
  Kinetic  3651.27224  3671.02753  4216.80285     3.30718    -4.28424     0.82908
  Fock     -339.91076  -335.15572  -318.87641     3.31187     3.88857     0.12901
  -------------------------------------------------------------------------------------
  Total     -35.34913   -44.41715    -0.48760    -2.69268    -0.12919     0.19646
  in kB     -17.82742   -22.40064    -0.24591    -1.35798    -0.06515     0.09908
  external pressure =      -13.49 kB  Pullay stress =        0.00 kB


 VOLUME and BASIS-vectors are now :
 -----------------------------------------------------------------------------
  energy-cutoff  :      500.00
  volume of cell :     3176.88
      direct lattice vectors                 reciprocal lattice vectors
    12.670389181  0.023212330 -0.004687820     0.078924436 -0.000137402  0.000027528
     0.021848969 12.550236911  0.000340548    -0.000145975  0.079680025  0.000001028
    -0.006968616 -0.000270411 19.978384754     0.000018522 -0.000001390  0.050054103

  length of vectors
    12.670411311 12.550255934 19.978385971     0.078924560  0.079680159  0.050054106


 FORCES acting on ions:
    Electron-Ion                     Ewald-Force                    Non-Local-Force
 -----------------------------------------------------------------------------------------------
   0.732E+01 0.275E+01 -.693E+00   -.741E+01 -.294E+01 0.680E+00   0.175E+00 0.353E+00 0.248E-01
   0.488E+01 0.489E+00 0.594E+00   -.509E+01 -.642E+00 -.595E+00   0.290E+00 0.147E+00 0.604E-02
   0.139E+02 -.119E+00 0.120E+00   -.140E+02 0.741E-01 -.112E+00   0.143E+00 0.523E-01 -.154E-02
   0.108E+02 0.959E+01 -.248E+01   -.110E+02 -.103E+02 0.255E+01   0.676E-01 0.492E+00 -.651E-01
   0.191E+02 0.129E+02 -.240E+01   -.199E+02 -.139E+02 0.237E+01   0.807E+00 0.113E+01 0.114E-01
   0.196E+02 -.300E+01 -.632E+00   -.201E+02 0.333E+01 0.601E+00   0.755E+00 -.124E+00 0.673E-02
   0.201E+02 0.174E+01 0.740E+00   -.208E+02 -.174E+01 -.796E+00   0.649E+00 -.588E-02 0.586E-01
   0.250E+02 0.288E+02 -.375E+01   -.278E+02 -.325E+02 0.392E+01   0.230E+01 0.363E+01 -.239E+00
   0.156E+02 -.976E+00 -.138E+00   -.156E+02 0.112E+01 0.170E+00   0.151E+00 -.431E-01 -.308E-01
   0.402E+02 -.143E+02 0.867E+00   -.449E+02 0.147E+02 -.719E+00   0.428E+01 -.598E+00 -.178E+00
   0.139E+02 0.375E+01 -.130E+01   -.143E+02 -.399E+01 0.128E+01   0.412E+00 0.742E-01 0.344E-01
   0.478E+02 0.153E+02 -.412E+01   -.515E+02 -.156E+02 0.411E+01   0.351E+01 0.442E+00 -.482E-02
   0.234E+01 -.334E+02 -.649E+01   -.104E+01 0.365E+02 0.651E+01   -.104E+01 -.298E+01 -.725E-01
   0.994E+01 -.131E+02 -.418E+01   -.987E+01 0.137E+02 0.417E+01   0.510E-01 -.544E+00 -.174E-01
   0.180E+01 -.115E+01 0.258E+00   -.186E+01 0.117E+01 -.263E+00   0.192E+00 -.679E-01 0.144E-01
   0.180E+02 -.280E+01 -.197E+01   -.183E+02 0.300E+01 0.198E+01   0.352E+00 -.741E-01 -.767E-02
   0.941E+01 -.396E+01 -.147E+01   -.920E+01 0.404E+01 0.145E+01   -.112E+00 -.186E+00 0.207E-01
   -.948E+01 0.396E+01 0.229E+01   0.928E+01 -.404E+01 -.227E+01   0.122E+00 0.177E+00 -.206E-01
   0.180E+01 0.150E+02 0.479E+00   -.158E+01 -.156E+02 -.488E+00   -.756E-01 0.774E+00 0.261E-01
   0.760E+00 0.431E+01 0.150E+01   -.402E+00 -.465E+01 -.151E+01   -.251E+00 0.316E+00 0.716E-02
   -.995E+01 0.132E+02 0.469E+01   0.988E+01 -.138E+02 -.469E+01   -.463E-01 0.535E+00 0.221E-01
   -.240E+01 0.333E+02 0.625E+01   0.109E+01 -.365E+02 -.628E+01   0.105E+01 0.297E+01 0.783E-01
   -.965E+01 0.340E+02 0.821E+00   0.120E+02 -.380E+02 -.105E+01   -.179E+01 0.346E+01 0.215E+00
   -.250E+02 -.287E+02 0.282E+01   0.277E+02 0.324E+02 -.301E+01   -.231E+01 -.362E+01 0.253E+00
   0.982E+01 -.339E+02 -.135E+01   -.122E+02 0.379E+02 0.156E+01   0.179E+01 -.346E+01 -.204E+00
   -.191E+02 -.131E+02 0.222E+01   0.199E+02 0.141E+02 -.220E+01   -.808E+00 -.112E+01 -.101E-01
   -.109E+02 -.960E+01 0.288E+01   0.110E+02 0.103E+02 -.295E+01   -.712E-01 -.486E+00 0.677E-01
   -.787E+00 -.423E+01 -.596E+00   0.428E+00 0.457E+01 0.601E+00   0.258E+00 -.308E+00 -.303E-02
   -.187E+01 -.152E+02 -.160E+00   0.166E+01 0.158E+02 0.168E+00   0.724E-01 -.766E+00 -.231E-01
   -.728E+01 -.277E+01 0.149E+01   0.737E+01 0.296E+01 -.148E+01   -.168E+00 -.364E+00 -.209E-01
   -.828E+01 0.152E+00 0.293E-01   0.838E+01 -.119E+00 -.242E-01   0.333E-01 -.272E-01 -.107E-01
   -.179E+02 0.276E+01 0.253E+01   0.183E+02 -.296E+01 -.254E+01   -.347E+00 0.705E-01 0.506E-02
   -.177E+01 0.120E+01 0.515E+00   0.183E+01 -.122E+01 -.512E+00   -.180E+00 0.696E-01 -.123E-01
   0.676E+01 -.313E+01 -.374E-01   -.701E+01 0.320E+01 0.298E-01   0.143E+00 -.109E+00 0.243E-02
   -.591E+01 -.444E+01 -.216E+00   0.624E+01 0.477E+01 0.229E+00   -.190E+00 -.220E+00 -.151E-01
   -.478E+02 -.153E+02 0.411E+01   0.516E+02 0.156E+02 -.410E+01   -.350E+01 -.451E+00 0.899E-02
   -.140E+02 -.375E+01 0.185E+01   0.143E+02 0.400E+01 -.183E+01   -.409E+00 -.756E-01 -.314E-01
   0.434E+01 -.491E+01 -.531E+00   -.485E+01 0.516E+01 0.541E+00   0.270E+00 -.250E+00 -.476E-02
   0.341E+01 -.424E+01 0.170E+00   -.342E+01 0.427E+01 -.170E+00   0.155E+00 -.685E-01 0.973E-03
   -.401E+02 0.143E+02 -.122E+01   0.449E+02 -.147E+02 0.106E+01   -.428E+01 0.587E+00 0.190E+00
   -.156E+02 0.105E+01 0.188E+00   0.156E+02 -.120E+01 -.222E+00   -.154E+00 0.269E-01 0.361E-01
   -.337E+01 0.426E+01 0.219E+00   0.338E+01 -.429E+01 -.215E+00   -.152E+00 0.943E-01 -.183E-02
   -.441E+01 0.498E+01 0.115E+01   0.493E+01 -.523E+01 -.116E+01   -.282E+00 0.263E+00 0.755E-02
   -.201E+02 -.171E+01 -.604E+00   0.208E+02 0.171E+01 0.661E+00   -.648E+00 0.717E-02 -.599E-01
   -.195E+02 0.290E+01 0.809E+00   0.201E+02 -.323E+01 -.780E+00   -.771E+00 0.121E+00 -.369E-02
   0.606E+01 0.433E+01 0.101E+01   -.640E+01 -.465E+01 -.102E+01   0.193E+00 0.225E+00 0.180E-01
   -.685E+01 0.324E+01 0.806E+00   0.710E+01 -.331E+01 -.798E+00   -.144E+00 0.102E+00 -.356E-02
   -.139E+02 0.131E+00 0.560E+00   0.140E+02 -.840E-01 -.566E+00   -.136E+00 -.424E-01 -.977E-03
   -.484E+01 -.560E+00 0.242E-01   0.504E+01 0.710E+00 -.251E-01   -.295E+00 -.145E+00 -.299E-02
   0.834E+01 -.178E+00 0.828E+00   -.844E+01 0.148E+00 -.833E+00   -.233E-01 0.142E-01 0.120E-01
   0.325E+02 -.398E+02 0.142E+02   -.250E+02 0.558E+02 -.148E+02   -.709E+01 -.158E+02 0.704E+00
   0.194E+02 0.381E+02 -.128E+02   -.914E+01 -.557E+02 0.133E+02   -.101E+02 0.167E+02 -.456E+00
   -.111E+02 -.253E+02 -.130E+02   0.200E+02 0.402E+02 0.141E+02   -.893E+01 -.138E+02 -.112E+01
   -.195E+02 -.380E+02 0.119E+02   0.923E+01 0.556E+02 -.123E+02   0.101E+02 -.167E+02 0.388E+00
   -.326E+02 0.398E+02 -.161E+02   0.251E+02 -.557E+02 0.168E+02   0.708E+01 0.158E+02 -.795E+00
   0.111E+02 0.252E+02 0.110E+02   -.199E+02 -.401E+02 -.121E+02   0.889E+01 0.138E+02 0.104E+01
   0.477E+01 0.148E+02 0.875E+02   -.985E+01 -.111E+02 -.858E+02   0.386E+01 -.227E+01 -.185E+01
   -.469E+01 -.147E+02 -.910E+02   0.978E+01 0.111E+02 0.893E+02   -.387E+01 0.227E+01 0.188E+01
 -----------------------------------------------------------------------------------------------
   0.289E-01 -.119E-02 0.157E+00   -.121E-12 0.398E-12 0.000E+00   -.255E-01 -.153E-02 -.140E+00
 
 
 POSITION                                       TOTAL-FORCE (eV/Angst)
 -----------------------------------------------------------------------------------
      2.82437     12.53980      9.99381         0.090905      0.186765      0.012860
      0.69537      1.25093      9.98804         0.091499      0.002869      0.005219
      1.41227     12.54634      9.99076        -0.003879      0.009434      0.006486
      3.51081      1.21430      9.99699        -0.073313     -0.194448      0.001364
      2.82222      2.45197      9.99535         0.094998      0.171375     -0.013023
      0.72768      3.76423      9.98699         0.277153      0.204151     -0.024619
      1.40358      2.49357      9.98732         0.010073     -0.007068      0.005670
      3.56499      3.66060      9.99457        -0.337027      0.138246     -0.076864
      0.81970      6.25095      9.98671         0.091440      0.095417      0.000162
      1.51485      4.97269      9.97718        -0.271649     -0.180007     -0.039254
      0.75289      8.77142      9.99467         0.106093     -0.159492      0.013613
      1.51755      7.54136      9.99770        -0.046400      0.135279     -0.018389
      3.53694      8.84484     10.00109         0.207556     -0.019176     -0.060046
      2.83744     10.07004     10.00149         0.115973      0.019574     -0.021951
      0.72144     11.28967      9.99078         0.132698     -0.053666      0.010013
      1.42204     10.04291      9.99703        -0.007794      0.127649      0.003067
      3.53323     11.30774      9.99513         0.094432     -0.113035      0.005401
      7.06309     12.54638      9.97844        -0.078790      0.106133     -0.003727
      4.92547      1.21821      9.99054         0.129115      0.197379      0.019279
      5.65474     12.54028      9.98428         0.100003     -0.007248      0.001621
      7.73717      1.23402      9.97320        -0.113953     -0.026721      0.024316
      7.03799      2.45927      9.97755        -0.196155      0.009220      0.058693
      5.61309      2.44938      9.99527         0.493845     -0.385106      0.000524
      7.01149      7.64294      9.98780         0.327895     -0.139156      0.073200
      4.96213      8.85429      9.98477        -0.487190      0.391968     -0.004352
      7.75381      8.85133      9.98273        -0.092608     -0.152943      0.011231
      7.06448     10.08890      9.97844         0.073475      0.203638      0.001388
      4.94169     11.31323      9.98951        -0.093042      0.011564      0.001638
      5.64967     10.08508      9.98553        -0.132217     -0.183286     -0.017277
      7.77215     11.31426      9.97962        -0.086171     -0.198968     -0.011270
     11.28587     12.56910      9.98377         0.118376      0.005402     -0.006315
      9.15261      1.26114      9.97649         0.011533     -0.129286     -0.003688
      9.87477     12.56449      9.98158        -0.121710      0.054492     -0.010025
     11.94704      1.28181      9.98396        -0.079206     -0.047565     -0.005116
     11.25001      2.54343      9.98424         0.129494      0.096518     -0.003882
      9.05795      3.76289      9.97990         0.056466     -0.146323      0.015961
      9.82247      2.53246      9.97960        -0.110182      0.166612     -0.011547
     11.95647      3.80179      9.98530        -0.229587     -0.015153      0.004527
     11.23082      5.04981      9.98622         0.161309     -0.052703      0.001377
      9.06183      6.33135     10.00232         0.267162      0.173563      0.037038
      9.75674      5.05317      9.99069        -0.103655     -0.118809      0.002801
     12.01597      6.27595      9.98453        -0.159069      0.077686      0.001447
     11.29050      7.52439      9.98439         0.219309      0.023162     -0.000890
      9.17243      8.81003      9.98866        -0.003599      0.007398     -0.006459
      9.84912      7.53954      9.98946        -0.297051     -0.206952      0.026116
     11.99597      8.78326      9.98407        -0.131991     -0.085448      0.007893
     11.29854     10.04544      9.98351         0.083555      0.033825      0.004722
      9.18428     11.30744      9.98214         0.009239      0.003372     -0.006087
      9.88004     10.05287      9.98511        -0.100669     -0.002691     -0.004110
     11.98084     11.30872      9.98330        -0.113110     -0.016675      0.007954
      2.92095      4.87492      9.95041        -0.169036     -1.198043      0.158535
      2.89829      7.62380     10.00132        -0.713657      0.509609      0.009955
      4.94663      3.66587     10.02345        -0.820080     -0.019746     -0.050429
      7.67716      3.68011      9.97930         0.700583     -0.497198     -0.013353
      7.65557      6.42860     10.03350         0.166485      1.208283     -0.166253
      5.62988      7.63852      9.96069         0.805820     -0.000913      0.045901
      4.27599      6.21791      9.87051        -0.889957      1.169582     -0.118110
      6.30059      5.08632     10.11552         0.896259     -1.182341      0.117065
 -----------------------------------------------------------------------------------
    total drift:                                0.000251     -0.000834     -0.000198


--------------------------------------------------------------------------------------------------------



  FREE ENERGIE OF THE ION-ELECTRON SYSTEM (eV)
  ---------------------------------------------------
  free  energy   TOTEN  =      -611.28589996 eV

  energy  without entropy=     -611.28589900  energy(sigma->0) =     -611.28589948
 


--------------------------------------------------------------------------------------------------------


    POTLOK:  cpu time    1.8986: real time    1.9037


--------------------------------------------------------------------------------------------------------


 stress matrix after NEB project (eV)
    -35.34913     -2.69250      0.19646
     -2.69268    -44.41715     -0.13820
      0.18318     -0.12919     -0.48760
  FORCES: max atom, RMS     1.488259    0.469581
  FORCE total and by dimension    3.576226    1.208283
  Stress total and by dimension   56.897186   44.417145
 writing wavefunctions
     LOOP+:  cpu time41227.0693: real time41348.7881
 vacuum level on the upper side and lower side of the slab         1.483         1.483
    4ORBIT:  cpu time    0.0000: real time    0.0000
 


 total charge     
 
# of ion       s       p       d       tot
------------------------------------------
    1        0.872   1.796   0.000   2.668
    2        0.866   1.773   0.000   2.638
    3        0.867   1.770   0.000   2.637
    4        0.873   1.793   0.000   2.666
    5        0.869   1.807   0.000   2.676
    6        0.858   1.749   0.000   2.607
    7        0.866   1.761   0.000   2.627
    8        0.858   1.710   0.000   2.568
    9        0.841   1.719   0.000   2.560
   10        0.843   1.691   0.000   2.534
   11        0.861   1.757   0.000   2.619
   12        0.848   1.692   0.000   2.540
   13        0.864   1.766   0.000   2.630
   14        0.873   1.798   0.000   2.671
   15        0.866   1.782   0.000   2.648
   16        0.867   1.767   0.000   2.634
   17        0.870   1.799   0.000   2.669
   18        0.870   1.799   0.000   2.669
   19        0.872   1.802   0.000   2.675
   20        0.871   1.799   0.000   2.670
   21        0.873   1.798   0.000   2.671
   22        0.864   1.766   0.000   2.630
   23        0.862   1.766   0.000   2.628
   24        0.858   1.710   0.000   2.568
   25        0.862   1.766   0.000   2.628
   26        0.869   1.807   0.000   2.676
   27        0.873   1.793   0.000   2.666
   28        0.871   1.799   0.000   2.670
   29        0.872   1.802   0.000   2.675
   30        0.872   1.796   0.000   2.667
   31        0.866   1.768   0.000   2.634
   32        0.867   1.766   0.000   2.634
   33        0.866   1.782   0.000   2.648
   34        0.864   1.763   0.000   2.626
   35        0.860   1.751   0.000   2.611
   36        0.848   1.691   0.000   2.540
   37        0.861   1.757   0.000   2.618
   38        0.856   1.744   0.000   2.600
   39        0.851   1.707   0.000   2.558
   40        0.843   1.691   0.000   2.534
   41        0.841   1.719   0.000   2.560
   42        0.851   1.707   0.000   2.557
   43        0.856   1.744   0.000   2.600
   44        0.866   1.761   0.000   2.627
   45        0.858   1.749   0.000   2.607
   46        0.860   1.751   0.000   2.611
   47        0.864   1.762   0.000   2.626
   48        0.867   1.770   0.000   2.637
   49        0.866   1.773   0.000   2.638
   50        0.866   1.768   0.000   2.634
   51        1.225   2.688   0.000   3.913
   52        1.230   2.687   0.000   3.917
   53        1.223   2.689   0.000   3.912
   54        1.230   2.686   0.000   3.917
   55        1.225   2.688   0.000   3.912
   56        1.223   2.689   0.000   3.912
   57        0.454   0.538   6.098   7.090
   58        0.454   0.538   6.100   7.092
--------------------------------------------------
tot         51.391 105.262  12.198 168.851
 


 magnetization (x)
 
# of ion       s       p       d       tot
------------------------------------------
    1       -0.000  -0.001   0.000  -0.001
    2        0.000   0.003   0.000   0.004
    3       -0.000   0.001   0.000   0.001
    4        0.001   0.012   0.000   0.013
    5        0.000   0.005   0.000   0.005
    6        0.001   0.006   0.000   0.007
    7       -0.000  -0.005   0.000  -0.005
    8        0.002   0.015   0.000   0.016
    9        0.001   0.014   0.000   0.015
   10       -0.001  -0.021   0.000  -0.022
   11        0.001   0.005   0.000   0.006
   12       -0.000  -0.013   0.000  -0.013
   13        0.000  -0.002   0.000  -0.002
   14        0.000   0.003   0.000   0.003
   15        0.000   0.005   0.000   0.005
   16       -0.000  -0.006   0.000  -0.007
   17        0.000   0.004   0.000   0.004
   18       -0.000  -0.004   0.000  -0.004
   19       -0.000  -0.002   0.000  -0.002
   20        0.000   0.001   0.000   0.001
   21       -0.000  -0.003   0.000  -0.003
   22       -0.000   0.002   0.000   0.002
   23        0.001   0.016   0.000   0.017
   24       -0.002  -0.015   0.000  -0.016
   25       -0.001  -0.017   0.000  -0.018
   26       -0.000  -0.005   0.000  -0.005
   27       -0.001  -0.012   0.000  -0.013
   28       -0.000  -0.001   0.000  -0.001
   29        0.000   0.002   0.000   0.002
   30        0.000   0.001   0.000   0.001
   31        0.001   0.006   0.000   0.007
   32        0.000   0.006   0.000   0.007
   33       -0.000  -0.005   0.000  -0.005
   34       -0.001  -0.009   0.000  -0.010
   35        0.001   0.007   0.000   0.008
   36        0.000   0.013   0.000   0.013
   37       -0.001  -0.005   0.000  -0.007
   38       -0.001  -0.009   0.000  -0.010
   39        0.001   0.006   0.000   0.007
   40        0.001   0.021   0.000   0.022
   41       -0.001  -0.014   0.000  -0.016
   42       -0.001  -0.006   0.000  -0.007
   43        0.001   0.009   0.000   0.009
   44        0.000   0.005   0.000   0.005
   45       -0.001  -0.007   0.000  -0.007
   46       -0.001  -0.007   0.000  -0.008
   47        0.001   0.009   0.000   0.010
   48        0.000  -0.001   0.000  -0.001
   49       -0.000  -0.003   0.000  -0.004
   50       -0.001  -0.007   0.000  -0.007
   51       -0.002  -0.021   0.000  -0.024
   52        0.010   0.023   0.000   0.033
   53        0.012   0.039   0.000   0.051
   54       -0.010  -0.024   0.000  -0.034
   55        0.002   0.021   0.000   0.024
   56       -0.012  -0.039   0.000  -0.051
   57        0.044   0.039   3.159   3.242
   58       -0.044  -0.040  -3.152  -3.236
--------------------------------------------------
tot         -0.000  -0.004   0.007   0.003
 

 total amount of memory used by VASP MPI-rank0   151658. kBytes
=======================================================================

   base      :      30000. kBytes
   nonl-proj :       3696. kBytes
   fftplans  :      11851. kBytes
   grid      :      28947. kBytes
   one-center:         62. kBytes
   HF        :         23. kBytes
   nonlr-proj:      14913. kBytes
   wavefun   :      62166. kBytes
 
  
  
 General timing and accounting informations for this job:
 ========================================================
  
                  Total CPU time used (sec):    41276.102
                            User time (sec):    41153.551
                          System time (sec):      122.552
                         Elapsed time (sec):    41405.795
  
                   Maximum memory used (kb):      393444.
                   Average memory used (kb):           0.
  
                          Minor page faults:      3415024
                          Major page faults:            0
                 Voluntary context switches:       510926
