 vasp.5.4.4.18Apr17-6-g9f103f2a35 (build Feb 25 2019 10:51:38) complex          
  
 executed on             LinuxIFC date 2021.07.24  10:53:27
 running on   32 total cores
 distrk:  each k-point on   32 cores,    1 groups
 distr:  one band on NCORES_PER_BAND=  32 cores,    1 groups


--------------------------------------------------------------------------------------------------------


 INCAR:
 POTCAR:    PAW_PBE C 08Apr2002                   
 POTCAR:    PAW_PBE N 08Apr2002                   
 POTCAR:    PAW_PBE Fe 06Sep2000                  
 POTCAR:    PAW_PBE Cr 06Sep2000                  

 ----------------------------------------------------------------------------- 
|                                                                             |
|           W    W    AA    RRRRR   N    N  II  N    N   GGGG   !!!           |
|           W    W   A  A   R    R  NN   N  II  NN   N  G    G  !!!           |
|           W    W  A    A  R    R  N N  N  II  N N  N  G       !!!           |
|           W WW W  AAAAAA  RRRRR   N  N N  II  N  N N  G  GGG   !            |
|           WW  WW  A    A  R   R   N   NN  II  N   NN  G    G                |
|           W    W  A    A  R    R  N    N  II  N    N   GGGG   !!!           |
|                                                                             |
|      For optimal performance we recommend to set                            |
|        NCORE= 4 - approx SQRT( number of cores)                             |
|      NCORE specifies how many cores store one orbital (NPAR=cpu/NCORE).     |
|      This setting can  greatly improve the performance of VASP for DFT.     |
|      The default,   NCORE=1            might be grossly inefficient         |
|      on modern multi-core architectures or massively parallel machines.     |
|      Do your own testing !!!!                                               |
|      Unfortunately you need to use the default for GW and RPA calculations. |
|      (for HF NCORE is supported but not extensively tested yet)             |
|                                                                             |
 ----------------------------------------------------------------------------- 

 POTCAR:    PAW_PBE C 08Apr2002                   
   VRHFIN =C: s2p2                                                              
   LEXCH  = PE                                                                  
   EATOM  =   147.1560 eV,   10.8157 Ry                                         
                                                                                
   TITEL  = PAW_PBE C 08Apr2002                                                 
   LULTRA =        F    use ultrasoft PP ?                                      
   IUNSCR =        1    unscreen: 0-lin 1-nonlin 2-no                           
   RPACOR =    1.200    partial core radius                                     
   POMASS =   12.011; ZVAL   =    4.000    mass and valenz                      
   RCORE  =    1.500    outmost cutoff radius                                   
   RWIGS  =    1.630; RWIGS  =    0.863    wigner-seitz radius (au A)           
   ENMAX  =  400.000; ENMIN  =  300.000 eV                                      
   ICORE  =        2    local potential                                         
   LCOR   =        T    correct aug charges                                     
   LPAW   =        T    paw PP                                                  
   EAUG   =  644.873                                                            
   DEXC   =    0.000                                                            
   RMAX   =    1.529    core radius for proj-oper                               
   RAUG   =    1.300    factor for augmentation sphere                          
   RDEP   =    1.501    radius for radial grids                                 
   RDEPT  =    1.300    core radius for aug-charge                              
                                                                                
   Atomic configuration                                                         
    4 entries                                                                   
     n  l   j            E        occ.                                          
     1  0  0.50      -273.3789   2.0000                                         
     2  0  0.50       -13.7508   2.0000                                         
     2  1  0.50        -5.2854   2.0000                                         
     3  2  1.50        -5.4423   0.0000                                         
   Description                                                                  
     l       E           TYP  RCUT    TYP  RCUT                                 
     0    -13.7508458     23  1.200                                             
     0     -8.2022199     23  1.200                                             
     1     -5.2854383     23  1.500                                             
     1     34.0145650     23  1.500                                             
     2     -5.4423304      7  1.500                                             
  local pseudopotential read in
  partial core-charges read in
  partial kinetic energy density read in
  atomic valenz-charges read in
  non local Contribution for L=           0  read in
    real space projection operators read in
  non local Contribution for L=           0  read in
    real space projection operators read in
  non local Contribution for L=           1  read in
    real space projection operators read in
  non local Contribution for L=           1  read in
    real space projection operators read in
    PAW grid and wavefunctions read in
 
   number of l-projection  operators is LMAX  =           4
   number of lm-projection operators is LMMAX =           8
 
 POTCAR:    PAW_PBE N 08Apr2002                   
   VRHFIN =N: s2p3                                                              
   LEXCH  = PE                                                                  
   EATOM  =   264.5486 eV,   19.4438 Ry                                         
                                                                                
   TITEL  = PAW_PBE N 08Apr2002                                                 
   LULTRA =        F    use ultrasoft PP ?                                      
   IUNSCR =        1    unscreen: 0-lin 1-nonlin 2-no                           
   RPACOR =    1.200    partial core radius                                     
   POMASS =   14.001; ZVAL   =    5.000    mass and valenz                      
   RCORE  =    1.500    outmost cutoff radius                                   
   RWIGS  =    1.400; RWIGS  =    0.741    wigner-seitz radius (au A)           
   ENMAX  =  400.000; ENMIN  =  300.000 eV                                      
   ICORE  =        2    local potential                                         
   LCOR   =        T    correct aug charges                                     
   LPAW   =        T    paw PP                                                  
   EAUG   =  627.112                                                            
   DEXC   =    0.000                                                            
   RMAX   =    1.529    core radius for proj-oper                               
   RAUG   =    1.300    factor for augmentation sphere                          
   RDEP   =    1.514    radius for radial grids                                 
   RDEPT  =    1.338    core radius for aug-charge                              
                                                                                
   Atomic configuration                                                         
    4 entries                                                                   
     n  l   j            E        occ.                                          
     1  0  0.50      -384.7179   2.0000                                         
     2  0  0.50       -18.5828   2.0000                                         
     2  1  0.50        -7.0898   3.0000                                         
     3  2  1.50        -6.8029   0.0000                                         
   Description                                                                  
     l       E           TYP  RCUT    TYP  RCUT                                 
     0    -18.5828119     23  1.200                                             
     0    -13.5018863     23  1.200                                             
     1     -7.0897853     23  1.500                                             
     1      9.5240782     23  1.500                                             
     2     -6.8029130      7  1.500                                             
  local pseudopotential read in
  partial core-charges read in
  partial kinetic energy density read in
  atomic valenz-charges read in
  non local Contribution for L=           0  read in
    real space projection operators read in
  non local Contribution for L=           0  read in
    real space projection operators read in
  non local Contribution for L=           1  read in
    real space projection operators read in
  non local Contribution for L=           1  read in
    real space projection operators read in
    PAW grid and wavefunctions read in
 
   number of l-projection  operators is LMAX  =           4
   number of lm-projection operators is LMMAX =           8
 
 POTCAR:    PAW_PBE Fe 06Sep2000                  
   VRHFIN =Fe:  d7 s1                                                           
   LEXCH  = PE                                                                  
   EATOM  =   594.3153 eV,   43.6809 Ry                                         
                                                                                
   TITEL  = PAW_PBE Fe 06Sep2000                                                
   LULTRA =        F    use ultrasoft PP ?                                      
   IUNSCR =        1    unscreen: 0-lin 1-nonlin 2-no                           
   RPACOR =    2.000    partial core radius                                     
   POMASS =   55.847; ZVAL   =    8.000    mass and valenz                      
   RCORE  =    2.300    outmost cutoff radius                                   
   RWIGS  =    2.460; RWIGS  =    1.302    wigner-seitz radius (au A)           
   ENMAX  =  267.882; ENMIN  =  200.911 eV                                      
   RCLOC  =    1.701    cutoff for local pot                                    
   LCOR   =        T    correct aug charges                                     
   LPAW   =        T    paw PP                                                  
   EAUG   =  511.368                                                            
   DEXC   =    0.000                                                            
   RMAX   =    2.356    core radius for proj-oper                               
   RAUG   =    1.300    factor for augmentation sphere                          
   RDEP   =    2.442    radius for radial grids                                 
   RDEPT  =    1.890    core radius for aug-charge                              
                                                                                
   Atomic configuration                                                         
    9 entries                                                                   
     n  l   j            E        occ.                                          
     1  0  0.50     -6993.8440   2.0000                                         
     2  0  0.50      -814.6047   2.0000                                         
     2  1  1.50      -693.3689   6.0000                                         
     3  0  0.50       -89.4732   2.0000                                         
     3  1  1.50       -55.6373   6.0000                                         
     3  2  2.50        -3.8151   7.0000                                         
     4  0  0.50        -4.2551   1.0000                                         
     4  1  1.50        -3.4015   0.0000                                         
     4  3  2.50        -1.3606   0.0000                                         
   Description                                                                  
     l       E           TYP  RCUT    TYP  RCUT                                 
     2     -3.8151135     23  2.300                                             
     2     -5.1756961     23  2.300                                             
     0     -4.2550963     23  2.300                                             
     0      7.2035603     23  2.300                                             
     1     -2.7211652     23  2.300                                             
     1     18.4316424     23  2.300                                             
  local pseudopotential read in
  partial core-charges read in
  partial kinetic energy density read in
  atomic valenz-charges read in
  non local Contribution for L=           2  read in
    real space projection operators read in
  non local Contribution for L=           2  read in
    real space projection operators read in
  non local Contribution for L=           0  read in
    real space projection operators read in
  non local Contribution for L=           0  read in
    real space projection operators read in
  non local Contribution for L=           1  read in
    real space projection operators read in
  non local Contribution for L=           1  read in
    real space projection operators read in
    PAW grid and wavefunctions read in
 
   number of l-projection  operators is LMAX  =           6
   number of lm-projection operators is LMMAX =          18
 
 POTCAR:    PAW_PBE Cr 06Sep2000                  
   VRHFIN =Cr : d5 s1                                                           
   LEXCH  = PE                                                                  
   EATOM  =   276.8859 eV,   20.3505 Ry                                         
                                                                                
   TITEL  = PAW_PBE Cr 06Sep2000                                                
   LULTRA =        F    use ultrasoft PP ?                                      
   IUNSCR =        1    unscreen: 0-lin 1-nonlin 2-no                           
   RPACOR =    2.080    partial core radius                                     
   POMASS =   51.996; ZVAL   =    6.000    mass and valenz                      
   RCORE  =    2.500    outmost cutoff radius                                   
   RWIGS  =    2.500; RWIGS  =    1.323    wigner-seitz radius (au A)           
   ENMAX  =  227.080; ENMIN  =  170.310 eV                                      
   RCLOC  =    1.721    cutoff for local pot                                    
   LCOR   =        T    correct aug charges                                     
   LPAW   =        T    paw PP                                                  
   EAUG   =  402.108                                                            
   DEXC   =    0.000                                                            
   RMAX   =    2.552    core radius for proj-oper                               
   RAUG   =    1.300    factor for augmentation sphere                          
   RDEP   =    2.609    radius for radial grids                                 
   RDEPT  =    2.065    core radius for aug-charge                              
                                                                                
   Atomic configuration                                                         
    9 entries                                                                   
     n  l   j            E        occ.                                          
     1  0  0.50     -5880.4963   2.0000                                         
     2  0  0.50      -667.0865   2.0000                                         
     2  1  1.50      -560.6250   6.0000                                         
     3  0  0.50       -73.9860   2.0000                                         
     3  1  1.50       -45.4378   6.0000                                         
     3  2  2.50        -2.9137   5.0000                                         
     4  0  0.50        -4.0071   1.0000                                         
     4  1  0.50        -1.2789   0.0000                                         
     4  3  2.50        -1.3606   0.0000                                         
   Description                                                                  
     l       E           TYP  RCUT    TYP  RCUT                                 
     2     -2.9136677     23  2.500                                             
     2     -4.2742503     23  2.500                                             
     0     -4.0071322     23  2.500                                             
     0      9.4498801     23  2.500                                             
     1     -5.4423304     23  2.500                                             
     1     27.2116520     23  2.500                                             
  local pseudopotential read in
  partial core-charges read in
  partial kinetic energy density read in
  atomic valenz-charges read in
  non local Contribution for L=           2  read in
    real space projection operators read in
  non local Contribution for L=           2  read in
    real space projection operators read in
  non local Contribution for L=           0  read in
    real space projection operators read in
  non local Contribution for L=           0  read in
    real space projection operators read in
  non local Contribution for L=           1  read in
    real space projection operators read in
  non local Contribution for L=           1  read in
    real space projection operators read in
    PAW grid and wavefunctions read in
 
   number of l-projection  operators is LMAX  =           6
   number of lm-projection operators is LMMAX =          18
 

 ----------------------------------------------------------------------------- 
|                                                                             |
|  ADVICE TO THIS USER RUNNING 'VASP/VAMP'   (HEAR YOUR MASTER'S VOICE ...):  |
|                                                                             |
|      You have a (more or less) 'large supercell' and for larger cells       |
|      it might be more efficient to use real space projection opertators     |
|      So try LREAL= Auto  in the INCAR   file.                               |
|      Mind:          For very  accurate calculation you might also keep the  |
|      reciprocal projection scheme          (i.e. LREAL=.FALSE.)             |
|                                                                             |
 ----------------------------------------------------------------------------- 

  PAW_PBE C 08Apr2002                   :
 energy of atom  1       EATOM= -147.1560
 kinetic energy error for atom=    0.0076 (will be added to EATOM!!)
  PAW_PBE N 08Apr2002                   :
 energy of atom  2       EATOM= -264.5486
 kinetic energy error for atom=    0.0138 (will be added to EATOM!!)
  PAW_PBE Fe 06Sep2000                  :
 energy of atom  3       EATOM= -594.3153
 kinetic energy error for atom=    0.0026 (will be added to EATOM!!)
  PAW_PBE Cr 06Sep2000                  :
 energy of atom  4       EATOM= -276.8859
 kinetic energy error for atom=    0.0012 (will be added to EATOM!!)
 
 
 POSCAR:  C  N Fe Cr                             
  positions in cartesian coordinates
  No initial velocities read in
 exchange correlation table for  LEXCH =        8
   RHO(1)=    0.500       N(1)  =     2000
   RHO(2)=  100.500       N(2)  =     4000

 VTST: version 3.2, (02/03/18)

 CHAIN: initializing optimizer
 
 OPT: Using VASP Conjugate-Gradient optimizer
 CHAIN: Read ICHAIN            0
 
 POSCAR:  C  N Fe Cr                             
  positions in cartesian coordinates
  No initial velocities read in
 


--------------------------------------------------------------------------------------------------------


 ion  position               nearest neighbor table
   1  0.222  0.997  0.500-   3 1.42  17 1.42   4 1.43
   2  0.054  0.098  0.500-  34 1.42   7 1.43   3 1.44
   3  0.110  0.998  0.500-   1 1.42  15 1.43   2 1.44
   4  0.277  0.096  0.500-  19 1.42   5 1.42   1 1.43
   5  0.220  0.194  0.500-   7 1.41   4 1.42   8 1.42
   6  0.053  0.297  0.500-  38 1.42  10 1.43   7 1.44
   7  0.108  0.197  0.500-   5 1.41   2 1.43   6 1.44
   8  0.275  0.292  0.500-  53 1.42  51 1.42   5 1.42  57 2.49
   9  0.056  0.498  0.500-  42 1.42  10 1.44  12 1.46
  10  0.109  0.396  0.500-  51 1.39   6 1.43   9 1.44
  11  0.059  0.698  0.500-  46 1.42  16 1.44  12 1.45
  12  0.116  0.597  0.500-  52 1.42  11 1.45   9 1.46
  13  0.280  0.700  0.500-  52 1.42  14 1.43  25 1.45
  14  0.224  0.799  0.500-  16 1.42  13 1.43  17 1.43
  15  0.057  0.899  0.500-  50 1.41   3 1.43  16 1.44
  16  0.112  0.798  0.500-  14 1.42  11 1.44  15 1.44
  17  0.278  0.899  0.500-  28 1.42   1 1.42  14 1.43
  18  0.556  1.000  0.500-  20 1.42  30 1.42  21 1.43
  19  0.388  0.098  0.500-   4 1.42  20 1.43  23 1.44
  20  0.444  0.999  0.500-  18 1.42  19 1.43  28 1.43
  21  0.611  0.099  0.500-  32 1.41  22 1.42  18 1.43
  22  0.556  0.197  0.500-  55 1.38  21 1.42  23 1.44
  23  0.442  0.199  0.500-  53 1.43  19 1.44  22 1.44
  24  0.560  0.609  0.500-  56 1.39  54 1.41  26 1.41  58 2.53
  25  0.393  0.700  0.500-  54 1.43  29 1.44  13 1.45
  26  0.614  0.706  0.500-  44 1.41  27 1.41  24 1.41
  27  0.557  0.803  0.500-  29 1.41  26 1.41  30 1.42
  28  0.390  0.900  0.500-  17 1.42  20 1.43  29 1.43
  29  0.446  0.801  0.500-  27 1.41  28 1.43  25 1.44
  30  0.612  0.902  0.500-  48 1.41  18 1.42  27 1.42
  31  0.889  1.000  0.500-  33 1.41  34 1.43  50 1.44
  32  0.722  0.100  0.500-  21 1.41  33 1.43  37 1.43
  33  0.778  0.000  0.500-  31 1.41  48 1.43  32 1.43
  34  0.943  0.099  0.500-   2 1.42  31 1.43  35 1.44
  35  0.887  0.200  0.500-  37 1.42  38 1.43  34 1.44
  36  0.716  0.299  0.500-  55 1.38  37 1.45  41 1.47
  37  0.775  0.200  0.500-  35 1.42  32 1.43  36 1.45
  38  0.941  0.299  0.500-   6 1.42  35 1.43  39 1.44
  39  0.885  0.400  0.500-  41 1.44  38 1.44  42 1.46
  40  0.722  0.506  0.500-  56 1.34  45 1.44  41 1.46
  41  0.772  0.401  0.500-  39 1.44  40 1.46  36 1.47
  42  0.945  0.499  0.500-   9 1.42  43 1.44  39 1.46
  43  0.891  0.601  0.500-  45 1.41  46 1.44  42 1.44
  44  0.725  0.703  0.500-  26 1.41  49 1.42  45 1.44
  45  0.780  0.603  0.500-  43 1.41  44 1.44  40 1.44
  46  0.947  0.699  0.500-  11 1.42  43 1.44  47 1.44
  47  0.891  0.800  0.500-  49 1.41  50 1.43  46 1.44
  48  0.724  0.901  0.500-  30 1.41  33 1.43  49 1.44
  49  0.780  0.802  0.500-  47 1.41  44 1.42  48 1.44
  50  0.945  0.900  0.500-  15 1.41  47 1.43  31 1.44
  51  0.218  0.391  0.500-  10 1.39   8 1.42  57 1.83
  52  0.228  0.600  0.500-  13 1.42  12 1.42  57 1.95
  53  0.387  0.298  0.500-   8 1.42  23 1.43  58 2.09  57 2.42
  54  0.449  0.600  0.500-  24 1.41  25 1.43  57 2.13  58 2.41
  55  0.607  0.294  0.500-  22 1.38  36 1.38  58 2.03
  56  0.616  0.514  0.500-  40 1.34  24 1.39  58 1.91
  57  0.329  0.482  0.500-  51 1.83  52 1.95  54 2.13  58 2.35  53 2.42   8 2.49
  58  0.502  0.416  0.502-  56 1.91  55 2.03  53 2.09  57 2.35  54 2.41  24 2.53
 
  LATTYP: Found a triclinic cell.
 ALAT       =    34.4312578754
 B/A-ratio  =     0.3648283791
 C/A-ratio  =     0.5784772683
 COS(alpha) =     0.0000331613
 COS(beta)  =     0.5787569976
 COS(gamma) =     0.7273703668
  
  Lattice vectors:
  
 A1 = (  12.5546387088, -25.1232558301, -19.9176952047)
 A2 = (  -0.0785310895, -12.5612545201,   0.0000000000)
 A3 = (   0.0138008878,  -0.0007467899, -19.9176952047)


Analysis of symmetry for initial positions (statically):
=====================================================================
 Subroutine PRICEL returns:
 Original cell was already a primitive cell.
 

 Routine SETGRP: Setting up the symmetry group for a 
 triclinic supercell.


 Subroutine GETGRP returns: Found  1 space group operations
 (whereof  1 operations were pure point group operations)
 out of a pool of  2 trial point group operations.


The static configuration has the point symmetry C_1 .


Analysis of symmetry for dynamics (positions and initial velocities):
=====================================================================
 Subroutine PRICEL returns:
 Original cell was already a primitive cell.
 

 Routine SETGRP: Setting up the symmetry group for a 
 triclinic supercell.


 Subroutine GETGRP returns: Found  1 space group operations
 (whereof  1 operations were pure point group operations)
 out of a pool of  2 trial point group operations.


The dynamic configuration has the point symmetry C_1 .


Analysis of structural, dynamic, and magnetic symmetry:
=====================================================================
 Subroutine PRICEL returns:
 Original cell was already a primitive cell.
 

 Routine SETGRP: Setting up the symmetry group for a 
 triclinic supercell.


 Subroutine GETGRP returns: Found  1 space group operations
 (whereof  1 operations were pure point group operations)
 out of a pool of  2 trial point group operations.


The magnetic configuration has the point symmetry C_1 .


 Subroutine INISYM returns: Found  1 space group operations
 (whereof  1 operations are pure point group operations),
 and found     1 'primitive' translations

 
 
 KPOINTS: KPOINTS created by Atomic Simulation Env

Automatic generation of k-mesh.
Space group operators:
 irot       det(A)        alpha          n_x          n_y          n_z        tau_x        tau_y        tau_z
    1     1.000000     0.000000     1.000000     0.000000     0.000000     0.000000     0.000000     0.000000
 
 Subroutine IBZKPT returns following result:
 ===========================================
 
 Found      2 irreducible k-points:
 
 Following reciprocal coordinates:
            Coordinates               Weight
  0.250000  0.250000 -0.000000      2.000000
 -0.250000  0.250000  0.000000      2.000000
 
 Following cartesian coordinates:
            Coordinates               Weight
  0.019688  0.019779  0.000013      2.000000
 -0.019688  0.020026 -0.000014      2.000000
 
 
 Subroutine IBZKPT_HF returns following result:
 ==============================================
 
 Found      4 k-points in 1st BZ
 the following      4 k-points will be used (e.g. in the exchange kernel)
 Following reciprocal coordinates:   # in IRBZ
  0.250000  0.250000 -0.000000    0.25000000   1 t-inv F
 -0.250000  0.250000  0.000000    0.25000000   2 t-inv F
 -0.250000 -0.250000  0.000000    0.25000000   1 t-inv T
  0.250000 -0.250000  0.000000    0.25000000   2 t-inv T


--------------------------------------------------------------------------------------------------------




 Dimension of arrays:
   k-points           NKPTS =      2   k-points in BZ     NKDIM =      4   number of bands    NBANDS=    154
   number of dos      NEDOS =    301   number of ions     NIONS =     58
   non local maximal  LDIM  =      6   non local SUM 2l+1 LMDIM =     18
   total plane-waves  NPLWV = ******
   max r-space proj   IRMAX =      1   max aug-charges    IRDMAX=  22427
   dimension x,y,z NGX =    96 NGY =   96 NGZ =  150
   dimension x,y,z NGXF=   192 NGYF=  192 NGZF=  300
   support grid    NGXF=   192 NGYF=  192 NGZF=  300
   ions per type =              54   2   1   1
   NGX,Y,Z   is equivalent  to a cutoff of  12.57, 12.71, 12.52 a.u.
   NGXF,Y,Z  is equivalent  to a cutoff of  25.14, 25.41, 25.04 a.u.

 SYSTEM =  unknown system                          
 POSCAR =   C  N Fe Cr                             

 Startparameter for this run:
   NWRITE =      2    write-flag & timer
   PREC   = accura    normal or accurate (medium, high low for compatibility)
   ISTART =      1    job   : 0-new  1-cont  2-samecut
   ICHARG =      0    charge: 1-file 2-atom 10-const
   ISPIN  =      2    spin polarized calculation?
   LNONCOLLINEAR =      F non collinear calculations
   LSORBIT =      F    spin-orbit coupling
   INIWAV =      1    electr: 0-lowe 1-rand  2-diag
   LASPH  =      T    aspherical Exc in radial PAW
   METAGGA=      F    non-selfconsistent MetaGGA calc.

 Electronic Relaxation 1
   ENCUT  =  500.0 eV  36.75 Ry    6.06 a.u.  23.15 22.90 36.31*2*pi/ulx,y,z
   ENINI  =  500.0     initial cutoff
   ENAUG  =  644.9 eV  augmentation charge cutoff
   NELM   =    250;   NELMIN=  2; NELMDL=  0     # of ELM steps 
   EDIFF  = 0.1E-03   stopping-criterion for ELM
   LREAL  =      F    real-space projection
   NLSPLINE    = F    spline interpolate recip. space projectors
   LCOMPAT=      F    compatible to vasp.4.4
   GGA_COMPAT  = T    GGA compatible to vasp.4.4-vasp.4.6
   LMAXPAW     = -100 max onsite density
   LMAXMIX     =    2 max onsite mixed and CHGCAR
   VOSKOWN=      0    Vosko Wilk Nusair interpolation
   ROPT   =    0.00000   0.00000   0.00000   0.00000
 Ionic relaxation
   EDIFFG = -.3E-01   stopping-criterion for IOM
   NSW    =      0    number of steps for IOM
   NBLOCK =      1;   KBLOCK =      1    inner block; outer block 
   IBRION =     -1    ionic relax: 0-MD 1-quasi-New 2-CG
   NFREE  =      1    steps in history (QN), initial steepest desc. (CG)
   ISIF   =      2    stress and relaxation
   IWAVPR =     10    prediction:  0-non 1-charg 2-wave 3-comb
   ISYM   =      3    0-nonsym 1-usesym 2-fastsym
   LCORR  =      T    Harris-Foulkes like correction to forces

   POTIM  = 0.5000    time-step for ionic-motion
   TEIN   =    0.0    initial temperature
   TEBEG  =    0.0;   TEEND  =   0.0 temperature during run
   SMASS  =  -3.00    Nose mass-parameter (am)
   estimated Nose-frequenzy (Omega)   =  0.10E-29 period in steps =****** mass=  -0.368E-26a.u.
   SCALEE = 1.0000    scale energy and forces
   NPACO  =    256;   APACO  = 16.0  distance and # of slots for P.C.
   PSTRESS=    0.0 pullay stress

  Mass of Ions in am
   POMASS =  12.01 14.00 55.85 52.00
  Ionic Valenz
   ZVAL   =   4.00  5.00  8.00  6.00
  Atomic Wigner-Seitz radii
   RWIGS  =  -1.00 -1.00 -1.00 -1.00
  virtual crystal weights 
   VCA    =   1.00  1.00  1.00  1.00
   NELECT =     240.0000    total number of electrons
   NUPDOWN=      -1.0000    fix difference up-down

 DOS related values:
   EMIN   =  10.00;   EMAX   =-10.00  energy-range for DOS
   EFERMI =   0.00
   ISMEAR =     0;   SIGMA  =   0.10  broadening in eV -4-tet -1-fermi 0-gaus

 Electronic relaxation 2 (details)
   IALGO  =     53    algorithm
   LDIAG  =      T    sub-space diagonalisation (order eigenvalues)
   LSUBROT=      F    optimize rotation matrix (better conditioning)
   TURBO    =      0    0=normal 1=particle mesh
   IRESTART =      0    0=no restart 2=restart with 2 vectors
   NREBOOT  =      0    no. of reboots
   NMIN     =      0    reboot dimension
   EREF     =   0.00    reference energy to select bands
   IMIX   =      4    mixing-type and parameters
     AMIX     =   0.40;   BMIX     =  1.00
     AMIX_MAG =   1.60;   BMIX_MAG =  1.00
     AMIN     =   0.10
     WC   =   100.;   INIMIX=   1;  MIXPRE=   1;  MAXMIX= -45

 Intra band minimization:
   WEIMIN = 0.0000     energy-eigenvalue tresh-hold
   EBREAK =  0.16E-06  absolut break condition
   DEPER  =   0.30     relativ break condition  

   TIME   =   0.20     timestep for ELM

  volume/ion in A,a.u.               =      54.77       369.63
  Fermi-wavevector in a.u.,A,eV,Ry     =   0.692060  1.307804  6.516475  0.478947
  Thomas-Fermi vector in A             =   1.773887
 
 Write flags
   LWAVE        =      T    write WAVECAR
   LDOWNSAMPLE  =      F    k-point downsampling of WAVECAR
   LCHARG       =      T    write CHGCAR
   LVTOT        =      F    write LOCPOT, total local potential
   LVHAR        =      F    write LOCPOT, Hartree potential only
   LELF         =      F    write electronic localiz. function (ELF)
   LORBIT       =     11    0 simple, 1 ext, 2 COOP (PROOUT), +10 PAW based schemes


 Dipole corrections
   LMONO  =      F    monopole corrections only (constant potential shift)
   LDIPOL =      T    correct potential (dipole corrections)
   IDIPOL =      3    1-x, 2-y, 3-z, 4-all directions 
   EPSILON=  1.0000000 bulk dielectric constant

 Exchange correlation treatment:
   GGA     =    PE    GGA type
   LEXCH   =     8    internal setting for exchange type
   VOSKOWN=      0    Vosko Wilk Nusair interpolation
   EXXOEP  =     0    0=HF, 1=EXX-LHF (local Hartree Fock) 2=EXX OEP
   LHFCALC =     T    Hartree Fock is set to
   LSYMGRAD=     F    symmetrize gradient (conserves proper symmetry)
   PRECFOCK=normal    Normal, Fast or Accurate (Low or Medium for compatibility)
   LRHFCALC=     F    long range Hartree Fock
   LRSCOR  =     F    long range correlation only (use DFT for short range part)
   LTHOMAS =     F    Thomas Fermi screening in HF
   LMODELHF=     F    short range full HF, long range fraction AEXX
   ENCUT4O =  -1.0   cutoff for four orbital integrals eV
   LMAXFOCK=     4    L truncation for augmentation on plane wave grid
   LMAXFOCKAE=  -1    L truncation for all-electron charge restoration on plane wave grid
   NMAXFOCKAE=   1    number of basis functions for all-electron charge restoration
   LFOCKAEDFT=     F  apply the AE augmentation even for DFT
   NKREDX  =     1    reduce k-point grid by
   NKREDY  =     1    reduce k-point grid by
   NKREDZ  =     1    reduce k-point grid by
   SHIFTRED=     F    shift reduced grid of Gamma
   HFKIDENT=     F    idential grid for each k-point
   ODDONLY =     F    use only odd q-grid points
   EVENONLY=     F    use only even q-grid points
   HFALPHA =   -1.0000 decay constant for conv. correction
   MCALPHA =    0.0000 extent of test-charge in conv. correction in multipole expansion
   AEXX    =    0.2500 exact exchange contribution
   HFSCREEN=    0.2000 screening length (either q_TF or 0.3 A-1)
   HFSCREENC=   0.2000 screening length for correlation (either q_TF or 0.3 A-1)
   HFRCUT  =    0.0000 spherical cutoff for potential kernel
   ALDAX   =    0.7500 LDA exchange part
   AGGAX   =    0.7500 GGA exchange part
   ALDAC   =    1.0000 LDA correlation
   AGGAC   =    1.0000 GGA correlation
   ENCUTFOCK=  -1.0 apply spherical cutoff to Coloumb kernel
   NBANDSGWLOW=     1    first orbital included in HF term
   NBLOCK_FOCK=    64    blocking factor in FOCK_ACC
 Linear response parameters
   LEPSILON=     F    determine dielectric tensor
   LRPA    =     F    only Hartree local field effects (RPA)
   LNABLA  =     F    use nabla operator in PAW spheres
   LVEL    =     F    velocity operator in full k-point grid
   LINTERFAST=   F  fast interpolation
   KINTER  =     0    interpolate to denser k-point grid
   CSHIFT  =0.1000    complex shift for real part using Kramers Kronig
   OMEGAMAX=  -1.0    maximum frequency
   DEG_THRESHOLD= 0.2000000E-02 threshold for treating states as degnerate
   RTIME   =   -0.100 relaxation time in fs
  (WPLASMAI=    0.000 imaginary part of plasma frequency in eV, 0.658/RTIME)
   DFIELD  = 0.0000000 0.0000000 0.0000000 field for delta impulse in time
 
 Orbital magnetization related:
   ORBITALMAG=     F  switch on orbital magnetization
   LCHIMAG   =     F  perturbation theory with respect to B field
   DQ        =  0.001000  dq finite difference perturbation B field
   LLRAUG    =     F  two centre corrections for induced B field



--------------------------------------------------------------------------------------------------------


 Static calculation
 charge density and potential will be updated during run
 spin polarized calculation
 Conjugate gradient for all bands (Freysoldt, et al. PRB 79, 241103 (2009))
 perform sub-space diagonalisation
    before iterative eigenvector-optimisation
 modified Broyden-mixing scheme, WC =      100.0
 initial mixing is a Kerker type mixing with AMIX =  0.4000 and BMIX =      1.0000
 Hartree-type preconditioning will be used
 using additional bands           34
 reciprocal scheme for non local part
 use partial core corrections
 no Harris-corrections to forces 
 use gradient corrections 
 use of overlap-Matrix (Vanderbilt PP)
 Gauss-broadening in eV      SIGMA  =   0.10


--------------------------------------------------------------------------------------------------------


  energy-cutoff  :      500.00
  volume of cell :     3176.90
      direct lattice vectors                 reciprocal lattice vectors
    12.697900000  0.000000000  0.000000000     0.078753180 -0.000492353  0.000054586
     0.078531090 12.561254520  0.000000000     0.000000000  0.079609883 -0.000002985
    -0.013800888  0.000746790 19.917695205     0.000000000  0.000000000  0.050206612

  length of vectors
    12.697900000 12.561500000 19.917700000     0.078754738  0.079609883  0.050206612


 
 old parameters found on file WAVECAR:
  energy-cutoff  :      500.00
  volume of cell :     3176.90
      direct lattice vectors                 reciprocal lattice vectors
    12.697900000  0.000000000  0.000000000     0.078753180 -0.000492353  0.000054586
     0.078531090 12.561254520  0.000000000     0.000000000  0.079609883 -0.000002985
    -0.013800888  0.000746790 19.917695205     0.000000000  0.000000000  0.050206612

  length of vectors

 
 k-points in units of 2pi/SCALE and weight: KPOINTS created by Atomic Simulation Env
   0.01968829  0.01977938  0.00001290       0.500
  -0.01968829  0.02002556 -0.00001439       0.500
 
 k-points in reciprocal lattice and weights: KPOINTS created by Atomic Simulation Env
   0.25000000  0.25000000 -0.00000000       0.500
  -0.25000000  0.25000000  0.00000000       0.500
 
 position of ions in fractional coordinates (direct lattice) 
   0.22211755  0.99738927  0.49995237
   0.05407336  0.09791684  0.49994817
   0.11047929  0.99822520  0.49996989
   0.27674609  0.09637355  0.49996975
   0.21980392  0.19405343  0.50005212
   0.05262393  0.29744132  0.50003409
   0.10841439  0.19700057  0.49998925
   0.27487514  0.29242262  0.50034544
   0.05631692  0.49808162  0.49999627
   0.10914645  0.39594397  0.50013433
   0.05896941  0.69812448  0.49999047
   0.11607207  0.59744999  0.49997686
   0.27962007  0.70023409  0.50003908
   0.22396944  0.79916226  0.50001658
   0.05655777  0.89855325  0.49999856
   0.11246796  0.79844068  0.50000842
   0.27810152  0.89884780  0.49996171
   0.55573529  0.99992570  0.49985284
   0.38840797  0.09831919  0.49996662
   0.44411198  0.99913437  0.49988414
   0.61071298  0.09874050  0.49989004
   0.55605507  0.19740003  0.50011372
   0.44241904  0.19903214  0.50014665
   0.55952205  0.60864944  0.50005514
   0.39348657  0.69981551  0.50005296
   0.61435891  0.70628269  0.49992633
   0.55748836  0.80340330  0.49989376
   0.38962347  0.89968998  0.49991194
   0.44623223  0.80070952  0.49993873
   0.61230621  0.90198982  0.49987002
   0.88926848  0.99963531  0.49996807
   0.72200890  0.09969332  0.49991605
   0.77807682  0.00040685  0.49993391
   0.94263060  0.09934733  0.49993700
   0.88651314  0.19974118  0.49992314
   0.71596793  0.29924665  0.50016856
   0.77482877  0.20019724  0.49995872
   0.94102320  0.29915037  0.49996469
   0.88527393  0.39973120  0.50000538
   0.72152040  0.50553918  0.50010551
   0.77225174  0.40077559  0.50013027
   0.94458517  0.49907330  0.49996014
   0.89100594  0.60058428  0.49991977
   0.72534514  0.70341595  0.49992528
   0.78014146  0.60306307  0.49991499
   0.94702405  0.69949739  0.49996598
   0.89149842  0.80000252  0.49998465
   0.72371786  0.90123722  0.49992244
   0.78014853  0.80182779  0.49994781
   0.94540891  0.89964735  0.49999998
   0.21829406  0.39054356  0.50031115
   0.22819980  0.60020629  0.49997609
   0.38670141  0.29806091  0.50048695
   0.44852690  0.60049353  0.50010808
   0.60742854  0.29358206  0.50043121
   0.61644971  0.51393251  0.50035237
   0.32927800  0.48242979  0.49971043
   0.50231677  0.41580511  0.50166515
 
 position of ions in cartesian coordinates  (Angst):
   2.89185271 12.52883389  9.95789891
   0.68740794  1.23033171  9.95781529
   1.47434660 12.53933420  9.95824783
   3.51476250  1.21094610  9.95824517
   2.79938622  2.43792802  9.95988574
   0.68467088  3.73660959  9.95952650
   1.38520541  2.47494775  9.95863353
   3.50639611  3.67356859  9.96572796
   0.74732115  6.25690340  9.95877334
   1.41012227  4.97392643  9.96152321
   0.79671181  8.76969268  9.95865769
   1.51388975  7.50509481  9.95838666
   3.59867680  8.79619210  9.95962602
   2.89979998 10.03885392  9.95917783
   0.78182887 11.28732942  9.95881902
   1.48390877 10.02978997  9.95901530
   3.59499290 11.29102936  9.95808487
   7.12829794 12.56069446  9.95591647
   4.93278672  1.23538575  9.95818271
   5.71085377 12.55075449  9.95653994
   7.75562761  1.24067781  9.95665749
   7.06933167  2.47996556  9.96111261
   5.62652049  2.50046688  9.96176858
   7.14565180  7.64577401  9.95994587
   5.04450925  8.79093418  9.95990249
   7.84963372  8.87216995  9.95738034
   7.13512462 10.09212665  9.95673153
   5.01115425 11.30160810  9.95709358
   5.72219324 10.05828942  9.95762729
   7.83893868 11.33049702  9.95625863
  11.36344466 12.55704697  9.95821169
   9.16892660  1.25264654  9.95717555
   9.87307403  0.00548391  9.95753116
  11.97033139  1.24830048  9.95759286
  11.26564172  2.50937315  9.95731670
   9.10788662  3.75928682  9.96220484
   9.84752011  2.51510184  9.95802532
  11.96561115  3.75807728  9.95814435
  11.26561062  5.02149878  9.95895469
   9.19459251  6.35057976  9.96094913
   9.83054647  5.03461768  9.96144233
  12.02654085  6.26936015  9.95805371
  11.35416953  7.54446533  9.95724952
   9.25870072  8.83616010  9.95735925
   9.94661818  7.57560198  9.95715441
  12.07324905  8.78693811  9.95817006
  11.37608263 10.04940859  9.95854191
   9.25357275 11.32104347  9.95730279
   9.96231672 10.07233632  9.95780800
  12.06845764 11.30107273  9.95884711
   2.79564124  4.90609068  9.96504500
   2.93789295  7.53971738  9.95837128
   4.92679572  3.74439266  9.96854657
   5.73560522  7.54332553  9.96100031
   7.72921584  3.68813271  9.96743629
   7.86107109  6.45601077  9.96586606
   4.21212843  6.06029660  9.95308007
   6.40409835  5.22340841  9.99201345
 


--------------------------------------------------------------------------------------------------------


 k-point  1 :   0.2500 0.2500-0.0000  plane waves:   80677
 k-point  2 :  -0.2500 0.2500 0.0000  plane waves:   80651

 maximum and minimum number of plane-waves per node :      2556     2486

 maximum number of plane-waves:     80677
 maximum index in each direction: 
   IXMAX=   23   IYMAX=   22   IZMAX=   36
   IXMIN=  -23   IYMIN=  -23   IZMIN=  -36


 parallel 3D FFT for wavefunctions:
    minimum data exchange during FFTs selected (reduces bandwidth)
 parallel 3D FFT for charge:
    minimum data exchange during FFTs selected (reduces bandwidth)


 FFT grid for exact exchange (Hartree Fock) 
  NGX = 70; NGY = 70; NGZ =112

 
 Radii for the augmentation spheres in the non-local exchange
 for species   1 augmentation radius   0.874 (default was   0.699)
       energy cutoff for augmentation   2000.0
 for species   2 augmentation radius   0.886 (default was   0.709)
       energy cutoff for augmentation   2000.0
 for species   3 augmentation radius   1.263 (default was   1.010)
       energy cutoff for augmentation   2000.0
 for species   4 augmentation radius   1.424 (default was   1.139)
       energy cutoff for augmentation   2000.0

 real space projection operators:
  total allocation   :       2566.21 KBytes
  max/ min on nodes  :        116.79         40.64

 Maximum index for augmentation-charges in exchange          171
  SETUP_FOCK is finished

 total amount of memory used by VASP MPI-rank0   165345. kBytes
=======================================================================

   base      :      30000. kBytes
   nonl-proj :       5333. kBytes
   fftplans  :      14250. kBytes
   grid      :      36827. kBytes
   one-center:         62. kBytes
   HF        :         23. kBytes
   nonlr-proj:       2269. kBytes
   wavefun   :      76581. kBytes
 
     INWAV:  cpu time    3.4440: real time    3.4460
 Broyden mixing: mesh for mixing (old mesh)
   NGX = 47   NGY = 45   NGZ = 73
  (NGX  =192   NGY  =192   NGZ  =300)
  gives a total of 154395 points

 charge density for first step will be calculated from the start-wavefunctions


--------------------------------------------------------------------------------------------------------


 Maximum index for augmentation-charges          936 (set IRDMAX)


--------------------------------------------------------------------------------------------------------


 initial charge from wavefunction
 First call to EWALD:  gamma=   0.121
 Maximum number of real-space cells 3x 3x 2
 Maximum number of reciprocal cells 2x 2x 4

    FEWALD:  cpu time    0.0034: real time    0.0034


--------------------------------------- Iteration      1(   1)  ---------------------------------------


    POTLOK:  cpu time    1.3771: real time    1.3829
    SETDIJ:  cpu time    2.0899: real time    2.0912
    TRIAL :  cpu time  508.6124: real time  508.9604
    CORREC:  cpu time    0.0019: real time    0.0022
    CHARGE:  cpu time    1.6505: real time    1.6512
    --------------------------------------------
      LOOP:  cpu time  513.7483: real time  514.1064

 eigenvalue-minimisations  :     0
 total energy-change (2. order) :-0.6093722E+03  (-0.4122639E+00)
 number of electron     239.9999998 magnetization       1.9993775
 augmentation part       12.2488415 magnetization       0.7284026

 DIPCOR: dipole corrections for dipol
 direction  3 min pos     1,
 dipolmoment           0.000002     -0.000000     -0.002561 electrons x Angstroem
 Tr[quadrupol]     -6335.662129

 energy correction for charged system         0.000000 eV
 dipol+quadrupol energy correction            0.000000 eV
 added-field ion interaction          0.000000 eV  (added to PSCEN)


 Free energy of the ion-electron system (eV)
  ---------------------------------------------------
  alpha Z        PSCENC =        98.76447349
  Ewald energy   TEWEN  =     37780.29658403
  -Hartree energ DENC   =    -45739.89401399
  -exchange      EXHF   =       537.22616831
  -V(xc)+E(xc)   XCENC  =       588.91419596
  PAW double counting   =     25802.41678176   -25824.24928647
  entropy T*S    EENTRO =        -0.00015480
  eigenvalues    EBANDS =     -3087.84993567
  atomic energy  EATOM  =      9235.00324046
  ---------------------------------------------------
  free energy    TOTEN  =      -609.37217095 eV

  energy without entropy =     -609.37201615  energy(sigma->0) =     -609.37209355
  exchange ACFDT corr.  =        -0.00042237  see jH, gK, PRB 81, 115126


--------------------------------------------------------------------------------------------------------




--------------------------------------- Iteration      1(   2)  ---------------------------------------


    POTLOK:  cpu time    1.3953: real time    1.3956
    SETDIJ:  cpu time    2.0912: real time    2.0919
    TRIAL :  cpu time  507.0821: real time  507.3326
    CORREC:  cpu time    0.0019: real time    0.0022
    CHARGE:  cpu time    1.6573: real time    1.6578
    --------------------------------------------
      LOOP:  cpu time  512.2313: real time  512.4839

 eigenvalue-minimisations  :     0
 total energy-change (2. order) :-0.3483125E+00  (-0.3760396E+00)
 number of electron     239.9999998 magnetization       1.9998210
 augmentation part       12.2349832 magnetization       0.7232244

 DIPCOR: dipole corrections for dipol
 direction  3 min pos     1,
 dipolmoment           0.000002     -0.000000     -0.002688 electrons x Angstroem
 Tr[quadrupol]     -6335.487571

 energy correction for charged system         0.000000 eV
 dipol+quadrupol energy correction            0.000000 eV
 added-field ion interaction          0.000000 eV  (added to PSCEN)


 Free energy of the ion-electron system (eV)
  ---------------------------------------------------
  alpha Z        PSCENC =        98.76447351
  Ewald energy   TEWEN  =     37780.29658403
  -Hartree energ DENC   =    -45725.12952516
  -exchange      EXHF   =       537.10255058
  -V(xc)+E(xc)   XCENC  =       588.57536610
  PAW double counting   =     25925.48026525   -25947.12698874
  entropy T*S    EENTRO =        -0.00004838
  eigenvalues    EBANDS =     -3102.68629464
  atomic energy  EATOM  =      9235.00324046
  ---------------------------------------------------
  free energy    TOTEN  =      -609.72048341 eV

  energy without entropy =     -609.72043503  energy(sigma->0) =     -609.72045922
  exchange ACFDT corr.  =        -0.00008121  see jH, gK, PRB 81, 115126


--------------------------------------------------------------------------------------------------------




--------------------------------------- Iteration      1(   3)  ---------------------------------------


    POTLOK:  cpu time    1.4035: real time    1.4038
    SETDIJ:  cpu time    2.0900: real time    2.0902
    TRIAL :  cpu time  506.3200: real time  506.5563
    CORREC:  cpu time    0.0019: real time    0.0021
    CHARGE:  cpu time    1.6568: real time    1.6571
    --------------------------------------------
      LOOP:  cpu time  511.4747: real time  511.7121

 eigenvalue-minimisations  :     0
 total energy-change (2. order) :-0.2929441E+00  (-0.2173402E+00)
 number of electron     239.9999998 magnetization       1.9999533
 augmentation part       12.2288670 magnetization       0.7167314

 DIPCOR: dipole corrections for dipol
 direction  3 min pos     1,
 dipolmoment           0.000002     -0.000000     -0.003002 electrons x Angstroem
 Tr[quadrupol]     -6335.312044

 energy correction for charged system         0.000000 eV
 dipol+quadrupol energy correction            0.000000 eV
 added-field ion interaction          0.000000 eV  (added to PSCEN)


 Free energy of the ion-electron system (eV)
  ---------------------------------------------------
  alpha Z        PSCENC =        98.76447357
  Ewald energy   TEWEN  =     37780.29658403
  -Hartree energ DENC   =    -45710.15272349
  -exchange      EXHF   =       537.04303458
  -V(xc)+E(xc)   XCENC  =       588.24148642
  PAW double counting   =     26081.76716471   -26103.25038540
  entropy T*S    EENTRO =        -0.00001356
  eigenvalues    EBANDS =     -3117.72625394
  atomic energy  EATOM  =      9235.00324046
  ---------------------------------------------------
  free energy    TOTEN  =      -610.01342747 eV

  energy without entropy =     -610.01341391  energy(sigma->0) =     -610.01342069
  exchange ACFDT corr.  =        -0.00002303  see jH, gK, PRB 81, 115126


--------------------------------------------------------------------------------------------------------




--------------------------------------- Iteration      1(   4)  ---------------------------------------


    POTLOK:  cpu time    1.4039: real time    1.4041
    SETDIJ:  cpu time    2.0840: real time    2.0888
    TRIAL :  cpu time  504.7067: real time  504.9416
    CORREC:  cpu time    0.0015: real time    0.0017
    CHARGE:  cpu time    1.6483: real time    1.6487
    --------------------------------------------
      LOOP:  cpu time  509.8467: real time  510.0872

 eigenvalue-minimisations  :     0
 total energy-change (2. order) :-0.1681726E+00  (-0.1253184E+00)
 number of electron     239.9999998 magnetization       1.9999867
 augmentation part       12.2307938 magnetization       0.7113990

 DIPCOR: dipole corrections for dipol
 direction  3 min pos     1,
 dipolmoment           0.000002     -0.000000     -0.003290 electrons x Angstroem
 Tr[quadrupol]     -6335.241029

 energy correction for charged system         0.000000 eV
 dipol+quadrupol energy correction            0.000000 eV
 added-field ion interaction          0.000000 eV  (added to PSCEN)


 Free energy of the ion-electron system (eV)
  ---------------------------------------------------
  alpha Z        PSCENC =        98.76447362
  Ewald energy   TEWEN  =     37780.29658403
  -Hartree energ DENC   =    -45703.21433532
  -exchange      EXHF   =       537.16087498
  -V(xc)+E(xc)   XCENC  =       588.10755111
  PAW double counting   =     26217.03961481   -26238.44491204
  entropy T*S    EENTRO =        -0.00000398
  eigenvalues    EBANDS =     -3124.89467817
  atomic energy  EATOM  =      9235.00324046
  ---------------------------------------------------
  free energy    TOTEN  =      -610.18160008 eV

  energy without entropy =     -610.18159610  energy(sigma->0) =     -610.18159809
  exchange ACFDT corr.  =        -0.00000590  see jH, gK, PRB 81, 115126


--------------------------------------------------------------------------------------------------------




--------------------------------------- Iteration      1(   5)  ---------------------------------------


    POTLOK:  cpu time    1.4061: real time    1.4063
    SETDIJ:  cpu time    2.0917: real time    2.0922
    TRIAL :  cpu time  504.1852: real time  504.4353
    CORREC:  cpu time    0.0017: real time    0.0017
    CHARGE:  cpu time    1.6485: real time    1.6491
    --------------------------------------------
      LOOP:  cpu time  509.3352: real time  509.5865

 eigenvalue-minimisations  :     0
 total energy-change (2. order) :-0.1014320E+00  (-0.8019300E-01)
 number of electron     239.9999998 magnetization       1.9999955
 augmentation part       12.2370285 magnetization       0.7079830

 DIPCOR: dipole corrections for dipol
 direction  3 min pos     1,
 dipolmoment           0.000002     -0.000000     -0.003506 electrons x Angstroem
 Tr[quadrupol]     -6335.267082

 energy correction for charged system         0.000000 eV
 dipol+quadrupol energy correction            0.000000 eV
 added-field ion interaction          0.000000 eV  (added to PSCEN)


 Free energy of the ion-electron system (eV)
  ---------------------------------------------------
  alpha Z        PSCENC =        98.76447366
  Ewald energy   TEWEN  =     37780.29658403
  -Hartree energ DENC   =    -45703.93976344
  -exchange      EXHF   =       537.41334366
  -V(xc)+E(xc)   XCENC  =       588.16249126
  PAW double counting   =     26316.33556350   -26337.73272055
  entropy T*S    EENTRO =        -0.00000129
  eigenvalues    EBANDS =     -3124.58624067
  atomic energy  EATOM  =      9235.00324046
  ---------------------------------------------------
  free energy    TOTEN  =      -610.28303208 eV

  energy without entropy =     -610.28303079  energy(sigma->0) =     -610.28303144
  exchange ACFDT corr.  =        -0.00000160  see jH, gK, PRB 81, 115126


--------------------------------------------------------------------------------------------------------




--------------------------------------- Iteration      1(   6)  ---------------------------------------


    POTLOK:  cpu time    1.4035: real time    1.4037
    SETDIJ:  cpu time    2.0923: real time    2.0928
    TRIAL :  cpu time  504.4296: real time  504.6683
    CORREC:  cpu time    0.0016: real time    0.0018
    CHARGE:  cpu time    1.6469: real time    1.6510
    --------------------------------------------
      LOOP:  cpu time  509.5765: real time  509.8202

 eigenvalue-minimisations  :     0
 total energy-change (2. order) :-0.6689018E-01  (-0.5198265E-01)
 number of electron     239.9999998 magnetization       1.9999981
 augmentation part       12.2440735 magnetization       0.7061531

 DIPCOR: dipole corrections for dipol
 direction  3 min pos     1,
 dipolmoment           0.000003     -0.000000     -0.003674 electrons x Angstroem
 Tr[quadrupol]     -6335.329511

 energy correction for charged system         0.000000 eV
 dipol+quadrupol energy correction            0.000000 eV
 added-field ion interaction          0.000000 eV  (added to PSCEN)


 Free energy of the ion-electron system (eV)
  ---------------------------------------------------
  alpha Z        PSCENC =        98.76447369
  Ewald energy   TEWEN  =     37780.29658403
  -Hartree energ DENC   =    -45707.92808330
  -exchange      EXHF   =       537.69183092
  -V(xc)+E(xc)   XCENC  =       588.29824504
  PAW double counting   =     26382.39347434   -26403.82397278
  entropy T*S    EENTRO =        -0.00000046
  eigenvalues    EBANDS =     -3121.04571338
  atomic energy  EATOM  =      9235.00324046
  ---------------------------------------------------
  free energy    TOTEN  =      -610.34992225 eV

  energy without entropy =     -610.34992179  energy(sigma->0) =     -610.34992202
  exchange ACFDT corr.  =        -0.00000049  see jH, gK, PRB 81, 115126


--------------------------------------------------------------------------------------------------------




--------------------------------------- Iteration      1(   7)  ---------------------------------------


    POTLOK:  cpu time    1.4001: real time    1.4004
    SETDIJ:  cpu time    2.0914: real time    2.0917
    TRIAL :  cpu time  504.7082: real time  504.9664
    CORREC:  cpu time    0.0015: real time    0.0018
    CHARGE:  cpu time    1.6466: real time    1.6470
    --------------------------------------------
      LOOP:  cpu time  509.8503: real time  510.1096

 eigenvalue-minimisations  :     0
 total energy-change (2. order) :-0.4413595E-01  (-0.3370122E-01)
 number of electron     239.9999998 magnetization       1.9999989
 augmentation part       12.2500144 magnetization       0.7052451

 DIPCOR: dipole corrections for dipol
 direction  3 min pos     1,
 dipolmoment           0.000003     -0.000000     -0.003821 electrons x Angstroem
 Tr[quadrupol]     -6335.384542

 energy correction for charged system         0.000000 eV
 dipol+quadrupol energy correction            0.000000 eV
 added-field ion interaction          0.000000 eV  (added to PSCEN)


 Free energy of the ion-electron system (eV)
  ---------------------------------------------------
  alpha Z        PSCENC =        98.76447372
  Ewald energy   TEWEN  =     37780.29658403
  -Hartree energ DENC   =    -45711.82508263
  -exchange      EXHF   =       537.92379560
  -V(xc)+E(xc)   XCENC  =       588.43097536
  PAW double counting   =     26423.43000511   -26444.90986945
  entropy T*S    EENTRO =        -0.00000018
  eigenvalues    EBANDS =     -3117.50817995
  atomic energy  EATOM  =      9235.00324046
  ---------------------------------------------------
  free energy    TOTEN  =      -610.39405820 eV

  energy without entropy =     -610.39405802  energy(sigma->0) =     -610.39405811
  exchange ACFDT corr.  =        -0.00000017  see jH, gK, PRB 81, 115126


--------------------------------------------------------------------------------------------------------




--------------------------------------- Iteration      1(   8)  ---------------------------------------


    POTLOK:  cpu time    1.3946: real time    1.3952
    SETDIJ:  cpu time    2.0889: real time    2.0894
    TRIAL :  cpu time  505.2846: real time  505.5363
    CORREC:  cpu time    0.0015: real time    0.0017
    CHARGE:  cpu time    1.6651: real time    1.6726
    --------------------------------------------
      LOOP:  cpu time  510.4371: real time  510.6977

 eigenvalue-minimisations  :     0
 total energy-change (2. order) :-0.2910811E-01  (-0.2228451E-01)
 number of electron     239.9999998 magnetization       1.9999992
 augmentation part       12.2543820 magnetization       0.7046549

 DIPCOR: dipole corrections for dipol
 direction  3 min pos     1,
 dipolmoment           0.000003     -0.000000     -0.003948 electrons x Angstroem
 Tr[quadrupol]     -6335.417217

 energy correction for charged system         0.000000 eV
 dipol+quadrupol energy correction            0.000000 eV
 added-field ion interaction          0.000000 eV  (added to PSCEN)


 Free energy of the ion-electron system (eV)
  ---------------------------------------------------
  alpha Z        PSCENC =        98.76447375
  Ewald energy   TEWEN  =     37780.29658403
  -Hartree energ DENC   =    -45714.31556001
  -exchange      EXHF   =       538.08764899
  -V(xc)+E(xc)   XCENC  =       588.52635106
  PAW double counting   =     26447.21603979   -26468.74384844
  entropy T*S    EENTRO =        -0.00000008
  eigenvalues    EBANDS =     -3115.25809577
  atomic energy  EATOM  =      9235.00324046
  ---------------------------------------------------
  free energy    TOTEN  =      -610.42316632 eV

  energy without entropy =     -610.42316623  energy(sigma->0) =     -610.42316628
  exchange ACFDT corr.  =        -0.00000006  see jH, gK, PRB 81, 115126


--------------------------------------------------------------------------------------------------------




--------------------------------------- Iteration      1(   9)  ---------------------------------------


    POTLOK:  cpu time    1.3922: real time    1.3926
    SETDIJ:  cpu time    2.0883: real time    2.0887
    TRIAL :  cpu time  505.2263: real time  505.4291
    CORREC:  cpu time    0.0014: real time    0.0017
    CHARGE:  cpu time    1.6459: real time    1.6461
    --------------------------------------------
      LOOP:  cpu time  510.3567: real time  510.5608

 eigenvalue-minimisations  :     0
 total energy-change (2. order) :-0.1953459E-01  (-0.1504228E-01)
 number of electron     239.9999998 magnetization       1.9999993
 augmentation part       12.2573940 magnetization       0.7038847

 DIPCOR: dipole corrections for dipol
 direction  3 min pos     1,
 dipolmoment           0.000003     -0.000000     -0.004051 electrons x Angstroem
 Tr[quadrupol]     -6335.430620

 energy correction for charged system         0.000000 eV
 dipol+quadrupol energy correction            0.000000 eV
 added-field ion interaction          0.000000 eV  (added to PSCEN)


 Free energy of the ion-electron system (eV)
  ---------------------------------------------------
  alpha Z        PSCENC =        98.76447378
  Ewald energy   TEWEN  =     37780.29658403
  -Hartree energ DENC   =    -45715.44917469
  -exchange      EXHF   =       538.19297182
  -V(xc)+E(xc)   XCENC  =       588.58381740
  PAW double counting   =     26460.08696417   -26481.65410020
  entropy T*S    EENTRO =        -0.00000004
  eigenvalues    EBANDS =     -3114.26747759
  atomic energy  EATOM  =      9235.00324046
  ---------------------------------------------------
  free energy    TOTEN  =      -610.44270091 eV

  energy without entropy =     -610.44270086  energy(sigma->0) =     -610.44270089
  exchange ACFDT corr.  =        -0.00000003  see jH, gK, PRB 81, 115126


--------------------------------------------------------------------------------------------------------




--------------------------------------- Iteration      1(  10)  ---------------------------------------


    POTLOK:  cpu time    1.3850: real time    1.3855
    SETDIJ:  cpu time    2.0885: real time    2.0888
    TRIAL :  cpu time  505.5157: real time  505.6889
    CORREC:  cpu time    0.0013: real time    0.0015
    CHARGE:  cpu time    1.6450: real time    1.6452
    --------------------------------------------
      LOOP:  cpu time  510.6378: real time  510.8123

 eigenvalue-minimisations  :     0
 total energy-change (2. order) :-0.1333230E-01  (-0.1029632E-01)
 number of electron     239.9999998 magnetization       1.9999993
 augmentation part       12.2595207 magnetization       0.7027270

 DIPCOR: dipole corrections for dipol
 direction  3 min pos     1,
 dipolmoment           0.000003     -0.000000     -0.004124 electrons x Angstroem
 Tr[quadrupol]     -6335.433323

 energy correction for charged system         0.000000 eV
 dipol+quadrupol energy correction            0.000000 eV
 added-field ion interaction          0.000000 eV  (added to PSCEN)


 Free energy of the ion-electron system (eV)
  ---------------------------------------------------
  alpha Z        PSCENC =        98.76447379
  Ewald energy   TEWEN  =     37780.29658403
  -Hartree energ DENC   =    -45715.76374859
  -exchange      EXHF   =       538.25935055
  -V(xc)+E(xc)   XCENC  =       588.61578448
  PAW double counting   =     26466.51863325   -26488.11653312
  entropy T*S    EENTRO =        -0.00000002
  eigenvalues    EBANDS =     -3114.03381803
  atomic energy  EATOM  =      9235.00324046
  ---------------------------------------------------
  free energy    TOTEN  =      -610.45603321 eV

  energy without entropy =     -610.45603319  energy(sigma->0) =     -610.45603320
  exchange ACFDT corr.  =        -0.00000001  see jH, gK, PRB 81, 115126


--------------------------------------------------------------------------------------------------------




--------------------------------------- Iteration      1(  11)  ---------------------------------------


    POTLOK:  cpu time    1.3795: real time    1.3799
    SETDIJ:  cpu time    2.0878: real time    2.0884
    TRIAL :  cpu time  505.2446: real time  505.3838
    CORREC:  cpu time    0.0012: real time    0.0014
    CHARGE:  cpu time    1.6444: real time    1.6447
    --------------------------------------------
      LOOP:  cpu time  510.3595: real time  510.5003

 eigenvalue-minimisations  :     0
 total energy-change (2. order) :-0.9208768E-02  (-0.7138989E-02)
 number of electron     239.9999998 magnetization       1.9999994
 augmentation part       12.2611366 magnetization       0.7012269

 DIPCOR: dipole corrections for dipol
 direction  3 min pos     1,
 dipolmoment           0.000003     -0.000000     -0.004171 electrons x Angstroem
 Tr[quadrupol]     -6335.432732

 energy correction for charged system         0.000000 eV
 dipol+quadrupol energy correction            0.000000 eV
 added-field ion interaction          0.000000 eV  (added to PSCEN)


 Free energy of the ion-electron system (eV)
  ---------------------------------------------------
  alpha Z        PSCENC =        98.76447380
  Ewald energy   TEWEN  =     37780.29658403
  -Hartree energ DENC   =    -45715.77806780
  -exchange      EXHF   =       538.30443069
  -V(xc)+E(xc)   XCENC  =       588.63509856
  PAW double counting   =     26469.48568635   -26491.10906772
  entropy T*S    EENTRO =        -0.00000002
  eigenvalues    EBANDS =     -3114.06762033
  atomic energy  EATOM  =      9235.00324046
  ---------------------------------------------------
  free energy    TOTEN  =      -610.46524198 eV

  energy without entropy =     -610.46524196  energy(sigma->0) =     -610.46524197
  exchange ACFDT corr.  =        -0.00000001  see jH, gK, PRB 81, 115126


--------------------------------------------------------------------------------------------------------




--------------------------------------- Iteration      1(  12)  ---------------------------------------


    POTLOK:  cpu time    1.3759: real time    1.3762
    SETDIJ:  cpu time    2.0859: real time    2.0862
    TRIAL :  cpu time  504.2248: real time  504.3669
    CORREC:  cpu time    0.0014: real time    0.0017
    CHARGE:  cpu time    1.6433: real time    1.6434
    --------------------------------------------
      LOOP:  cpu time  509.3333: real time  509.4764

 eigenvalue-minimisations  :     0
 total energy-change (2. order) :-0.6438654E-02  (-0.5022976E-02)
 number of electron     239.9999998 magnetization       1.9999994
 augmentation part       12.2624186 magnetization       0.6995635

 DIPCOR: dipole corrections for dipol
 direction  3 min pos     1,
 dipolmoment           0.000003     -0.000000     -0.004206 electrons x Angstroem
 Tr[quadrupol]     -6335.432647

 energy correction for charged system         0.000000 eV
 dipol+quadrupol energy correction            0.000001 eV
 added-field ion interaction          0.000000 eV  (added to PSCEN)


 Free energy of the ion-electron system (eV)
  ---------------------------------------------------
  alpha Z        PSCENC =        98.76447381
  Ewald energy   TEWEN  =     37780.29658403
  -Hartree energ DENC   =    -45715.78279234
  -exchange      EXHF   =       538.33906733
  -V(xc)+E(xc)   XCENC  =       588.64968576
  PAW double counting   =     26470.89146889   -26492.53719209
  entropy T*S    EENTRO =        -0.00000001
  eigenvalues    EBANDS =     -3114.09621648
  atomic energy  EATOM  =      9235.00324046
  ---------------------------------------------------
  free energy    TOTEN  =      -610.47168063 eV

  energy without entropy =     -610.47168062  energy(sigma->0) =     -610.47168063
  exchange ACFDT corr.  =        -0.00000000  see jH, gK, PRB 81, 115126


--------------------------------------------------------------------------------------------------------




--------------------------------------- Iteration      1(  13)  ---------------------------------------


    POTLOK:  cpu time    1.3709: real time    1.3714
    SETDIJ:  cpu time    2.0867: real time    2.0873
    TRIAL :  cpu time  503.8983: real time  504.0146
    CORREC:  cpu time    0.0012: real time    0.0015
    CHARGE:  cpu time    1.6454: real time    1.6456
    --------------------------------------------
      LOOP:  cpu time  509.0045: real time  509.1224

 eigenvalue-minimisations  :     0
 total energy-change (2. order) :-0.4566347E-02  (-0.3590454E-02)
 number of electron     239.9999998 magnetization       1.9999994
 augmentation part       12.2634445 magnetization       0.6979077

 DIPCOR: dipole corrections for dipol
 direction  3 min pos     1,
 dipolmoment           0.000003     -0.000000     -0.004237 electrons x Angstroem
 Tr[quadrupol]     -6335.433847

 energy correction for charged system         0.000000 eV
 dipol+quadrupol energy correction            0.000001 eV
 added-field ion interaction          0.000000 eV  (added to PSCEN)


 Free energy of the ion-electron system (eV)
  ---------------------------------------------------
  alpha Z        PSCENC =        98.76447382
  Ewald energy   TEWEN  =     37780.29658403
  -Hartree energ DENC   =    -45715.85571781
  -exchange      EXHF   =       538.36806767
  -V(xc)+E(xc)   XCENC  =       588.66257328
  PAW double counting   =     26471.95788953   -26493.62292390
  entropy T*S    EENTRO =        -0.00000001
  eigenvalues    EBANDS =     -3114.05043404
  atomic energy  EATOM  =      9235.00324046
  ---------------------------------------------------
  free energy    TOTEN  =      -610.47624698 eV

  energy without entropy =     -610.47624697  energy(sigma->0) =     -610.47624698
  exchange ACFDT corr.  =        -0.00000000  see jH, gK, PRB 81, 115126


--------------------------------------------------------------------------------------------------------




--------------------------------------- Iteration      1(  14)  ---------------------------------------


    POTLOK:  cpu time    1.3675: real time    1.3677
    SETDIJ:  cpu time    2.1105: real time    2.1159
    TRIAL :  cpu time  503.3011: real time  503.4136
    CORREC:  cpu time    0.0014: real time    0.0017
    CHARGE:  cpu time    1.6428: real time    1.6433
    --------------------------------------------
      LOOP:  cpu time  508.4256: real time  508.5444

 eigenvalue-minimisations  :     0
 total energy-change (2. order) :-0.3287207E-02  (-0.2604277E-02)
 number of electron     239.9999998 magnetization       1.9999994
 augmentation part       12.2642735 magnetization       0.6963553

 DIPCOR: dipole corrections for dipol
 direction  3 min pos     1,
 dipolmoment           0.000003     -0.000000     -0.004265 electrons x Angstroem
 Tr[quadrupol]     -6335.435832

 energy correction for charged system         0.000000 eV
 dipol+quadrupol energy correction            0.000001 eV
 added-field ion interaction          0.000000 eV  (added to PSCEN)


 Free energy of the ion-electron system (eV)
  ---------------------------------------------------
  alpha Z        PSCENC =        98.76447383
  Ewald energy   TEWEN  =     37780.29658403
  -Hartree energ DENC   =    -45715.97332443
  -exchange      EXHF   =       538.39290924
  -V(xc)+E(xc)   XCENC  =       588.67415227
  PAW double counting   =     26473.17142348   -26494.85251386
  entropy T*S    EENTRO =        -0.00000001
  eigenvalues    EBANDS =     -3113.95647919
  atomic energy  EATOM  =      9235.00324046
  ---------------------------------------------------
  free energy    TOTEN  =      -610.47953419 eV

  energy without entropy =     -610.47953418  energy(sigma->0) =     -610.47953418
  exchange ACFDT corr.  =        -0.00000000  see jH, gK, PRB 81, 115126


--------------------------------------------------------------------------------------------------------




--------------------------------------- Iteration      1(  15)  ---------------------------------------


    POTLOK:  cpu time    1.3783: real time    1.3785
    SETDIJ:  cpu time    2.0854: real time    2.0857
    TRIAL :  cpu time  502.6574: real time  502.7745
    CORREC:  cpu time    0.0013: real time    0.0016
    CHARGE:  cpu time    1.6447: real time    1.6450
    --------------------------------------------
      LOOP:  cpu time  507.7693: real time  507.8874

 eigenvalue-minimisations  :     0
 total energy-change (2. order) :-0.2399159E-02  (-0.1920199E-02)
 number of electron     239.9999998 magnetization       1.9999994
 augmentation part       12.2649438 magnetization       0.6949169

 DIPCOR: dipole corrections for dipol
 direction  3 min pos     1,
 dipolmoment           0.000003     -0.000000     -0.004291 electrons x Angstroem
 Tr[quadrupol]     -6335.437920

 energy correction for charged system         0.000000 eV
 dipol+quadrupol energy correction            0.000001 eV
 added-field ion interaction          0.000000 eV  (added to PSCEN)


 Free energy of the ion-electron system (eV)
  ---------------------------------------------------
  alpha Z        PSCENC =        98.76447383
  Ewald energy   TEWEN  =     37780.29658403
  -Hartree energ DENC   =    -45716.09475951
  -exchange      EXHF   =       538.41404495
  -V(xc)+E(xc)   XCENC  =       588.68415617
  PAW double counting   =     26474.64455109   -26496.33878037
  entropy T*S    EENTRO =        -0.00000001
  eigenvalues    EBANDS =     -3113.85544399
  atomic energy  EATOM  =      9235.00324046
  ---------------------------------------------------
  free energy    TOTEN  =      -610.48193334 eV

  energy without entropy =     -610.48193334  energy(sigma->0) =     -610.48193334
  exchange ACFDT corr.  =        -0.00000000  see jH, gK, PRB 81, 115126


--------------------------------------------------------------------------------------------------------




--------------------------------------- Iteration      1(  16)  ---------------------------------------


    POTLOK:  cpu time    1.3644: real time    1.3647
    SETDIJ:  cpu time    2.1181: real time    2.1184
    TRIAL :  cpu time  503.2215: real time  503.3517
    CORREC:  cpu time    0.0013: real time    0.0016
    CHARGE:  cpu time    1.6393: real time    1.6396
    --------------------------------------------
      LOOP:  cpu time  508.3469: real time  508.4782

 eigenvalue-minimisations  :     0
 total energy-change (2. order) :-0.1778965E-02  (-0.1438581E-02)
 number of electron     239.9999998 magnetization       1.9999994
 augmentation part       12.2654800 magnetization       0.6935630

 DIPCOR: dipole corrections for dipol
 direction  3 min pos     1,
 dipolmoment           0.000003     -0.000000     -0.004312 electrons x Angstroem
 Tr[quadrupol]     -6335.439733

 energy correction for charged system         0.000000 eV
 dipol+quadrupol energy correction            0.000001 eV
 added-field ion interaction          0.000000 eV  (added to PSCEN)


 Free energy of the ion-electron system (eV)
  ---------------------------------------------------
  alpha Z        PSCENC =        98.76447384
  Ewald energy   TEWEN  =     37780.29658403
  -Hartree energ DENC   =    -45716.19847697
  -exchange      EXHF   =       538.43192274
  -V(xc)+E(xc)   XCENC  =       588.69256078
  PAW double counting   =     26476.27833702   -26497.98329967
  entropy T*S    EENTRO =        -0.00000000
  eigenvalues    EBANDS =     -3113.76905453
  atomic energy  EATOM  =      9235.00324046
  ---------------------------------------------------
  free energy    TOTEN  =      -610.48371231 eV

  energy without entropy =     -610.48371231  energy(sigma->0) =     -610.48371231
  exchange ACFDT corr.  =        -0.00000000  see jH, gK, PRB 81, 115126


--------------------------------------------------------------------------------------------------------




--------------------------------------- Iteration      1(  17)  ---------------------------------------


    POTLOK:  cpu time    1.3624: real time    1.3627
    SETDIJ:  cpu time    2.1134: real time    2.1140
    TRIAL :  cpu time  502.5666: real time  502.6914
    CORREC:  cpu time    0.0013: real time    0.0016
    CHARGE:  cpu time    1.6445: real time    1.6447
    --------------------------------------------
      LOOP:  cpu time  507.6906: real time  507.8169

 eigenvalue-minimisations  :     0
 total energy-change (2. order) :-0.1339764E-02  (-0.1094943E-02)
 number of electron     239.9999998 magnetization       1.9999994
 augmentation part       12.2659034 magnetization       0.6922702

 DIPCOR: dipole corrections for dipol
 direction  3 min pos     1,
 dipolmoment           0.000003     -0.000000     -0.004327 electrons x Angstroem
 Tr[quadrupol]     -6335.441115

 energy correction for charged system         0.000000 eV
 dipol+quadrupol energy correction            0.000001 eV
 added-field ion interaction          0.000000 eV  (added to PSCEN)


 Free energy of the ion-electron system (eV)
  ---------------------------------------------------
  alpha Z        PSCENC =        98.76447384
  Ewald energy   TEWEN  =     37780.29658403
  -Hartree energ DENC   =    -45716.27873234
  -exchange      EXHF   =       538.44703196
  -V(xc)+E(xc)   XCENC  =       588.69957530
  PAW double counting   =     26477.91290910   -26499.62665527
  entropy T*S    EENTRO =        -0.00000000
  eigenvalues    EBANDS =     -3113.70347916
  atomic energy  EATOM  =      9235.00324046
  ---------------------------------------------------
  free energy    TOTEN  =      -610.48505207 eV

  energy without entropy =     -610.48505207  energy(sigma->0) =     -610.48505207
  exchange ACFDT corr.  =        -0.00000000  see jH, gK, PRB 81, 115126


--------------------------------------------------------------------------------------------------------




--------------------------------------- Iteration      1(  18)  ---------------------------------------


    POTLOK:  cpu time    1.3612: real time    1.3615
    SETDIJ:  cpu time    2.1180: real time    2.1183
    TRIAL :  cpu time  501.9527: real time  502.0774
    CORREC:  cpu time    0.0012: real time    0.0015
    CHARGE:  cpu time    1.6427: real time    1.6429
    --------------------------------------------
      LOOP:  cpu time  507.0780: real time  507.2036

 eigenvalue-minimisations  :     0
 total energy-change (2. order) :-0.1024922E-02  (-0.8476497E-03)
 number of electron     239.9999998 magnetization       1.9999994
 augmentation part       12.2662392 magnetization       0.6910348

 DIPCOR: dipole corrections for dipol
 direction  3 min pos     1,
 dipolmoment           0.000003     -0.000000     -0.004336 electrons x Angstroem
 Tr[quadrupol]     -6335.442075

 energy correction for charged system         0.000000 eV
 dipol+quadrupol energy correction            0.000001 eV
 added-field ion interaction          0.000000 eV  (added to PSCEN)


 Free energy of the ion-electron system (eV)
  ---------------------------------------------------
  alpha Z        PSCENC =        98.76447385
  Ewald energy   TEWEN  =     37780.29658403
  -Hartree energ DENC   =    -45716.33804816
  -exchange      EXHF   =       538.45980590
  -V(xc)+E(xc)   XCENC  =       588.70546016
[...]
  augment    40.26717    42.71187    44.69110     0.22972     0.00343     0.02764
  Kinetic  3532.55064  3522.56842  3987.56389    11.59816    -0.03685     0.12441
  Fock     -302.24503  -305.48343  -282.13920     0.28350     0.00882    -0.06725
  -------------------------------------------------------------------------------------
  Total      -8.12894   -52.60307    -0.29760     7.84831    -0.01804     0.03235
  in kB      -4.09959   -26.52880    -0.15008     3.95806    -0.00910     0.01631
  external pressure =      -10.26 kB  Pullay stress =        0.00 kB


 VOLUME and BASIS-vectors are now :
 -----------------------------------------------------------------------------
  energy-cutoff  :      500.00
  volume of cell :     3176.90
      direct lattice vectors                 reciprocal lattice vectors
    12.697900000  0.000000000  0.000000000     0.078753180 -0.000492353  0.000054586
     0.078531090 12.561254520  0.000000000     0.000000000  0.079609883 -0.000002985
    -0.013800888  0.000746790 19.917695205     0.000000000  0.000000000  0.050206612

  length of vectors
    12.697900000 12.561500000 19.917700000     0.078754738  0.079609883  0.050206612


 FORCES acting on ions:
    Electron-Ion                     Ewald-Force                    Non-Local-Force
 -----------------------------------------------------------------------------------------------
   -.157E+01 0.118E+00 0.357E+00   0.170E+01 -.291E+00 -.358E+00   -.110E+00 0.112E+00 0.554E-03
   -.370E+01 0.108E+01 0.398E+00   0.381E+01 -.101E+01 -.401E+00   -.151E+00 -.765E-01 0.266E-02
   0.448E+01 -.149E+01 0.162E+00   -.439E+01 0.146E+01 -.160E+00   -.785E-01 0.240E-01 -.262E-02
   0.221E+00 -.879E+00 0.517E+00   -.230E+00 0.978E+00 -.516E+00   0.141E-01 -.581E-01 0.947E-03
   -.271E+01 -.184E+01 0.329E+00   0.302E+01 0.231E+01 -.330E+00   -.328E+00 -.527E+00 0.639E-02
   -.293E+01 -.256E+01 0.560E-01   0.326E+01 0.310E+01 -.467E-01   -.339E+00 -.511E+00 -.699E-02
   0.572E+01 -.642E+01 0.395E+00   -.553E+01 0.667E+01 -.398E+00   -.139E+00 -.233E+00 0.411E-02
   -.751E+01 0.736E+00 -.156E+01   0.743E+01 -.542E+00 0.160E+01   -.776E-01 -.350E+00 -.379E-01
   -.139E+02 -.603E+01 0.289E+00   0.148E+02 0.617E+01 -.302E+00   -.929E+00 -.120E+00 0.125E-01
   0.668E+01 -.136E+02 -.510E+00   -.572E+01 0.137E+02 0.509E+00   -.796E+00 -.269E+00 -.610E-03
   -.766E+01 0.928E+01 0.466E-01   0.819E+01 -.989E+01 -.454E-01   -.522E+00 0.583E+00 -.322E-03
   -.133E+01 0.130E+02 0.275E+00   0.292E+01 -.131E+02 -.275E+00   -.152E+01 0.203E+00 0.236E-02
   -.590E+00 0.606E+01 -.245E+00   0.671E-01 -.744E+01 0.244E+00   0.268E+00 0.128E+01 -.343E-03
   -.328E+01 0.350E+01 -.132E+00   0.356E+01 -.414E+01 0.135E+00   -.293E+00 0.586E+00 -.323E-02
   -.631E+01 0.397E+01 -.501E-01   0.645E+01 -.413E+01 0.481E-01   -.188E+00 0.178E+00 0.668E-03
   0.525E+01 0.366E+01 -.722E-01   -.503E+01 -.403E+01 0.705E-01   -.170E+00 0.307E+00 0.106E-02
   0.369E+01 0.394E+01 0.195E+00   -.383E+01 -.413E+01 -.191E+00   0.133E+00 0.241E+00 -.349E-02
   0.618E+00 -.253E+01 0.918E+00   -.101E+01 0.223E+01 -.919E+00   0.369E+00 0.249E+00 0.126E-02
   -.422E+01 -.713E+01 0.636E+00   0.434E+01 0.746E+01 -.639E+00   -.155E+00 -.316E+00 0.437E-02
   0.514E+01 -.965E+00 0.767E+00   -.549E+01 0.912E+00 -.766E+00   0.326E+00 0.336E-01 -.353E-03
   0.538E+01 0.467E+01 0.116E+01   -.545E+01 -.521E+01 -.117E+01   0.108E+00 0.491E+00 0.119E-01
   0.233E+02 0.113E+02 0.499E+00   -.258E+02 -.143E+02 -.510E+00   0.261E+01 0.307E+01 0.171E-01
   0.458E+01 -.112E+02 0.223E+00   -.596E+01 0.123E+02 -.243E+00   0.124E+01 -.992E+00 0.235E-01
   0.265E+02 -.124E+02 0.890E+00   -.303E+02 0.165E+02 -.939E+00   0.365E+01 -.393E+01 0.515E-01
   0.511E+01 0.755E+01 -.219E+00   -.506E+01 -.890E+01 0.242E+00   0.876E-01 0.113E+01 -.246E-01
   0.372E+01 -.573E+01 0.773E+00   -.401E+01 0.607E+01 -.775E+00   0.259E+00 -.291E+00 0.309E-02
   0.232E+01 -.295E+01 0.642E+00   -.286E+01 0.302E+01 -.640E+00   0.464E+00 -.120E+00 -.201E-02
   -.132E+01 0.159E+01 0.504E+00   0.117E+01 -.176E+01 -.505E+00   0.116E+00 0.179E+00 0.188E-02
   0.106E+02 0.392E+01 0.396E+00   -.110E+02 -.450E+01 -.394E+00   0.495E+00 0.568E+00 -.224E-02
   0.238E+01 -.948E+00 0.657E+00   -.244E+01 0.913E+00 -.659E+00   0.932E-01 0.852E-01 0.909E-03
   -.717E+01 0.189E+01 0.430E-01   0.732E+01 -.192E+01 -.430E-01   -.176E+00 0.335E-01 -.194E-02
   -.875E+01 0.461E+00 0.644E+00   0.892E+01 -.678E+00 -.638E+00   -.217E+00 0.228E+00 -.381E-02
   0.206E+01 -.190E+01 0.266E+00   -.186E+01 0.166E+01 -.267E+00   -.176E+00 0.207E+00 -.802E-03
   0.438E+01 -.554E+01 0.379E+00   -.419E+01 0.553E+01 -.379E+00   -.137E+00 0.556E-03 0.648E-03
   -.562E+01 -.177E+01 0.670E+00   0.603E+01 0.193E+01 -.672E+00   -.410E+00 -.120E+00 0.343E-02
   -.268E+02 -.203E+02 -.809E-01   0.304E+02 0.205E+02 0.654E-01   -.365E+01 -.330E+00 0.179E-01
   -.249E+01 -.653E+01 0.697E+00   0.301E+01 0.645E+01 -.700E+00   -.454E+00 0.831E-01 0.438E-02
   0.513E+01 -.690E+01 0.482E+00   -.477E+01 0.694E+01 -.481E+00   -.326E+00 -.878E-01 0.702E-03
   -.404E+01 -.392E+01 0.293E+00   0.414E+01 0.398E+01 -.290E+00   -.185E+00 -.930E-01 -.838E-03
   -.401E+02 0.238E+02 0.357E+00   0.440E+02 -.240E+02 -.370E+00   -.419E+01 0.390E+00 0.172E-01
   0.750E+01 0.355E+01 -.246E+00   -.717E+01 -.365E+01 0.251E+00   -.169E+00 0.315E-01 -.448E-02
   0.246E+01 0.537E+01 0.441E+00   -.177E+01 -.535E+01 -.440E+00   -.520E+00 -.907E-03 -.510E-03
   -.130E+02 0.513E+01 0.650E+00   0.134E+02 -.517E+01 -.653E+00   -.480E+00 0.970E-01 0.360E-02
   -.102E+02 0.585E+00 0.552E+00   0.103E+02 -.418E+00 -.544E+00   -.955E-01 -.178E+00 -.747E-02
   -.630E+01 0.276E+01 0.102E+01   0.701E+01 -.241E+01 -.103E+01   -.593E+00 -.288E+00 0.949E-02
   -.112E+01 0.269E+01 0.169E+00   0.160E+01 -.276E+01 -.169E+00   -.468E+00 0.559E-01 -.134E-02
   -.915E+01 0.425E+01 -.477E-01   0.932E+01 -.439E+01 0.472E-01   -.210E+00 0.112E+00 -.185E-02
   -.595E+01 0.107E+01 0.256E+00   0.588E+01 -.110E+01 -.256E+00   0.116E-01 0.683E-01 -.259E-02
   -.408E+00 -.299E+01 0.173E+00   0.625E+00 0.309E+01 -.174E+00   -.159E+00 -.108E+00 -.123E-02
   0.369E+01 -.925E+00 -.140E+00   -.344E+01 0.895E+00 0.140E+00   -.177E+00 0.406E-01 -.187E-02
   0.273E+01 -.276E+02 -.201E+01   0.254E+00 0.340E+02 0.199E+01   -.297E+01 -.652E+01 0.548E-02
   -.627E+01 0.346E+02 0.228E+00   0.992E+01 -.404E+02 -.235E+00   -.364E+01 0.583E+01 0.410E-02
   -.326E+02 -.481E+02 -.190E+01   0.360E+02 0.547E+02 0.195E+01   -.370E+01 -.668E+01 -.596E-01
   0.320E+02 0.495E+02 -.186E-01   -.364E+02 -.553E+02 0.112E-01   0.462E+01 0.591E+01 0.136E-01
   0.341E+02 -.688E+02 -.191E+01   -.449E+02 0.863E+02 0.204E+01   0.103E+02 -.167E+02 -.123E+00
   0.337E+02 0.606E+02 -.122E+01   -.438E+02 -.760E+02 0.132E+01   0.993E+01 0.147E+02 -.960E-01
   -.494E+02 -.386E+01 0.661E+01   0.422E+02 0.108E+02 -.649E+01   0.700E+01 -.615E+01 -.127E+00
   0.308E+02 0.109E+02 -.145E+02   -.286E+02 -.137E+02 0.144E+02   -.125E+01 0.250E+01 0.175E+00
 -----------------------------------------------------------------------------------------------
   -.127E+02 0.584E+01 0.125E+00   0.142E-12 0.782E-13 0.711E-14   0.119E+02 -.542E+01 -.116E+00
 
 
 POSITION                                       TOTAL-FORCE (eV/Angst)
 -----------------------------------------------------------------------------------
      2.89185     12.52883      9.95790         0.007112     -0.053604      0.000297
      0.68741      1.23033      9.95782        -0.058583     -0.004765      0.000276
      1.47435     12.53933      9.95825         0.011037     -0.004785     -0.000544
      3.51476      1.21095      9.95825         0.008189      0.041636      0.002073
      2.79939      2.43793      9.95989        -0.030404     -0.072703      0.005291
      0.68467      3.73661      9.95953        -0.025440      0.007730      0.001906
      1.38521      2.47495      9.95863         0.059886     -0.011595      0.002038
      3.50640      3.67357      9.96573        -0.151630     -0.156077     -0.003325
      0.74732      6.25690      9.95877        -0.129390      0.002446      0.000507
      1.41012      4.97393      9.96152         0.135805     -0.154859     -0.001232
      0.79671      8.76969      9.95866        -0.028159      0.003432      0.000813
      1.51389      7.50509      9.95839         0.015695      0.186010      0.001693
      3.59868      8.79619      9.95963        -0.241621     -0.041026     -0.001164
      2.89980     10.03885      9.95918        -0.039944     -0.025243     -0.000498
      0.78183     11.28733      9.95882        -0.067256      0.037547     -0.001309
      1.48391     10.02979      9.95902         0.058826     -0.047536     -0.000599
      3.59499     11.29103      9.95808         0.008950      0.062849      0.000320
      7.12830     12.56069      9.95592        -0.009355     -0.040035      0.000797
      4.93279      1.23539      9.95818        -0.051194     -0.004205      0.001496
      5.71085     12.55075      9.95654        -0.001391     -0.015966      0.000922
      7.75563      1.24068      9.95666         0.055077     -0.011299      0.003849
      7.06933      2.47997      9.96111         0.252520      0.307076      0.007254
      5.62652      2.50047      9.96177        -0.081269      0.033639      0.005528
      7.14565      7.64577      9.95995         0.097117     -0.090787      0.006030
      5.04451      8.79093      9.95990         0.142032     -0.161989     -0.003525
      7.84963      8.87217      9.95738        -0.020784      0.019391      0.001411
      7.13512     10.09213      9.95673        -0.054953     -0.062860      0.000042
      5.01115     11.30161      9.95709        -0.032394      0.019655      0.001185
      5.72219     10.05829      9.95763         0.117931      0.022277     -0.000060
      7.83894     11.33050      9.95626         0.038936      0.054365     -0.000951
     11.36344     12.55705      9.95821        -0.039759      0.017071     -0.002064
      9.16893      1.25265      9.95718        -0.071611      0.024024      0.001904
      9.87307      0.00548      9.95753         0.027091     -0.027839     -0.001474
     11.97033      1.24830      9.95759         0.054751     -0.022524     -0.000118
     11.26564      2.50937      9.95732        -0.035945      0.044878      0.002126
      9.10789      3.75929      9.96220        -0.294833     -0.114393      0.003314
      9.84752      2.51510      9.95803         0.049845     -0.001293      0.002266
     11.96561      3.75808      9.95814         0.029334     -0.061136      0.002197
     11.26561      5.02150      9.95895        -0.102784     -0.040314      0.001625
      9.19459      6.35058      9.96095        -0.572975      0.180173      0.005570
      9.83055      5.03462      9.96144         0.172589     -0.064449      0.000498
     12.02654      6.26936      9.95805         0.156072      0.025260      0.000429
     11.35417      7.54447      9.95725        -0.057278      0.063905      0.001172
      9.25870      8.83616      9.95736        -0.045103     -0.015195     -0.000149
      9.94662      7.57560      9.95715         0.098208      0.052245      0.001685
     12.07325      8.78694      9.95817        -0.000775     -0.012511     -0.000641
     11.37608     10.04941      9.95854        -0.066820     -0.014300     -0.002454
      9.25357     11.32104      9.95730        -0.061425      0.041801     -0.002318
      9.96232     10.07234      9.95781         0.057796     -0.019907     -0.002073
     12.06846     11.30107      9.95885         0.073227      0.007471     -0.002151
      2.79564      4.90609      9.96504        -0.133517     -0.473146     -0.014656
      2.93789      7.53972      9.95837        -0.181840      0.356060     -0.002817
      4.92680      3.74439      9.96855        -0.532526     -0.421154     -0.007383
      5.73561      7.54333      9.96100         0.454293      0.434564      0.006681
      7.72922      3.68813      9.96744         0.361552     -0.642959     -0.001292
      7.86107      6.45601      9.96587         0.651309      0.586271     -0.006101
      4.21213      6.06030      9.95308        -0.761582      0.457770      0.007974
      6.40410      5.22341      9.99201         0.787360     -0.199094     -0.022272
 -----------------------------------------------------------------------------------
    total drift:                               -0.002314     -0.002055      0.002226


--------------------------------------------------------------------------------------------------------



  FREE ENERGIE OF THE ION-ELECTRON SYSTEM (eV)
  ---------------------------------------------------
  free  energy   TOTEN  =      -610.49137599 eV

  energy  without entropy=     -610.49137599  energy(sigma->0) =     -610.49137599
 


--------------------------------------------------------------------------------------------------------


    POTLOK:  cpu time    3.4326: real time    3.4406


--------------------------------------------------------------------------------------------------------


 stress matrix after NEB project (eV)
     -8.12894      7.84816      0.03235
      7.84831    -52.60307     -0.01796
      0.03237     -0.01804     -0.29760
  FORCES: max atom, RMS     0.888608    0.297152
  FORCE total and by dimension    2.263039    0.787360
  Stress total and by dimension   54.373190   52.603072
 writing wavefunctions
     LOOP+:  cpu time26516.6720: real time26526.7552
    4ORBIT:  cpu time    0.0000: real time    0.0000
 


 total charge     
 
# of ion       s       p       d       tot
------------------------------------------
    1        0.870   1.777   0.000   2.647
    2        0.868   1.768   0.000   2.636
    3        0.865   1.771   0.000   2.636
    4        0.870   1.783   0.000   2.652
    5        0.875   1.784   0.000   2.660
    6        0.867   1.755   0.000   2.623
    7        0.866   1.772   0.000   2.639
    8        0.878   1.764   0.000   2.642
    9        0.866   1.726   0.000   2.592
   10        0.868   1.783   0.000   2.651
   11        0.864   1.748   0.000   2.612
   12        0.857   1.726   0.000   2.583
   13        0.873   1.760   0.000   2.632
   14        0.871   1.773   0.000   2.643
   15        0.868   1.767   0.000   2.635
   16        0.865   1.768   0.000   2.633
   17        0.868   1.782   0.000   2.649
   18        0.870   1.779   0.000   2.649
   19        0.867   1.762   0.000   2.629
   20        0.867   1.777   0.000   2.644
   21        0.871   1.797   0.000   2.668
   22        0.868   1.731   0.000   2.599
   23        0.863   1.755   0.000   2.618
   24        0.871   1.745   0.000   2.616
   25        0.870   1.732   0.000   2.601
   26        0.876   1.809   0.000   2.685
   27        0.872   1.791   0.000   2.663
   28        0.868   1.768   0.000   2.636
   29        0.868   1.774   0.000   2.641
   30        0.871   1.787   0.000   2.658
   31        0.868   1.768   0.000   2.636
   32        0.869   1.766   0.000   2.635
   33        0.867   1.783   0.000   2.650
   34        0.865   1.772   0.000   2.637
   35        0.865   1.758   0.000   2.624
   36        0.851   1.692   0.000   2.542
   37        0.864   1.768   0.000   2.632
   38        0.864   1.769   0.000   2.632
   39        0.858   1.721   0.000   2.580
   40        0.863   1.729   0.000   2.592
   41        0.848   1.743   0.000   2.591
   42        0.858   1.753   0.000   2.611
   43        0.867   1.763   0.000   2.631
   44        0.871   1.774   0.000   2.645
   45        0.866   1.784   0.000   2.650
   46        0.863   1.763   0.000   2.626
   47        0.868   1.763   0.000   2.630
   48        0.868   1.771   0.000   2.639
   49        0.867   1.783   0.000   2.650
   50        0.866   1.776   0.000   2.642
   51        0.891   1.714   0.000   2.605
   52        0.872   1.648   0.000   2.521
   53        0.869   1.664   0.000   2.532
   54        0.857   1.678   0.000   2.535
   55        1.233   2.673   0.000   3.905
   56        1.241   2.734   0.000   3.975
   57        0.502   0.561   6.314   7.377
   58        0.449   0.604   4.333   5.386
--------------------------------------------------
tot         50.252 101.486  10.646 162.384
 


 magnetization (x)
 
# of ion       s       p       d       tot
------------------------------------------
    1        0.000   0.004   0.000   0.005
    2        0.001   0.009   0.000   0.009
    3       -0.000  -0.004   0.000  -0.005
    4        0.000   0.003   0.000   0.003
    5        0.000   0.006   0.000   0.006
    6        0.002   0.014   0.000   0.016
    7       -0.001  -0.011   0.000  -0.012
    8       -0.001  -0.010   0.000  -0.011
    9        0.001   0.024   0.000   0.025
   10       -0.001  -0.017   0.000  -0.018
   11        0.001   0.010   0.000   0.011
   12       -0.001  -0.014   0.000  -0.015
   13       -0.000  -0.005   0.000  -0.006
   14        0.001   0.010   0.000   0.012
   15        0.000   0.006   0.000   0.006
   16       -0.001  -0.005   0.000  -0.006
   17        0.000   0.001   0.000   0.001
   18        0.001   0.010   0.000   0.011
   19        0.000   0.003   0.000   0.003
   20       -0.000  -0.003   0.000  -0.003
   21       -0.001  -0.010   0.000  -0.011
   22        0.003   0.033   0.000   0.036
   23        0.003   0.016   0.000   0.020
   24        0.005   0.021   0.000   0.026
   25       -0.000   0.003   0.000   0.002
   26        0.000  -0.005   0.000  -0.005
   27        0.000   0.004   0.000   0.004
   28        0.000   0.006   0.000   0.006
   29       -0.000  -0.004   0.000  -0.004
   30       -0.001  -0.005   0.000  -0.006
   31        0.001   0.007   0.000   0.008
   32        0.001   0.014   0.000   0.015
   33       -0.001  -0.007   0.000  -0.007
   34       -0.001  -0.006   0.000  -0.007
   35        0.001   0.007   0.000   0.007
   36        0.001   0.010   0.000   0.011
   37       -0.001  -0.008   0.000  -0.008
   38       -0.000  -0.005   0.000  -0.006
   39        0.001   0.015   0.000   0.016
   40        0.002   0.021   0.000   0.023
   41       -0.000   0.001   0.000   0.001
   42       -0.001  -0.005   0.000  -0.005
   43        0.001   0.008   0.000   0.009
   44        0.001   0.015   0.000   0.016
   45       -0.001  -0.008   0.000  -0.009
   46       -0.001  -0.007   0.000  -0.007
   47        0.001   0.010   0.000   0.011
   48        0.001   0.013   0.000   0.014
   49       -0.001  -0.006   0.000  -0.007
   50       -0.001  -0.007   0.000  -0.007
   51        0.016   0.091   0.000   0.107
   52        0.019   0.084   0.000   0.103
   53       -0.007  -0.007   0.000  -0.014
   54       -0.003  -0.008   0.000  -0.011
   55       -0.007  -0.028   0.000  -0.035
   56       -0.007  -0.035   0.000  -0.042
   57       -0.040   0.021  -2.292  -2.310
   58        0.070   0.054   3.515   3.639
--------------------------------------------------
tot          0.058   0.322   1.223   1.603
 

 total amount of memory used by VASP MPI-rank0   184479. kBytes
=======================================================================

   base      :      30000. kBytes
   nonl-proj :       5333. kBytes
   fftplans  :      14250. kBytes
   grid      :      36827. kBytes
   one-center:         62. kBytes
   HF        :         23. kBytes
   nonlr-proj:      21403. kBytes
   wavefun   :      76581. kBytes
 
  
  
 General timing and accounting informations for this job:
 ========================================================
  
                  Total CPU time used (sec):    26609.578
                            User time (sec):    26561.782
                          System time (sec):       47.796
                         Elapsed time (sec):    26621.268
  
                   Maximum memory used (kb):      429500.
                   Average memory used (kb):           0.
  
                          Minor page faults:       215473
                          Major page faults:            0
                 Voluntary context switches:         1155
