 vasp.5.4.4.18Apr17-6-g9f103f2a35 (build Feb 25 2019 10:51:38) complex          
  
 executed on             LinuxIFC date 2022.01.27  17:04:50
 running on   32 total cores
 distrk:  each k-point on   32 cores,    1 groups
 distr:  one band on NCORES_PER_BAND=  32 cores,    1 groups


--------------------------------------------------------------------------------------------------------


 INCAR:
 POTCAR:    PAW_PBE C 08Apr2002                   
 POTCAR:    PAW_PBE N 08Apr2002                   
 POTCAR:    PAW_PBE Fe 06Sep2000                  
 POTCAR:    PAW_PBE Zn 06Sep2000                  

 ----------------------------------------------------------------------------- 
|                                                                             |
|           W    W    AA    RRRRR   N    N  II  N    N   GGGG   !!!           |
|           W    W   A  A   R    R  NN   N  II  NN   N  G    G  !!!           |
|           W    W  A    A  R    R  N N  N  II  N N  N  G       !!!           |
|           W WW W  AAAAAA  RRRRR   N  N N  II  N  N N  G  GGG   !            |
|           WW  WW  A    A  R   R   N   NN  II  N   NN  G    G                |
|           W    W  A    A  R    R  N    N  II  N    N   GGGG   !!!           |
|                                                                             |
|      For optimal performance we recommend to set                            |
|        NCORE= 4 - approx SQRT( number of cores)                             |
|      NCORE specifies how many cores store one orbital (NPAR=cpu/NCORE).     |
|      This setting can  greatly improve the performance of VASP for DFT.     |
|      The default,   NCORE=1            might be grossly inefficient         |
|      on modern multi-core architectures or massively parallel machines.     |
|      Do your own testing !!!!                                               |
|      Unfortunately you need to use the default for GW and RPA calculations. |
|      (for HF NCORE is supported but not extensively tested yet)             |
|                                                                             |
 ----------------------------------------------------------------------------- 

 POTCAR:    PAW_PBE C 08Apr2002                   
   VRHFIN =C: s2p2                                                              
   LEXCH  = PE                                                                  
   EATOM  =   147.1560 eV,   10.8157 Ry                                         
                                                                                
   TITEL  = PAW_PBE C 08Apr2002                                                 
   LULTRA =        F    use ultrasoft PP ?                                      
   IUNSCR =        1    unscreen: 0-lin 1-nonlin 2-no                           
   RPACOR =    1.200    partial core radius                                     
   POMASS =   12.011; ZVAL   =    4.000    mass and valenz                      
   RCORE  =    1.500    outmost cutoff radius                                   
   RWIGS  =    1.630; RWIGS  =    0.863    wigner-seitz radius (au A)           
   ENMAX  =  400.000; ENMIN  =  300.000 eV                                      
   ICORE  =        2    local potential                                         
   LCOR   =        T    correct aug charges                                     
   LPAW   =        T    paw PP                                                  
   EAUG   =  644.873                                                            
   DEXC   =    0.000                                                            
   RMAX   =    1.529    core radius for proj-oper                               
   RAUG   =    1.300    factor for augmentation sphere                          
   RDEP   =    1.501    radius for radial grids                                 
   RDEPT  =    1.300    core radius for aug-charge                              
                                                                                
   Atomic configuration                                                         
    4 entries                                                                   
     n  l   j            E        occ.                                          
     1  0  0.50      -273.3789   2.0000                                         
     2  0  0.50       -13.7508   2.0000                                         
     2  1  0.50        -5.2854   2.0000                                         
     3  2  1.50        -5.4423   0.0000                                         
   Description                                                                  
     l       E           TYP  RCUT    TYP  RCUT                                 
     0    -13.7508458     23  1.200                                             
     0     -8.2022199     23  1.200                                             
     1     -5.2854383     23  1.500                                             
     1     34.0145650     23  1.500                                             
     2     -5.4423304      7  1.500                                             
  local pseudopotential read in
  partial core-charges read in
  partial kinetic energy density read in
  atomic valenz-charges read in
  non local Contribution for L=           0  read in
    real space projection operators read in
  non local Contribution for L=           0  read in
    real space projection operators read in
  non local Contribution for L=           1  read in
    real space projection operators read in
  non local Contribution for L=           1  read in
    real space projection operators read in
    PAW grid and wavefunctions read in
 
   number of l-projection  operators is LMAX  =           4
   number of lm-projection operators is LMMAX =           8
 
 POTCAR:    PAW_PBE N 08Apr2002                   
   VRHFIN =N: s2p3                                                              
   LEXCH  = PE                                                                  
   EATOM  =   264.5486 eV,   19.4438 Ry                                         
                                                                                
   TITEL  = PAW_PBE N 08Apr2002                                                 
   LULTRA =        F    use ultrasoft PP ?                                      
   IUNSCR =        1    unscreen: 0-lin 1-nonlin 2-no                           
   RPACOR =    1.200    partial core radius                                     
   POMASS =   14.001; ZVAL   =    5.000    mass and valenz                      
   RCORE  =    1.500    outmost cutoff radius                                   
   RWIGS  =    1.400; RWIGS  =    0.741    wigner-seitz radius (au A)           
   ENMAX  =  400.000; ENMIN  =  300.000 eV                                      
   ICORE  =        2    local potential                                         
   LCOR   =        T    correct aug charges                                     
   LPAW   =        T    paw PP                                                  
   EAUG   =  627.112                                                            
   DEXC   =    0.000                                                            
   RMAX   =    1.529    core radius for proj-oper                               
   RAUG   =    1.300    factor for augmentation sphere                          
   RDEP   =    1.514    radius for radial grids                                 
   RDEPT  =    1.338    core radius for aug-charge                              
                                                                                
   Atomic configuration                                                         
    4 entries                                                                   
     n  l   j            E        occ.                                          
     1  0  0.50      -384.7179   2.0000                                         
     2  0  0.50       -18.5828   2.0000                                         
     2  1  0.50        -7.0898   3.0000                                         
     3  2  1.50        -6.8029   0.0000                                         
   Description                                                                  
     l       E           TYP  RCUT    TYP  RCUT                                 
     0    -18.5828119     23  1.200                                             
     0    -13.5018863     23  1.200                                             
     1     -7.0897853     23  1.500                                             
     1      9.5240782     23  1.500                                             
     2     -6.8029130      7  1.500                                             
  local pseudopotential read in
  partial core-charges read in
  partial kinetic energy density read in
  atomic valenz-charges read in
  non local Contribution for L=           0  read in
    real space projection operators read in
  non local Contribution for L=           0  read in
    real space projection operators read in
  non local Contribution for L=           1  read in
    real space projection operators read in
  non local Contribution for L=           1  read in
    real space projection operators read in
    PAW grid and wavefunctions read in
 
   number of l-projection  operators is LMAX  =           4
   number of lm-projection operators is LMMAX =           8
 
 POTCAR:    PAW_PBE Fe 06Sep2000                  
   VRHFIN =Fe:  d7 s1                                                           
   LEXCH  = PE                                                                  
   EATOM  =   594.3153 eV,   43.6809 Ry                                         
                                                                                
   TITEL  = PAW_PBE Fe 06Sep2000                                                
   LULTRA =        F    use ultrasoft PP ?                                      
   IUNSCR =        1    unscreen: 0-lin 1-nonlin 2-no                           
   RPACOR =    2.000    partial core radius                                     
   POMASS =   55.847; ZVAL   =    8.000    mass and valenz                      
   RCORE  =    2.300    outmost cutoff radius                                   
   RWIGS  =    2.460; RWIGS  =    1.302    wigner-seitz radius (au A)           
   ENMAX  =  267.882; ENMIN  =  200.911 eV                                      
   RCLOC  =    1.701    cutoff for local pot                                    
   LCOR   =        T    correct aug charges                                     
   LPAW   =        T    paw PP                                                  
   EAUG   =  511.368                                                            
   DEXC   =    0.000                                                            
   RMAX   =    2.356    core radius for proj-oper                               
   RAUG   =    1.300    factor for augmentation sphere                          
   RDEP   =    2.442    radius for radial grids                                 
   RDEPT  =    1.890    core radius for aug-charge                              
                                                                                
   Atomic configuration                                                         
    9 entries                                                                   
     n  l   j            E        occ.                                          
     1  0  0.50     -6993.8440   2.0000                                         
     2  0  0.50      -814.6047   2.0000                                         
     2  1  1.50      -693.3689   6.0000                                         
     3  0  0.50       -89.4732   2.0000                                         
     3  1  1.50       -55.6373   6.0000                                         
     3  2  2.50        -3.8151   7.0000                                         
     4  0  0.50        -4.2551   1.0000                                         
     4  1  1.50        -3.4015   0.0000                                         
     4  3  2.50        -1.3606   0.0000                                         
   Description                                                                  
     l       E           TYP  RCUT    TYP  RCUT                                 
     2     -3.8151135     23  2.300                                             
     2     -5.1756961     23  2.300                                             
     0     -4.2550963     23  2.300                                             
     0      7.2035603     23  2.300                                             
     1     -2.7211652     23  2.300                                             
     1     18.4316424     23  2.300                                             
  local pseudopotential read in
  partial core-charges read in
  partial kinetic energy density read in
  atomic valenz-charges read in
  non local Contribution for L=           2  read in
    real space projection operators read in
  non local Contribution for L=           2  read in
    real space projection operators read in
  non local Contribution for L=           0  read in
    real space projection operators read in
  non local Contribution for L=           0  read in
    real space projection operators read in
  non local Contribution for L=           1  read in
    real space projection operators read in
  non local Contribution for L=           1  read in
    real space projection operators read in
    PAW grid and wavefunctions read in
 
   number of l-projection  operators is LMAX  =           6
   number of lm-projection operators is LMMAX =          18
 
 POTCAR:    PAW_PBE Zn 06Sep2000                  
   VRHFIN =Zn: d10 p2                                                           
   LEXCH  = PE                                                                  
   EATOM  =  1748.8345 eV,  128.5357 Ry                                         
                                                                                
   TITEL  = PAW_PBE Zn 06Sep2000                                                
   LULTRA =        F    use ultrasoft PP ?                                      
   IUNSCR =        1    unscreen: 0-lin 1-nonlin 2-no                           
   RPACOR =    2.000    partial core radius                                     
   POMASS =   65.390; ZVAL   =   12.000    mass and valenz                      
   RCORE  =    2.300    outmost cutoff radius                                   
   RWIGS  =    2.400; RWIGS  =    1.270    wigner-seitz radius (au A)           
   ENMAX  =  276.723; ENMIN  =  207.542 eV                                      
   RCLOC  =    1.828    cutoff for local pot                                    
   LCOR   =        T    correct aug charges                                     
   LPAW   =        T    paw PP                                                  
   EAUG   =  575.892                                                            
   DEXC   =    0.000                                                            
   RMAX   =    2.347    core radius for proj-oper                               
   RAUG   =    1.300    factor for augmentation sphere                          
   RDEP   =    2.324    radius for radial grids                                 
   RDEPT  =    1.788    core radius for aug-charge                              
                                                                                
   Atomic configuration                                                         
    9 entries                                                                   
     n  l   j            E        occ.                                          
     1  0  0.50     -9524.6913   2.0000                                         
     2  0  0.50     -1158.1882   2.0000                                         
     2  1  1.50     -1003.8506   6.0000                                         
     3  0  0.50      -129.2194   2.0000                                         
     3  1  1.50       -83.3890   6.0000                                         
     3  2  2.50       -10.1410  10.0000                                         
     4  0  0.50        -5.9785   2.0000                                         
     4  1  0.50        -4.0817   0.0000                                         
     4  3  2.50        -1.3606   0.0000                                         
   Description                                                                  
     l       E           TYP  RCUT    TYP  RCUT                                 
     2    -10.1410010     23  2.300                                             
     2    -11.5015836     23  2.300                                             
     0     -5.9785163     23  2.300                                             
     0      1.1858015     23  2.300                                             
     1     -2.7211652     23  2.300                                             
     1     13.2444212     23  2.300                                             
  local pseudopotential read in
  partial core-charges read in
  partial kinetic energy density read in
  atomic valenz-charges read in
  non local Contribution for L=           2  read in
    real space projection operators read in
  non local Contribution for L=           2  read in
    real space projection operators read in
  non local Contribution for L=           0  read in
    real space projection operators read in
  non local Contribution for L=           0  read in
    real space projection operators read in
  non local Contribution for L=           1  read in
    real space projection operators read in
  non local Contribution for L=           1  read in
    real space projection operators read in
    PAW grid and wavefunctions read in
 
   number of l-projection  operators is LMAX  =           6
   number of lm-projection operators is LMMAX =          18
 

 ----------------------------------------------------------------------------- 
|                                                                             |
|  ADVICE TO THIS USER RUNNING 'VASP/VAMP'   (HEAR YOUR MASTER'S VOICE ...):  |
|                                                                             |
|      You have a (more or less) 'large supercell' and for larger cells       |
|      it might be more efficient to use real space projection opertators     |
|      So try LREAL= Auto  in the INCAR   file.                               |
|      Mind:          For very  accurate calculation you might also keep the  |
|      reciprocal projection scheme          (i.e. LREAL=.FALSE.)             |
|                                                                             |
 ----------------------------------------------------------------------------- 

  PAW_PBE C 08Apr2002                   :
 energy of atom  1       EATOM= -147.1560
 kinetic energy error for atom=    0.0076 (will be added to EATOM!!)
  PAW_PBE N 08Apr2002                   :
 energy of atom  2       EATOM= -264.5486
 kinetic energy error for atom=    0.0138 (will be added to EATOM!!)
  PAW_PBE Fe 06Sep2000                  :
 energy of atom  3       EATOM= -594.3153
 kinetic energy error for atom=    0.0026 (will be added to EATOM!!)
  PAW_PBE Zn 06Sep2000                  :
 energy of atom  4       EATOM=-1748.8345
 kinetic energy error for atom=    0.0029 (will be added to EATOM!!)
 
 
 POSCAR:  C  N Fe Zn                             
  positions in cartesian coordinates
  No initial velocities read in
 exchange correlation table for  LEXCH =        8
   RHO(1)=    0.500       N(1)  =     2000
   RHO(2)=  100.500       N(2)  =     4000

 VTST: version 3.2, (02/03/18)

 CHAIN: initializing optimizer
 
 OPT: Using VASP Conjugate-Gradient optimizer
 CHAIN: Read ICHAIN            0
 
 POSCAR:  C  N Fe Zn                             
  positions in cartesian coordinates
  No initial velocities read in
 


--------------------------------------------------------------------------------------------------------


 ion  position               nearest neighbor table
   1  0.223  0.000  0.498-  19 1.43   3 1.43   4 1.44
   2  0.057  0.101  0.502-   3 1.42  37 1.43   7 1.44
   3  0.111  0.000  0.500-   2 1.42   1 1.43  17 1.43
   4  0.278  0.101  0.501-  21 1.42   5 1.44   1 1.44
   5  0.225  0.203  0.502-   7 1.43   4 1.44   8 1.45
   6  0.057  0.301  0.502-   7 1.43  41 1.43  11 1.44
   7  0.113  0.202  0.502-   6 1.43   5 1.43   2 1.44
   8  0.281  0.305  0.502-  25 1.44   5 1.45   9 1.46
   9  0.223  0.406  0.499-  54 1.39  11 1.44   8 1.46
  10  0.053  0.501  0.501-  14 1.42  45 1.43  11 1.43
  11  0.111  0.402  0.501-  10 1.43   6 1.44   9 1.44
  12  0.217  0.601  0.493-  54 1.39  14 1.42  15 1.43
  13  0.052  0.700  0.500-  14 1.42  49 1.43  18 1.43
  14  0.107  0.601  0.498-  12 1.42  10 1.42  13 1.42
  15  0.273  0.700  0.487-  16 1.41  12 1.43  29 1.48
  16  0.219  0.800  0.493-  15 1.41  18 1.43  19 1.44
  17  0.054  0.900  0.500-  18 1.42  53 1.42   3 1.43
  18  0.108  0.800  0.498-  17 1.42  16 1.43  13 1.43
  19  0.277  0.900  0.495-   1 1.43  31 1.44  16 1.44
  20  0.555  0.999  0.501-  33 1.41  23 1.42  22 1.42
  21  0.389  0.099  0.502-   4 1.42  26 1.43  22 1.43
  22  0.444  0.999  0.500-  20 1.42  21 1.43  31 1.43
  23  0.612  0.097  0.502-  24 1.41  20 1.42  35 1.42
  24  0.557  0.195  0.504-  23 1.41  27 1.41  26 1.42
  25  0.394  0.300  0.505-  55 1.38  26 1.43   8 1.44
  26  0.446  0.198  0.504-  24 1.42  21 1.43  25 1.43
  27  0.615  0.292  0.506-  28 1.40  39 1.41  24 1.41
  28  0.561  0.390  0.510-  56 1.36  55 1.37  27 1.40
  29  0.386  0.701  0.474-  57 1.37  15 1.48  32 1.48  59 2.14
  30  0.556  0.800  0.501-  58 1.37  33 1.42  32 1.43
  31  0.389  0.898  0.496-  32 1.43  22 1.43  19 1.44
  32  0.445  0.799  0.493-  31 1.43  30 1.43  29 1.48
  33  0.611  0.900  0.501-  20 1.41  51 1.42  30 1.42
  34  0.890  1.000  0.503-  53 1.42  36 1.42  37 1.44
  35  0.723  0.098  0.503-  36 1.42  23 1.42  40 1.43
  36  0.778  0.999  0.503-  35 1.42  34 1.42  51 1.43
  37  0.946  0.100  0.503-  38 1.42   2 1.43  34 1.44
  38  0.891  0.199  0.504-  40 1.42  37 1.42  41 1.43
  39  0.725  0.296  0.506-  27 1.41  40 1.41  44 1.43
  40  0.780  0.197  0.504-  39 1.41  38 1.42  35 1.43
  41  0.945  0.300  0.504-   6 1.43  38 1.43  42 1.43
  42  0.888  0.399  0.505-  44 1.42  45 1.42  41 1.43
  43  0.716  0.495  0.510-  56 1.38  44 1.44  48 1.45
  44  0.777  0.397  0.506-  42 1.42  39 1.43  43 1.44
  45  0.941  0.500  0.504-  42 1.42  10 1.43  46 1.44
  46  0.883  0.599  0.506-  45 1.44  49 1.44  48 1.45
  47  0.716  0.701  0.509-  58 1.36  52 1.44  48 1.46
  48  0.770  0.598  0.510-  46 1.45  43 1.45  47 1.46
  49  0.940  0.699  0.503-  50 1.42  13 1.43  46 1.44
  50  0.887  0.799  0.503-  52 1.42  49 1.42  53 1.44
  51  0.722  0.900  0.503-  33 1.42  52 1.42  36 1.43
  52  0.776  0.799  0.504-  51 1.42  50 1.42  47 1.44
  53  0.943  0.899  0.502-  34 1.42  17 1.42  50 1.44
  54  0.273  0.505  0.495-   9 1.39  12 1.39  59 1.86
  55  0.454  0.392  0.508-  28 1.37  25 1.38  59 1.86
  56  0.609  0.487  0.515-  28 1.36  43 1.38  60 2.21
  57  0.426  0.632  0.427-  29 1.37  59 1.72
  58  0.609  0.706  0.512-  47 1.36  30 1.37  60 2.13
  59  0.415  0.532  0.486-  57 1.72  55 1.86  54 1.86  29 2.14  60 2.44
  60  0.522  0.603  0.577-  58 2.13  56 2.21  59 2.44
 
  LATTYP: Found a simple orthorhombic cell.
 ALAT       =    12.4000000000
 B/A-ratio  =     1.0330645161
 C/A-ratio  =     1.6129032258
  
  Lattice vectors:
  
 A1 = (   0.0000000000, -12.4000000000,   0.0000000000)
 A2 = ( -12.8100000000,   0.0000000000,   0.0000000000)
 A3 = (   0.0000000000,   0.0000000000, -20.0000000000)


Analysis of symmetry for initial positions (statically):
=====================================================================
 Subroutine PRICEL returns:
 Original cell was already a primitive cell.
 

 Routine SETGRP: Setting up the symmetry group for a 
 simple orthorhombic supercell.


 Subroutine GETGRP returns: Found  1 space group operations
 (whereof  1 operations were pure point group operations)
 out of a pool of  8 trial point group operations.


The static configuration has the point symmetry C_1 .


Analysis of symmetry for dynamics (positions and initial velocities):
=====================================================================
 Subroutine PRICEL returns:
 Original cell was already a primitive cell.
 

 Routine SETGRP: Setting up the symmetry group for a 
 simple orthorhombic supercell.


 Subroutine GETGRP returns: Found  1 space group operations
 (whereof  1 operations were pure point group operations)
 out of a pool of  8 trial point group operations.


The dynamic configuration has the point symmetry C_1 .


Analysis of structural, dynamic, and magnetic symmetry:
=====================================================================
 Subroutine PRICEL returns:
 Original cell was already a primitive cell.
 

 Routine SETGRP: Setting up the symmetry group for a 
 simple orthorhombic supercell.


 Subroutine GETGRP returns: Found  1 space group operations
 (whereof  1 operations were pure point group operations)
 out of a pool of  8 trial point group operations.


The magnetic configuration has the point symmetry C_1 .


 Subroutine INISYM returns: Found  1 space group operations
 (whereof  1 operations are pure point group operations),
 and found     1 'primitive' translations

 
 
 KPOINTS: KPOINTS created by Atomic Simulation Env

Automatic generation of k-mesh.
Space group operators:
 irot       det(A)        alpha          n_x          n_y          n_z        tau_x        tau_y        tau_z
    1     1.000000     0.000000     1.000000     0.000000     0.000000     0.000000     0.000000     0.000000
 
 Subroutine IBZKPT returns following result:
 ===========================================
 
 Found      2 irreducible k-points:
 
 Following reciprocal coordinates:
            Coordinates               Weight
  0.250000  0.250000  0.000000      2.000000
 -0.250000  0.250000  0.000000      2.000000
 
 Following cartesian coordinates:
            Coordinates               Weight
  0.019516  0.020161  0.000000      2.000000
 -0.019516  0.020161  0.000000      2.000000
 
 
 Subroutine IBZKPT_HF returns following result:
 ==============================================
 
 Found      4 k-points in 1st BZ
 the following      4 k-points will be used (e.g. in the exchange kernel)
 Following reciprocal coordinates:   # in IRBZ
  0.250000  0.250000  0.000000    0.25000000   1 t-inv F
 -0.250000  0.250000  0.000000    0.25000000   2 t-inv F
 -0.250000 -0.250000  0.000000    0.25000000   1 t-inv T
  0.250000 -0.250000  0.000000    0.25000000   2 t-inv T


--------------------------------------------------------------------------------------------------------




 Dimension of arrays:
   k-points           NKPTS =      2   k-points in BZ     NKDIM =      4   number of bands    NBANDS=    163
   number of dos      NEDOS =    301   number of ions     NIONS =     60
   non local maximal  LDIM  =      6   non local SUM 2l+1 LMDIM =     18
   total plane-waves  NPLWV = ******
   max r-space proj   IRMAX =      1   max aug-charges    IRDMAX=  14730
   dimension x,y,z NGX =    96 NGY =   90 NGZ =  150
   dimension x,y,z NGXF=   192 NGYF=  180 NGZF=  300
   support grid    NGXF=   192 NGYF=  180 NGZF=  300
   ions per type =              53   5   1   1
   NGX,Y,Z   is equivalent  to a cutoff of  12.46, 12.07, 12.47 a.u.
   NGXF,Y,Z  is equivalent  to a cutoff of  24.92, 24.13, 24.94 a.u.

 SYSTEM =  unknown system                          
 POSCAR =   C  N Fe Zn                             

 Startparameter for this run:
   NWRITE =      2    write-flag & timer
   PREC   = accura    normal or accurate (medium, high low for compatibility)
   ISTART =      1    job   : 0-new  1-cont  2-samecut
   ICHARG =      0    charge: 1-file 2-atom 10-const
   ISPIN  =      2    spin polarized calculation?
   LNONCOLLINEAR =      F non collinear calculations
   LSORBIT =      F    spin-orbit coupling
   INIWAV =      1    electr: 0-lowe 1-rand  2-diag
   LASPH  =      T    aspherical Exc in radial PAW
   METAGGA=      F    non-selfconsistent MetaGGA calc.

 Electronic Relaxation 1
   ENCUT  =  500.0 eV  36.75 Ry    6.06 a.u.  23.36 22.61 36.46*2*pi/ulx,y,z
   ENINI  =  500.0     initial cutoff
   ENAUG  =  644.9 eV  augmentation charge cutoff
   NELM   =    250;   NELMIN=  2; NELMDL=  0     # of ELM steps 
   EDIFF  = 0.1E-03   stopping-criterion for ELM
   LREAL  =      F    real-space projection
   NLSPLINE    = F    spline interpolate recip. space projectors
   LCOMPAT=      F    compatible to vasp.4.4
   GGA_COMPAT  = T    GGA compatible to vasp.4.4-vasp.4.6
   LMAXPAW     = -100 max onsite density
   LMAXMIX     =    2 max onsite mixed and CHGCAR
   VOSKOWN=      0    Vosko Wilk Nusair interpolation
   ROPT   =    0.00000   0.00000   0.00000   0.00000
 Ionic relaxation
   EDIFFG = -.3E-01   stopping-criterion for IOM
   NSW    =      0    number of steps for IOM
   NBLOCK =      1;   KBLOCK =      1    inner block; outer block 
   IBRION =     -1    ionic relax: 0-MD 1-quasi-New 2-CG
   NFREE  =      1    steps in history (QN), initial steepest desc. (CG)
   ISIF   =      2    stress and relaxation
   IWAVPR =     10    prediction:  0-non 1-charg 2-wave 3-comb
   ISYM   =      3    0-nonsym 1-usesym 2-fastsym
   LCORR  =      T    Harris-Foulkes like correction to forces

   POTIM  = 0.5000    time-step for ionic-motion
   TEIN   =    0.0    initial temperature
   TEBEG  =    0.0;   TEEND  =   0.0 temperature during run
   SMASS  =  -3.00    Nose mass-parameter (am)
   estimated Nose-frequenzy (Omega)   =  0.10E-29 period in steps =****** mass=  -0.375E-26a.u.
   SCALEE = 1.0000    scale energy and forces
   NPACO  =    256;   APACO  = 16.0  distance and # of slots for P.C.
   PSTRESS=    0.0 pullay stress

  Mass of Ions in am
   POMASS =  12.01 14.00 55.85 65.39
  Ionic Valenz
   ZVAL   =   4.00  5.00  8.00 12.00
  Atomic Wigner-Seitz radii
   RWIGS  =  -1.00 -1.00 -1.00 -1.00
  virtual crystal weights 
   VCA    =   1.00  1.00  1.00  1.00
   NELECT =     257.0000    total number of electrons
   NUPDOWN=      -1.0000    fix difference up-down

 DOS related values:
   EMIN   =  10.00;   EMAX   =-10.00  energy-range for DOS
   EFERMI =   0.00
   ISMEAR =     0;   SIGMA  =   0.10  broadening in eV -4-tet -1-fermi 0-gaus

 Electronic relaxation 2 (details)
   IALGO  =     53    algorithm
   LDIAG  =      T    sub-space diagonalisation (order eigenvalues)
   LSUBROT=      F    optimize rotation matrix (better conditioning)
   TURBO    =      0    0=normal 1=particle mesh
   IRESTART =      0    0=no restart 2=restart with 2 vectors
   NREBOOT  =      0    no. of reboots
   NMIN     =      0    reboot dimension
   EREF     =   0.00    reference energy to select bands
   IMIX   =      4    mixing-type and parameters
     AMIX     =   0.40;   BMIX     =  1.00
     AMIX_MAG =   1.60;   BMIX_MAG =  1.00
     AMIN     =   0.10
     WC   =   100.;   INIMIX=   1;  MIXPRE=   1;  MAXMIX= -45

 Intra band minimization:
   WEIMIN = 0.0000     energy-eigenvalue tresh-hold
   EBREAK =  0.15E-06  absolut break condition
   DEPER  =   0.30     relativ break condition  

   TIME   =   0.20     timestep for ELM

  volume/ion in A,a.u.               =      52.95       357.31
  Fermi-wavevector in a.u.,A,eV,Ry     =   0.708031  1.337985  6.820708  0.501308
  Thomas-Fermi vector in A             =   1.794238
 
 Write flags
   LWAVE        =      T    write WAVECAR
   LDOWNSAMPLE  =      F    k-point downsampling of WAVECAR
   LCHARG       =      T    write CHGCAR
   LVTOT        =      F    write LOCPOT, total local potential
   LVHAR        =      F    write LOCPOT, Hartree potential only
   LELF         =      F    write electronic localiz. function (ELF)
   LORBIT       =     11    0 simple, 1 ext, 2 COOP (PROOUT), +10 PAW based schemes


 Dipole corrections
   LMONO  =      F    monopole corrections only (constant potential shift)
   LDIPOL =      T    correct potential (dipole corrections)
   IDIPOL =      3    1-x, 2-y, 3-z, 4-all directions 
   EPSILON=  1.0000000 bulk dielectric constant

 Exchange correlation treatment:
   GGA     =    PE    GGA type
   LEXCH   =     8    internal setting for exchange type
   VOSKOWN=      0    Vosko Wilk Nusair interpolation
   EXXOEP  =     0    0=HF, 1=EXX-LHF (local Hartree Fock) 2=EXX OEP
   LHFCALC =     T    Hartree Fock is set to
   LSYMGRAD=     F    symmetrize gradient (conserves proper symmetry)
   PRECFOCK=normal    Normal, Fast or Accurate (Low or Medium for compatibility)
   LRHFCALC=     F    long range Hartree Fock
   LRSCOR  =     F    long range correlation only (use DFT for short range part)
   LTHOMAS =     F    Thomas Fermi screening in HF
   LMODELHF=     F    short range full HF, long range fraction AEXX
   ENCUT4O =  -1.0   cutoff for four orbital integrals eV
   LMAXFOCK=     4    L truncation for augmentation on plane wave grid
   LMAXFOCKAE=  -1    L truncation for all-electron charge restoration on plane wave grid
   NMAXFOCKAE=   1    number of basis functions for all-electron charge restoration
   LFOCKAEDFT=     F  apply the AE augmentation even for DFT
   NKREDX  =     1    reduce k-point grid by
   NKREDY  =     1    reduce k-point grid by
   NKREDZ  =     1    reduce k-point grid by
   SHIFTRED=     F    shift reduced grid of Gamma
   HFKIDENT=     F    idential grid for each k-point
   ODDONLY =     F    use only odd q-grid points
   EVENONLY=     F    use only even q-grid points
   HFALPHA =   -1.0000 decay constant for conv. correction
   MCALPHA =    0.0000 extent of test-charge in conv. correction in multipole expansion
   AEXX    =    0.2500 exact exchange contribution
   HFSCREEN=    0.2000 screening length (either q_TF or 0.3 A-1)
   HFSCREENC=   0.2000 screening length for correlation (either q_TF or 0.3 A-1)
   HFRCUT  =    0.0000 spherical cutoff for potential kernel
   ALDAX   =    0.7500 LDA exchange part
   AGGAX   =    0.7500 GGA exchange part
   ALDAC   =    1.0000 LDA correlation
   AGGAC   =    1.0000 GGA correlation
   ENCUTFOCK=  -1.0 apply spherical cutoff to Coloumb kernel
   NBANDSGWLOW=     1    first orbital included in HF term
   NBLOCK_FOCK=    64    blocking factor in FOCK_ACC
 Linear response parameters
   LEPSILON=     F    determine dielectric tensor
   LRPA    =     F    only Hartree local field effects (RPA)
   LNABLA  =     F    use nabla operator in PAW spheres
   LVEL    =     F    velocity operator in full k-point grid
   LINTERFAST=   F  fast interpolation
   KINTER  =     0    interpolate to denser k-point grid
   CSHIFT  =0.1000    complex shift for real part using Kramers Kronig
   OMEGAMAX=  -1.0    maximum frequency
   DEG_THRESHOLD= 0.2000000E-02 threshold for treating states as degnerate
   RTIME   =   -0.100 relaxation time in fs
  (WPLASMAI=    0.000 imaginary part of plasma frequency in eV, 0.658/RTIME)
   DFIELD  = 0.0000000 0.0000000 0.0000000 field for delta impulse in time
 
 Orbital magnetization related:
   ORBITALMAG=     F  switch on orbital magnetization
   LCHIMAG   =     F  perturbation theory with respect to B field
   DQ        =  0.001000  dq finite difference perturbation B field
   LLRAUG    =     F  two centre corrections for induced B field



--------------------------------------------------------------------------------------------------------


 Static calculation
 charge density and potential will be updated during run
 spin polarized calculation
 Conjugate gradient for all bands (Freysoldt, et al. PRB 79, 241103 (2009))
 perform sub-space diagonalisation
    before iterative eigenvector-optimisation
 modified Broyden-mixing scheme, WC =      100.0
 initial mixing is a Kerker type mixing with AMIX =  0.4000 and BMIX =      1.0000
 Hartree-type preconditioning will be used
 using additional bands           34
 reciprocal scheme for non local part
 use partial core corrections
 no Harris-corrections to forces 
 use gradient corrections 
 use of overlap-Matrix (Vanderbilt PP)
 Gauss-broadening in eV      SIGMA  =   0.10


--------------------------------------------------------------------------------------------------------


  energy-cutoff  :      500.00
  volume of cell :     3176.88
      direct lattice vectors                 reciprocal lattice vectors
    12.810000000  0.000000000  0.000000000     0.078064012  0.000000000  0.000000000
     0.000000000 12.400000000  0.000000000     0.000000000  0.080645161  0.000000000
     0.000000000  0.000000000 20.000000000     0.000000000  0.000000000  0.050000000

  length of vectors
    12.810000000 12.400000000 20.000000000     0.078064012  0.080645161  0.050000000


 
 old parameters found on file WAVECAR:
  energy-cutoff  :      500.00
  volume of cell :     3176.88
      direct lattice vectors                 reciprocal lattice vectors
    12.810000000  0.000000000  0.000000000     0.078064012  0.000000000  0.000000000
     0.000000000 12.400000000  0.000000000     0.000000000  0.080645161  0.000000000
     0.000000000  0.000000000 20.000000000     0.000000000  0.000000000  0.050000000

  length of vectors

 
 k-points in units of 2pi/SCALE and weight: KPOINTS created by Atomic Simulation Env
   0.01951600  0.02016129  0.00000000       0.500
  -0.01951600  0.02016129  0.00000000       0.500
 
 k-points in reciprocal lattice and weights: KPOINTS created by Atomic Simulation Env
   0.25000000  0.25000000  0.00000000       0.500
  -0.25000000  0.25000000  0.00000000       0.500
 
 position of ions in fractional coordinates (direct lattice) 
   0.22264848  0.00019510  0.49840456
   0.05740906  0.10060505  0.50160661
   0.11119926  0.00009367  0.50001923
   0.27823645  0.10128581  0.50078001
   0.22489683  0.20340649  0.50158845
   0.05693235  0.30102626  0.50245358
   0.11304506  0.20160612  0.50163649
   0.28142933  0.30484861  0.50213055
   0.22341984  0.40586570  0.49934183
   0.05264806  0.50080813  0.50136957
   0.11126684  0.40223808  0.50099472
   0.21729836  0.60117716  0.49278183
   0.05150813  0.70032525  0.49965455
   0.10698819  0.60080703  0.49827836
   0.27260164  0.70047131  0.48690636
   0.21936116  0.79983025  0.49323098
   0.05448611  0.90031514  0.50045125
   0.10815076  0.79992015  0.49819845
   0.27684045  0.89998263  0.49468293
   0.55518477  0.99850997  0.50065877
   0.38894422  0.09890242  0.50180303
   0.44411058  0.99863951  0.50012708
   0.61209300  0.09688504  0.50242002
   0.55690104  0.19519171  0.50426987
   0.39390035  0.29962890  0.50529346
   0.44576490  0.19778638  0.50435841
   0.61464627  0.29212477  0.50637696
   0.56072101  0.38974139  0.50999458
   0.38619988  0.70073232  0.47411722
   0.55633325  0.80003751  0.50127819
   0.38905722  0.89820387  0.49598129
   0.44521307  0.79901974  0.49273551
   0.61091762  0.90005996  0.50130672
   0.88951545  0.99962296  0.50292094
   0.72325610  0.09800634  0.50312686
   0.77843334  0.99892296  0.50321646
   0.94616168  0.09954432  0.50274874
   0.89093303  0.19904277  0.50366103
   0.72468805  0.29578767  0.50558728
   0.78002355  0.19721539  0.50404775
   0.94527840  0.29995718  0.50373209
   0.88802141  0.39917419  0.50481838
   0.71644737  0.49469110  0.51020685
   0.77697006  0.39737262  0.50629401
   0.94117819  0.50008784  0.50433414
   0.88268458  0.59908953  0.50592241
   0.71578869  0.70139027  0.50929674
   0.76988579  0.59815227  0.50986967
   0.94008527  0.69891221  0.50318879
   0.88651299  0.79938522  0.50315610
   0.72183186  0.89975016  0.50342459
   0.77555029  0.79944432  0.50442560
   0.94338013  0.89939322  0.50221487
   0.27314899  0.50494042  0.49491573
   0.45352341  0.39195742  0.50826284
   0.60931236  0.48691732  0.51494694
   0.42567566  0.63163894  0.42678202
   0.60948800  0.70557594  0.51247260
   0.41515375  0.53178082  0.48589895
   0.52167805  0.60322519  0.57691618
 
 position of ions in cartesian coordinates  (Angst):
   2.85212702  0.00241928  9.96809114
   0.73541010  1.24750256 10.03213219
   1.42446254  0.00116146 10.00038451
   3.56420887  1.25594401 10.01560022
   2.88092833  2.52224049 10.03176907
   0.72930340  3.73272563 10.04907166
   1.44810723  2.49991594 10.03272984
   3.60510975  3.78012270 10.04261091
   2.86200815  5.03273472  9.98683658
   0.67442165  6.21002087 10.02739146
   1.42532828  4.98775215 10.01989445
   2.78359204  7.45459682  9.85563668
   0.65981911  8.68403306  9.99309106
   1.37051872  7.45000712  9.96556714
   3.49202696  8.68584421  9.73812710
   2.81001644  9.91789516  9.86461966
   0.69796713 11.16390767 10.00902496
   1.38541127  9.91900989  9.96396901
   3.54632613 11.15978461  9.89365855
   7.11191696 12.38152366 10.01317539
   4.98237548  1.22638996 10.03606066
   5.68905652 12.38312987 10.00254169
   7.84091129  1.20137447 10.04840046
   7.13390229  2.42037722 10.08539746
   5.04586348  3.71539834 10.10586926
   5.71024832  2.45255113 10.08716822
   7.87361876  3.62234714 10.12753920
   7.18283613  4.83279322 10.19989151
   4.94722051  8.68908080  9.48234434
   7.12662895  9.92046510 10.02556379
   4.98382302 11.13772801  9.91962570
   5.70317937  9.90784482  9.85471013
   7.82585466 11.16074353 10.02613442
  11.39469292 12.39532476 10.05841881
   9.26491068  1.21527867 10.06253719
   9.97173114 12.38664476 10.06432918
  12.12033113  1.23434962 10.05497475
  11.41285207  2.46813032 10.07322058
   9.28325396  3.66776709 10.11174567
   9.99210170  2.44547083 10.08095490
  12.10901629  3.71946897 10.07464188
  11.37555429  4.94976000 10.09636770
   9.17769080  6.13416959 10.20413708
   9.95298643  4.92742050 10.12588028
  12.05649257  6.20108917 10.08668275
  11.30718945  7.42871014 10.11844818
   9.16925316  8.69723930 10.18593484
   9.86223701  7.41708818 10.19739342
  12.04249233  8.66651137 10.06377586
  11.35623143  9.91237673 10.06312208
   9.24666615 11.15690193 10.06849179
   9.93479918  9.91310955 10.08851198
  12.08469947 11.15247593 10.04429733
   3.49903862  6.26126119  9.89831469
   5.80963483  4.86027198 10.16525681
   7.80529127  6.03777475 10.29893878
   5.45290520  7.83232283  8.53564033
   7.80754127  8.74914171 10.24945206
   5.31811953  6.59408211  9.71797899
   6.68269586  7.47999241 11.53832364
 


--------------------------------------------------------------------------------------------------------


 k-point  1 :   0.2500 0.2500 0.0000  plane waves:   80679
 k-point  2 :  -0.2500 0.2500 0.0000  plane waves:   80679

 maximum and minimum number of plane-waves per node :      2549     2492

 maximum number of plane-waves:     80679
 maximum index in each direction: 
   IXMAX=   23   IYMAX=   22   IZMAX=   36
   IXMIN=  -23   IYMIN=  -22   IZMIN=  -36


 parallel 3D FFT for wavefunctions:
    minimum data exchange during FFTs selected (reduces bandwidth)
 parallel 3D FFT for charge:
    minimum data exchange during FFTs selected (reduces bandwidth)


 FFT grid for exact exchange (Hartree Fock) 
  NGX = 72; NGY = 70; NGZ =112

 
 Radii for the augmentation spheres in the non-local exchange
 for species   1 augmentation radius   0.874 (default was   0.699)
       energy cutoff for augmentation   2000.0
 for species   2 augmentation radius   0.886 (default was   0.709)
       energy cutoff for augmentation   2000.0
 for species   3 augmentation radius   1.263 (default was   1.010)
       energy cutoff for augmentation   2000.0
 for species   4 augmentation radius   1.190 (default was   0.952)
       energy cutoff for augmentation   2000.0

 real space projection operators:
  total allocation   :       2553.59 KBytes
  max/ min on nodes  :        129.04         43.31

 Maximum index for augmentation-charges in exchange          146
  SETUP_FOCK is finished

 total amount of memory used by VASP MPI-rank0   166071. kBytes
=======================================================================

   base      :      30000. kBytes
   nonl-proj :       5400. kBytes
   fftplans  :      13453. kBytes
   grid      :      34560. kBytes
   one-center:         62. kBytes
   HF        :         23. kBytes
   nonlr-proj:       1738. kBytes
   wavefun   :      80835. kBytes
 
     INWAV:  cpu time    3.7240: real time    3.7248
 Broyden mixing: mesh for mixing (old mesh)
   NGX = 47   NGY = 45   NGZ = 73
  (NGX  =192   NGY  =180   NGZ  =300)
  gives a total of 154395 points

 charge density for first step will be calculated from the start-wavefunctions


--------------------------------------------------------------------------------------------------------


 Maximum index for augmentation-charges          567 (set IRDMAX)


--------------------------------------------------------------------------------------------------------


 initial charge from wavefunction
 First call to EWALD:  gamma=   0.121
 Maximum number of real-space cells 3x 3x 2
 Maximum number of reciprocal cells 2x 2x 4

    FEWALD:  cpu time    0.0022: real time    0.8602


--------------------------------------- Iteration      1(   1)  ---------------------------------------


    POTLOK:  cpu time    1.3205: real time    1.3211
    SETDIJ:  cpu time    2.0775: real time    2.0797
    TRIAL :  cpu time  579.1668: real time  579.2868
    CORREC:  cpu time    0.0020: real time    0.0023
    CHARGE:  cpu time    1.7755: real time    1.7783
    --------------------------------------------
      LOOP:  cpu time  584.3501: real time  585.0595

 eigenvalue-minimisations  :     0
 total energy-change (2. order) :-0.6179848E+03  (-0.4477249E+00)
 number of electron     257.0000048 magnetization      -0.9932881
 augmentation part       18.2422836 magnetization      -0.3788537

 DIPCOR: dipole corrections for dipol
 direction  3 min pos     1,
 dipolmoment           0.000000      0.000000     -0.206324 electrons x Angstroem
 Tr[quadrupol]     -7301.914269

 energy correction for charged system         0.000000 eV
 dipol+quadrupol energy correction           -0.001217 eV
 added-field ion interaction          0.208289 eV  (added to PSCEN)


 Free energy of the ion-electron system (eV)
  ---------------------------------------------------
  alpha Z        PSCENC =       114.63423102
  Ewald energy   TEWEN  =     42386.53977604
  -Hartree energ DENC   =    -52154.10666743
  -exchange      EXHF   =       590.94389372
  -V(xc)+E(xc)   XCENC  =       682.91453742
  PAW double counting   =     28218.13857149   -28421.87310304
  entropy T*S    EENTRO =        -0.00136254
  eigenvalues    EBANDS =     -3386.37918658
  atomic energy  EATOM  =     11351.20632400
  ---------------------------------------------------
  free energy    TOTEN  =      -617.98479290 eV

  energy without entropy =     -617.98343036  energy(sigma->0) =     -617.98411163
  exchange ACFDT corr.  =        -0.00324261  see jH, gK, PRB 81, 115126


--------------------------------------------------------------------------------------------------------




--------------------------------------- Iteration      1(   2)  ---------------------------------------


    POTLOK:  cpu time    1.3275: real time    1.3276
    SETDIJ:  cpu time    2.0823: real time    2.0823
    TRIAL :  cpu time  580.2718: real time  580.3448
    CORREC:  cpu time    0.0020: real time    0.0023
    CHARGE:  cpu time    1.7960: real time    1.7961
    --------------------------------------------
      LOOP:  cpu time  585.4823: real time  585.5559

 eigenvalue-minimisations  :     0
 total energy-change (2. order) :-0.3631594E+00  (-0.3734918E+00)
 number of electron     257.0000048 magnetization      -0.9983121
 augmentation part       18.2376867 magnetization      -0.3942544

 DIPCOR: dipole corrections for dipol
 direction  3 min pos     1,
 dipolmoment           0.000000      0.000000     -0.213020 electrons x Angstroem
 Tr[quadrupol]     -7301.712078

 energy correction for charged system         0.000000 eV
 dipol+quadrupol energy correction           -0.001297 eV
 added-field ion interaction          0.215049 eV  (added to PSCEN)


 Free energy of the ion-electron system (eV)
  ---------------------------------------------------
  alpha Z        PSCENC =       114.64091136
  Ewald energy   TEWEN  =     42386.53977604
  -Hartree energ DENC   =    -52142.25142655
  -exchange      EXHF   =       590.84469256
  -V(xc)+E(xc)   XCENC  =       682.60288482
  PAW double counting   =     28351.22147965   -28556.47706924
  entropy T*S    EENTRO =        -0.00038778
  eigenvalues    EBANDS =     -3396.67416235
  atomic energy  EATOM  =     11351.20632400
  ---------------------------------------------------
  free energy    TOTEN  =      -618.34795225 eV

  energy without entropy =     -618.34756448  energy(sigma->0) =     -618.34775837
  exchange ACFDT corr.  =        -0.00104625  see jH, gK, PRB 81, 115126


--------------------------------------------------------------------------------------------------------




--------------------------------------- Iteration      1(   3)  ---------------------------------------


    POTLOK:  cpu time    1.3280: real time    1.3282
    SETDIJ:  cpu time    2.0826: real time    2.0828
    TRIAL :  cpu time  578.7922: real time  578.8960
    CORREC:  cpu time    0.0020: real time    0.0023
    CHARGE:  cpu time    1.7897: real time    1.7897
    --------------------------------------------
      LOOP:  cpu time  583.9974: real time  584.7381

 eigenvalue-minimisations  :     0
 total energy-change (2. order) :-0.2840642E+00  (-0.2206867E+00)
 number of electron     257.0000048 magnetization      -0.9996546
 augmentation part       18.2258954 magnetization      -0.4091633

 DIPCOR: dipole corrections for dipol
 direction  3 min pos     1,
 dipolmoment           0.000000      0.000000     -0.220232 electrons x Angstroem
 Tr[quadrupol]     -7301.510211

 energy correction for charged system         0.000000 eV
 dipol+quadrupol energy correction           -0.001387 eV
 added-field ion interaction          0.222330 eV  (added to PSCEN)


 Free energy of the ion-electron system (eV)
  ---------------------------------------------------
  alpha Z        PSCENC =       114.64810252
  Ewald energy   TEWEN  =     42386.53977604
  -Hartree energ DENC   =    -52127.55818984
  -exchange      EXHF   =       590.77008424
  -V(xc)+E(xc)   XCENC  =       682.22809695
  PAW double counting   =     28520.29783176   -28726.19890026
  entropy T*S    EENTRO =        -0.00008950
  eigenvalues    EBANDS =     -3410.56475410
  atomic energy  EATOM  =     11351.20632400
  ---------------------------------------------------
  free energy    TOTEN  =      -618.63201646 eV

  energy without entropy =     -618.63192697  energy(sigma->0) =     -618.63197171
  exchange ACFDT corr.  =        -0.00022667  see jH, gK, PRB 81, 115126


--------------------------------------------------------------------------------------------------------




--------------------------------------- Iteration      1(   4)  ---------------------------------------


    POTLOK:  cpu time    1.3310: real time    1.3311
    SETDIJ:  cpu time    2.0883: real time    2.0884
    TRIAL :  cpu time  577.1914: real time  577.2860
    CORREC:  cpu time    0.0017: real time    0.0020
    CHARGE:  cpu time    1.7854: real time    1.7854
    --------------------------------------------
      LOOP:  cpu time  582.4004: real time  583.1769

 eigenvalue-minimisations  :     0
 total energy-change (2. order) :-0.1699230E+00  (-0.1283532E+00)
 number of electron     257.0000048 magnetization      -0.9999336
 augmentation part       18.2189866 magnetization      -0.4212731

 DIPCOR: dipole corrections for dipol
 direction  3 min pos     1,
 dipolmoment           0.000000      0.000000     -0.224386 electrons x Angstroem
 Tr[quadrupol]     -7301.422877

 energy correction for charged system         0.000000 eV
 dipol+quadrupol energy correction           -0.001440 eV
 added-field ion interaction          0.226523 eV  (added to PSCEN)


 Free energy of the ion-electron system (eV)
  ---------------------------------------------------
  alpha Z        PSCENC =       114.65224332
  Ewald energy   TEWEN  =     42386.53977604
  -Hartree energ DENC   =    -52118.18707084
  -exchange      EXHF   =       590.83988452
  -V(xc)+E(xc)   XCENC  =       681.99449300
  PAW double counting   =     28667.15195951   -28872.36723636
  entropy T*S    EENTRO =        -0.00001908
  eigenvalues    EBANDS =     -3420.63222317
  atomic energy  EATOM  =     11351.20632400
  ---------------------------------------------------
  free energy    TOTEN  =      -618.80193947 eV

  energy without entropy =     -618.80192039  energy(sigma->0) =     -618.80192993
  exchange ACFDT corr.  =        -0.00004221  see jH, gK, PRB 81, 115126


--------------------------------------------------------------------------------------------------------




--------------------------------------- Iteration      1(   5)  ---------------------------------------


    POTLOK:  cpu time    1.3310: real time    1.3311
    SETDIJ:  cpu time    2.0824: real time    2.0828
    TRIAL :  cpu time  575.4823: real time  575.5758
    CORREC:  cpu time    0.0019: real time    0.0022
    CHARGE:  cpu time    1.7867: real time    1.7867
    --------------------------------------------
      LOOP:  cpu time  580.6881: real time  580.7838

 eigenvalue-minimisations  :     0
 total energy-change (2. order) :-0.1009433E+00  (-0.8075504E-01)
 number of electron     257.0000048 magnetization      -0.9999871
 augmentation part       18.2240969 magnetization      -0.4303188

 DIPCOR: dipole corrections for dipol
 direction  3 min pos     1,
 dipolmoment           0.000000      0.000000     -0.222656 electrons x Angstroem
 Tr[quadrupol]     -7301.435513

 energy correction for charged system         0.000000 eV
 dipol+quadrupol energy correction           -0.001417 eV
 added-field ion interaction          0.224777 eV  (added to PSCEN)


 Free energy of the ion-electron system (eV)
  ---------------------------------------------------
  alpha Z        PSCENC =       114.65051918
  Ewald energy   TEWEN  =     42386.53977604
  -Hartree energ DENC   =    -52116.31082594
  -exchange      EXHF   =       591.05828455
  -V(xc)+E(xc)   XCENC  =       681.96501318
  PAW double counting   =     28774.43826892   -28978.80921678
  entropy T*S    EENTRO =        -0.00000404
  eigenvalues    EBANDS =     -3423.64100684
  atomic energy  EATOM  =     11351.20632400
  ---------------------------------------------------
  free energy    TOTEN  =      -618.90288277 eV

  energy without entropy =     -618.90287872  energy(sigma->0) =     -618.90288074
  exchange ACFDT corr.  =        -0.00000758  see jH, gK, PRB 81, 115126


--------------------------------------------------------------------------------------------------------




--------------------------------------- Iteration      1(   6)  ---------------------------------------


    POTLOK:  cpu time    1.3292: real time    1.3295
    SETDIJ:  cpu time    2.0776: real time    2.0777
    TRIAL :  cpu time  575.6522: real time  575.7535
    CORREC:  cpu time    0.0017: real time    0.0021
    CHARGE:  cpu time    1.7881: real time    1.7882
    --------------------------------------------
      LOOP:  cpu time  580.8513: real time  580.9533

 eigenvalue-minimisations  :     0
 total energy-change (2. order) :-0.6737601E-01  (-0.5668722E-01)
 number of electron     257.0000049 magnetization      -0.9999973
 augmentation part       18.2351283 magnetization      -0.4371981

 DIPCOR: dipole corrections for dipol
 direction  3 min pos     1,
 dipolmoment           0.000000      0.000000     -0.218504 electrons x Angstroem
 Tr[quadrupol]     -7301.489311

 energy correction for charged system         0.000000 eV
 dipol+quadrupol energy correction           -0.001365 eV
 added-field ion interaction          0.220585 eV  (added to PSCEN)


 Free energy of the ion-electron system (eV)
  ---------------------------------------------------
  alpha Z        PSCENC =       114.64637951
  Ewald energy   TEWEN  =     42386.53977604
  -Hartree energ DENC   =    -52119.57271944
  -exchange      EXHF   =       591.34425669
  -V(xc)+E(xc)   XCENC  =       682.07749793
  PAW double counting   =     28845.05751288   -29049.35000706
  entropy T*S    EENTRO =        -0.00000090
  eigenvalues    EBANDS =     -3420.91927529
  atomic energy  EATOM  =     11351.20632400
  ---------------------------------------------------
  free energy    TOTEN  =      -618.97025878 eV

  energy without entropy =     -618.97025788  energy(sigma->0) =     -618.97025833
  exchange ACFDT corr.  =        -0.00000140  see jH, gK, PRB 81, 115126


--------------------------------------------------------------------------------------------------------




--------------------------------------- Iteration      1(   7)  ---------------------------------------


    POTLOK:  cpu time    1.3274: real time    1.3281
    SETDIJ:  cpu time    2.0837: real time    2.0841
    TRIAL :  cpu time  575.4737: real time  575.7952
    CORREC:  cpu time    0.0016: real time    0.0019
    CHARGE:  cpu time    1.7811: real time    1.7818
    --------------------------------------------
      LOOP:  cpu time  580.6708: real time  582.3108

 eigenvalue-minimisations  :     0
 total energy-change (2. order) :-0.4830300E-01  (-0.3933308E-01)
 number of electron     257.0000049 magnetization      -0.9999994
 augmentation part       18.2440270 magnetization      -0.4428541

 DIPCOR: dipole corrections for dipol
 direction  3 min pos     1,
 dipolmoment           0.000000      0.000000     -0.215844 electrons x Angstroem
 Tr[quadrupol]     -7301.540265

 energy correction for charged system         0.000000 eV
 dipol+quadrupol energy correction           -0.001332 eV
 added-field ion interaction          0.217900 eV  (added to PSCEN)


 Free energy of the ion-electron system (eV)
  ---------------------------------------------------
  alpha Z        PSCENC =       114.64372752
  Ewald energy   TEWEN  =     42386.53977604
  -Hartree energ DENC   =    -52123.96328538
  -exchange      EXHF   =       591.59984269
  -V(xc)+E(xc)   XCENC  =       682.21786786
  PAW double counting   =     28887.51778493   -29092.18098758
  entropy T*S    EENTRO =        -0.00000022
  eigenvalues    EBANDS =     -3416.59961096
  atomic energy  EATOM  =     11351.20632400
  ---------------------------------------------------
  free energy    TOTEN  =      -619.01856178 eV

  energy without entropy =     -619.01856156  energy(sigma->0) =     -619.01856167
  exchange ACFDT corr.  =        -0.00000028  see jH, gK, PRB 81, 115126


--------------------------------------------------------------------------------------------------------




--------------------------------------- Iteration      1(   8)  ---------------------------------------


    POTLOK:  cpu time    1.3236: real time    1.3243
    SETDIJ:  cpu time    2.0827: real time    2.0831
    TRIAL :  cpu time  575.0205: real time  575.2586
    CORREC:  cpu time    0.0016: real time    0.0020
    CHARGE:  cpu time    1.7814: real time    1.7821
    --------------------------------------------
      LOOP:  cpu time  580.2123: real time  580.4525

 eigenvalue-minimisations  :     0
 total energy-change (2. order) :-0.3435383E-01  (-0.2893539E-01)
 number of electron     257.0000049 magnetization      -0.9999998
 augmentation part       18.2476743 magnetization      -0.4478187

 DIPCOR: dipole corrections for dipol
 direction  3 min pos     1,
 dipolmoment           0.000000      0.000000     -0.215211 electrons x Angstroem
 Tr[quadrupol]     -7301.569694

 energy correction for charged system         0.000000 eV
 dipol+quadrupol energy correction           -0.001324 eV
 added-field ion interaction          0.217261 eV  (added to PSCEN)


 Free energy of the ion-electron system (eV)
  ---------------------------------------------------
  alpha Z        PSCENC =       114.64309646
  Ewald energy   TEWEN  =     42386.53977604
  -Hartree energ DENC   =    -52126.87566549
  -exchange      EXHF   =       591.77675365
  -V(xc)+E(xc)   XCENC  =       682.31453574
  PAW double counting   =     28910.36324434   -29115.31891374
  entropy T*S    EENTRO =        -0.00000006
  eigenvalues    EBANDS =     -3413.70206639
  atomic energy  EATOM  =     11351.20632400
  ---------------------------------------------------
  free energy    TOTEN  =      -619.05291560 eV

  energy without entropy =     -619.05291554  energy(sigma->0) =     -619.05291557
  exchange ACFDT corr.  =        -0.00000006  see jH, gK, PRB 81, 115126


--------------------------------------------------------------------------------------------------------




--------------------------------------- Iteration      1(   9)  ---------------------------------------


    POTLOK:  cpu time    1.3240: real time    1.3246
    SETDIJ:  cpu time    2.0849: real time    2.0852
    TRIAL :  cpu time  574.1857: real time  574.4441
    CORREC:  cpu time    0.0015: real time    0.0018
    CHARGE:  cpu time    1.7815: real time    1.7821
    --------------------------------------------
      LOOP:  cpu time  579.3796: real time  579.6421

 eigenvalue-minimisations  :     0
 total energy-change (2. order) :-0.2591125E-01  (-0.2213981E-01)
 number of electron     257.0000049 magnetization      -0.9999999
 augmentation part       18.2478727 magnetization      -0.4523480

 DIPCOR: dipole corrections for dipol
 direction  3 min pos     1,
 dipolmoment           0.000000      0.000000     -0.215193 electrons x Angstroem
 Tr[quadrupol]     -7301.577995

 energy correction for charged system         0.000000 eV
 dipol+quadrupol energy correction           -0.001324 eV
 added-field ion interaction          0.217243 eV  (added to PSCEN)


 Free energy of the ion-electron system (eV)
  ---------------------------------------------------
  alpha Z        PSCENC =       114.64307811
  Ewald energy   TEWEN  =     42386.53977604
  -Hartree energ DENC   =    -52127.81575857
  -exchange      EXHF   =       591.87921188
  -V(xc)+E(xc)   XCENC  =       682.35609574
  PAW double counting   =     28920.91584292   -29125.90547638
  entropy T*S    EENTRO =        -0.00000002
  eigenvalues    EBANDS =     -3412.89792054
  atomic energy  EATOM  =     11351.20632400
  ---------------------------------------------------
  free energy    TOTEN  =      -619.07882685 eV

  energy without entropy =     -619.07882683  energy(sigma->0) =     -619.07882684
  exchange ACFDT corr.  =        -0.00000002  see jH, gK, PRB 81, 115126


--------------------------------------------------------------------------------------------------------




--------------------------------------- Iteration      1(  10)  ---------------------------------------


    POTLOK:  cpu time    1.3214: real time    1.3222
    SETDIJ:  cpu time    2.0837: real time    2.0840
    TRIAL :  cpu time  575.1091: real time  575.2944
    CORREC:  cpu time    0.0015: real time    0.0018
    CHARGE:  cpu time    1.7857: real time    1.7858
    --------------------------------------------
      LOOP:  cpu time  580.3036: real time  580.4903

 eigenvalue-minimisations  :     0
 total energy-change (2. order) :-0.1996125E-01  (-0.1686218E-01)
 number of electron     257.0000049 magnetization      -1.0000000
 augmentation part       18.2483509 magnetization      -0.4565983

 DIPCOR: dipole corrections for dipol
 direction  3 min pos     1,
 dipolmoment           0.000000      0.000000     -0.214498 electrons x Angstroem
 Tr[quadrupol]     -7301.574050

 energy correction for charged system         0.000000 eV
 dipol+quadrupol energy correction           -0.001315 eV
 added-field ion interaction          0.216541 eV  (added to PSCEN)


 Free energy of the ion-electron system (eV)
  ---------------------------------------------------
  alpha Z        PSCENC =       114.64238495
  Ewald energy   TEWEN  =     42386.53977604
  -Hartree energ DENC   =    -52127.56294043
  -exchange      EXHF   =       591.93643112
  -V(xc)+E(xc)   XCENC  =       682.36481317
  PAW double counting   =     28924.66138246   -29129.54654542
  entropy T*S    EENTRO =        -0.00000001
  eigenvalues    EBANDS =     -3413.34041398
  atomic energy  EATOM  =     11351.20632400
  ---------------------------------------------------
  free energy    TOTEN  =      -619.09878811 eV

  energy without entropy =     -619.09878810  energy(sigma->0) =     -619.09878811
  exchange ACFDT corr.  =        -0.00000000  see jH, gK, PRB 81, 115126


--------------------------------------------------------------------------------------------------------




--------------------------------------- Iteration      1(  11)  ---------------------------------------


    POTLOK:  cpu time    1.3225: real time    1.3226
    SETDIJ:  cpu time    2.0862: real time    2.0864
    TRIAL :  cpu time  575.4167: real time  575.5324
    CORREC:  cpu time    0.0013: real time    0.0013
    CHARGE:  cpu time    1.7850: real time    1.7860
    --------------------------------------------
      LOOP:  cpu time  580.6152: real time  580.7362

 eigenvalue-minimisations  :     0
 total energy-change (2. order) :-0.1538132E-01  (-0.1312563E-01)
 number of electron     257.0000049 magnetization      -1.0000000
 augmentation part       18.2502756 magnetization      -0.4606473

 DIPCOR: dipole corrections for dipol
 direction  3 min pos     1,
 dipolmoment           0.000000      0.000000     -0.212912 electrons x Angstroem
 Tr[quadrupol]     -7301.568050

 energy correction for charged system         0.000000 eV
 dipol+quadrupol energy correction           -0.001296 eV
 added-field ion interaction          0.214940 eV  (added to PSCEN)


 Free energy of the ion-electron system (eV)
  ---------------------------------------------------
  alpha Z        PSCENC =       114.64080331
  Ewald energy   TEWEN  =     42386.53977604
  -Hartree energ DENC   =    -52127.18474207
  -exchange      EXHF   =       591.97851010
  -V(xc)+E(xc)   XCENC  =       682.36880395
  PAW double counting   =     28925.34985660   -29130.19636045
  entropy T*S    EENTRO =        -0.00000000
  eigenvalues    EBANDS =     -3413.81714091
  atomic energy  EATOM  =     11351.20632400
  ---------------------------------------------------
  free energy    TOTEN  =      -619.11416943 eV

  energy without entropy =     -619.11416943  energy(sigma->0) =     -619.11416943
  exchange ACFDT corr.  =        -0.00000000  see jH, gK, PRB 81, 115126


--------------------------------------------------------------------------------------------------------




--------------------------------------- Iteration      1(  12)  ---------------------------------------


    POTLOK:  cpu time    1.3195: real time    1.3201
    SETDIJ:  cpu time    2.0907: real time    2.0911
    TRIAL :  cpu time  575.6998: real time  575.9888
    CORREC:  cpu time    0.0014: real time    0.0018
    CHARGE:  cpu time    1.7762: real time    1.7768
    --------------------------------------------
      LOOP:  cpu time  580.8903: real time  581.1839

 eigenvalue-minimisations  :     0
 total energy-change (2. order) :-0.1209325E-01  (-0.1032987E-01)
 number of electron     257.0000049 magnetization      -1.0000000
 augmentation part       18.2524909 magnetization      -0.4644632

 DIPCOR: dipole corrections for dipol
 direction  3 min pos     1,
 dipolmoment           0.000000      0.000000     -0.211067 electrons x Angstroem
 Tr[quadrupol]     -7301.565191

 energy correction for charged system         0.000000 eV
 dipol+quadrupol energy correction           -0.001274 eV
 added-field ion interaction          0.213078 eV  (added to PSCEN)


 Free energy of the ion-electron system (eV)
  ---------------------------------------------------
  alpha Z        PSCENC =       114.63896349
  Ewald energy   TEWEN  =     42386.53977604
  -Hartree energ DENC   =    -52127.12864636
  -exchange      EXHF   =       592.01883110
  -V(xc)+E(xc)   XCENC  =       682.37897372
  PAW double counting   =     28925.15306788   -29130.06171538
  entropy T*S    EENTRO =        -0.00000000
  eigenvalues    EBANDS =     -3413.87183717
  atomic energy  EATOM  =     11351.20632400
  ---------------------------------------------------
  free energy    TOTEN  =      -619.12626268 eV

  energy without entropy =     -619.12626267  energy(sigma->0) =     -619.12626267
  exchange ACFDT corr.  =        -0.00000000  see jH, gK, PRB 81, 115126


--------------------------------------------------------------------------------------------------------




--------------------------------------- Iteration      1(  13)  ---------------------------------------


    POTLOK:  cpu time    1.3177: real time    1.3183
    SETDIJ:  cpu time    2.0810: real time    2.0812
    TRIAL :  cpu time  575.3848: real time  575.6766
    CORREC:  cpu time    0.0012: real time    0.0016
    CHARGE:  cpu time    1.7902: real time    1.7970
    --------------------------------------------
      LOOP:  cpu time  580.5771: real time  580.8788

 eigenvalue-minimisations  :     0
 total energy-change (2. order) :-0.9581481E-02  (-0.8218017E-02)
 number of electron     257.0000049 magnetization      -1.0000000
 augmentation part       18.2539716 magnetization      -0.4679980

 DIPCOR: dipole corrections for dipol
 direction  3 min pos     1,
 dipolmoment           0.000000      0.000000     -0.209571 electrons x Angstroem
 Tr[quadrupol]     -7301.565232

 energy correction for charged system         0.000000 eV
 dipol+quadrupol energy correction           -0.001256 eV
 added-field ion interaction          0.211567 eV  (added to PSCEN)


 Free energy of the ion-electron system (eV)
  ---------------------------------------------------
  alpha Z        PSCENC =       114.63747075
  Ewald energy   TEWEN  =     42386.53977604
  -Hartree energ DENC   =    -52127.26205937
  -exchange      EXHF   =       592.05701602
  -V(xc)+E(xc)   XCENC  =       682.39169729
  PAW double counting   =     28925.09819859   -29130.08476902
  entropy T*S    EENTRO =        -0.00000000
  eigenvalues    EBANDS =     -3413.71949845
  atomic energy  EATOM  =     11351.20632400
  ---------------------------------------------------
  free energy    TOTEN  =      -619.13584416 eV

  energy without entropy =     -619.13584416  energy(sigma->0) =     -619.13584416
  exchange ACFDT corr.  =        -0.00000000  see jH, gK, PRB 81, 115126


--------------------------------------------------------------------------------------------------------




--------------------------------------- Iteration      1(  14)  ---------------------------------------


    POTLOK:  cpu time    1.3180: real time    1.3185
    SETDIJ:  cpu time    2.0792: real time    2.0796
    TRIAL :  cpu time  575.3605: real time  575.4698
    CORREC:  cpu time    0.0013: real time    0.0016
    CHARGE:  cpu time    1.7654: real time    1.7655
    --------------------------------------------
      LOOP:  cpu time  580.5275: real time  580.6413

 eigenvalue-minimisations  :     0
 total energy-change (2. order) :-0.7677144E-02  (-0.6629117E-02)
 number of electron     257.0000049 magnetization      -1.0000000
 augmentation part       18.2545964 magnetization      -0.4712487

 DIPCOR: dipole corrections for dipol
 direction  3 min pos     1,
 dipolmoment           0.000000      0.000000     -0.208504 electrons x Angstroem
 Tr[quadrupol]     -7301.566179

 energy correction for charged system         0.000000 eV
 dipol+quadrupol energy correction           -0.001243 eV
 added-field ion interaction          0.210490 eV  (added to PSCEN)


 Free energy of the ion-electron system (eV)
  ---------------------------------------------------
  alpha Z        PSCENC =       114.63640646
  Ewald energy   TEWEN  =     42386.53977604
  -Hartree energ DENC   =    -52127.37635890
  -exchange      EXHF   =       592.09033349
  -V(xc)+E(xc)   XCENC  =       682.40209655
  PAW double counting   =     28925.54812848   -29130.57150613
  entropy T*S    EENTRO =        -0.00000000
  eigenvalues    EBANDS =     -3413.61872130
  atomic energy  EATOM  =     11351.20632400
  ---------------------------------------------------
  free energy    TOTEN  =      -619.14352130 eV

  energy without entropy =     -619.14352130  energy(sigma->0) =     -619.14352130
  exchange ACFDT corr.  =        -0.00000000  see jH, gK, PRB 81, 115126


--------------------------------------------------------------------------------------------------------




--------------------------------------- Iteration      1(  15)  ---------------------------------------


    POTLOK:  cpu time    1.3161: real time    1.3162
    SETDIJ:  cpu time    2.0811: real time    2.0812
    TRIAL :  cpu time  575.0652: real time  575.1615
    CORREC:  cpu time    0.0011: real time    0.0014
    CHARGE:  cpu time    1.7682: real time    1.7683
    --------------------------------------------
      LOOP:  cpu time  580.2340: real time  580.3308

 eigenvalue-minimisations  :     0
 total energy-change (2. order) :-0.6222062E-02  (-0.5383701E-02)
 number of electron     257.0000049 magnetization      -1.0000000
 augmentation part       18.2549786 magnetization      -0.4742675

 DIPCOR: dipole corrections for dipol
 direction  3 min pos     1,
 dipolmoment           0.000000      0.000000     -0.207572 electrons x Angstroem
 Tr[quadrupol]     -7301.566737

 energy correction for charged system         0.000000 eV
 dipol+quadrupol energy correction           -0.001232 eV
 added-field ion interaction          0.209549 eV  (added to PSCEN)


 Free energy of the ion-electron system (eV)
  ---------------------------------------------------
  alpha Z        PSCENC =       114.63547694
  Ewald energy   TEWEN  =     42386.53977604
  -Hartree energ DENC   =    -52127.39917938
  -exchange      EXHF   =       592.11824640
  -V(xc)+E(xc)   XCENC  =       682.40887394
  PAW double counting   =     28926.55253787   -29131.57144525
  entropy T*S    EENTRO =        -0.00000000
  eigenvalues    EBANDS =     -3413.64035392
  atomic energy  EATOM  =     11351.20632400
  ---------------------------------------------------
  free energy    TOTEN  =      -619.14974336 eV

  energy without entropy =     -619.14974336  energy(sigma->0) =     -619.14974336
  exchange ACFDT corr.  =        -0.00000000  see jH, gK, PRB 81, 115126


--------------------------------------------------------------------------------------------------------




--------------------------------------- Iteration      1(  16)  ---------------------------------------


    POTLOK:  cpu time    1.3177: real time    1.3177
    SETDIJ:  cpu time    2.0825: real time    2.0825
    TRIAL :  cpu time  574.2342: real time  574.3341
    CORREC:  cpu time    0.0012: real time    0.0015
    CHARGE:  cpu time    1.7769: real time    1.7770
    --------------------------------------------
      LOOP:  cpu time  579.4173: real time  579.5211

 eigenvalue-minimisations  :     0
 total energy-change (2. order) :-0.5073613E-02  (-0.4405806E-02)
 number of electron     257.0000049 magnetization      -1.0000000
 augmentation part       18.2555286 magnetization      -0.4771225

 DIPCOR: dipole corrections for dipol
 direction  3 min pos     1,
 dipolmoment           0.000000      0.000000     -0.206534 electrons x Angstroem
 Tr[quadrupol]     -7301.566818

 energy correction for charged system         0.000000 eV
 dipol+quadrupol energy correction           -0.001220 eV
 added-field ion interaction          0.208501 eV  (added to PSCEN)


 Free energy of the ion-electron system (eV)
  ---------------------------------------------------
  alpha Z        PSCENC =       114.63444089
  Ewald energy   TEWEN  =     42386.53977604
  -Hartree energ DENC   =    -52127.39859437
  -exchange      EXHF   =       592.14275981
  -V(xc)+E(xc)   XCENC  =       682.41428259
  PAW double counting   =     28927.96399666   -29132.97567636
  entropy T*S    EENTRO =        -0.00000000
  eigenvalues    EBANDS =     -3413.68212623
  atomic energy  EATOM  =     11351.20632400
  ---------------------------------------------------
  free energy    TOTEN  =      -619.15481697 eV

  energy without entropy =     -619.15481697  energy(sigma->0) =     -619.15481697
  exchange ACFDT corr.  =        -0.00000000  see jH, gK, PRB 81, 115126


--------------------------------------------------------------------------------------------------------




--------------------------------------- Iteration      1(  17)  ---------------------------------------


    POTLOK:  cpu time    1.3130: real time    1.3130
    SETDIJ:  cpu time    2.0787: real time    2.0788
    TRIAL :  cpu time  574.7784: real time  575.0213
    CORREC:  cpu time    0.0011: real time    0.0014
    CHARGE:  cpu time    1.7759: real time    1.7766
    --------------------------------------------
      LOOP:  cpu time  579.9498: real time  580.1958

 eigenvalue-minimisations  :     0
 total energy-change (2. order) :-0.4169279E-02  (-0.3635347E-02)
 number of electron     257.0000049 magnetization      -1.0000000
 augmentation part       18.2561173 magnetization      -0.4798317

 DIPCOR: dipole corrections for dipol
 direction  3 min pos     1,
 dipolmoment           0.000000      0.000000     -0.205408 electrons x Angstroem
 Tr[quadrupol]     -7301.566682

 energy correction for charged system         0.000000 eV
 dipol+quadrupol energy correction           -0.001206 eV
 added-field ion interaction          0.207365 eV  (added to PSCEN)


 Free energy of the ion-electron system (eV)
  ---------------------------------------------------
  alpha Z        PSCENC =       114.63331776
  Ewald energy   TEWEN  =     42386.53977604
  -Hartree energ DENC   =    -52127.42999779
  -exchange      EXHF   =       592.16548902
  -V(xc)+E(xc)   XCENC  =       682.42014390
  PAW double counting   =     28929.52905774   -29134.55213867
  entropy T*S    EENTRO =        -0.00000000
  eigenvalues    EBANDS =     -3413.67095825
  atomic energy  EATOM  =     11351.20632400
  ---------------------------------------------------
  free energy    TOTEN  =      -619.15898625 eV

  energy without entropy =     -619.15898625  energy(sigma->0) =     -619.15898625
  exchange ACFDT corr.  =        -0.00000000  see jH, gK, PRB 81, 115126


--------------------------------------------------------------------------------------------------------




--------------------------------------- Iteration      1(  18)  ---------------------------------------


    POTLOK:  cpu time    1.3136: real time    1.3141
    SETDIJ:  cpu time    2.0818: real time    2.0821
    TRIAL :  cpu time  576.9838: real time  577.2128
    CORREC:  cpu time    0.0012: real time    0.0011
    CHARGE:  cpu time    1.7817: real time    1.7826
    --------------------------------------------
      LOOP:  cpu time  582.1671: real time  582.3989

 eigenvalue-minimisations  :     0
 total energy-change (2. order) :-0.3451565E-02  (-0.3023507E-02)
 number of electron     257.0000049 magnetization      -1.0000000
 augmentation part       18.2565540 magnetization      -0.4823894

 DIPCOR: dipole corrections for dipol
 direction  3 min pos     1,
 dipolmoment           0.000000      0.000000     -0.204343 electrons x Angstroem
 Tr[quadrupol]     -7301.566402

 energy correction for charged system         0.000000 eV
 dipol+quadrupol energy correction           -0.001194 eV
 added-field ion interaction          0.206289 eV  (added to PSCEN)


 Free energy of the ion-electron system (eV)
  ---------------------------------------------------
  alpha Z        PSCENC =       114.63225437
  Ewald energy   TEWEN  =     42386.53977604
  -Hartree energ DENC   =    -52127.47345955
[...]


 VOLUME and BASIS-vectors are now :
 -----------------------------------------------------------------------------
  energy-cutoff  :      500.00
  volume of cell :     3176.88
      direct lattice vectors                 reciprocal lattice vectors
    12.810000000  0.000000000  0.000000000     0.078064012  0.000000000  0.000000000
     0.000000000 12.400000000  0.000000000     0.000000000  0.080645161  0.000000000
     0.000000000  0.000000000 20.000000000     0.000000000  0.000000000  0.050000000

  length of vectors
    12.810000000 12.400000000 20.000000000     0.078064012  0.080645161  0.050000000


 FORCES acting on ions:
    Electron-Ion                     Ewald-Force                    Non-Local-Force
 -----------------------------------------------------------------------------------------------
   0.824E+01 -.111E+02 0.997E+01   -.813E+01 0.108E+02 -.998E+01   -.695E-01 0.182E+00 0.425E-02
   -.103E+01 -.343E+01 0.901E+00   0.130E+01 0.329E+01 -.887E+00   -.245E+00 0.973E-01 -.182E-01
   0.593E+01 -.345E+01 0.469E+01   -.582E+01 0.342E+01 -.477E+01   -.135E+00 0.567E-01 0.794E-01
   0.168E+02 0.150E+01 0.179E+01   -.170E+02 -.162E+01 -.180E+01   0.219E+00 0.139E+00 0.195E-02
   0.964E+01 0.744E+01 0.698E+00   -.972E+01 -.760E+01 -.710E+00   0.334E-01 0.117E+00 0.895E-02
   0.434E+01 0.779E+01 -.194E+01   -.425E+01 -.818E+01 0.200E+01   -.747E-01 0.348E+00 -.772E-01
   0.585E+01 0.869E+01 0.237E+01   -.581E+01 -.881E+01 -.246E+01   -.480E-01 0.141E+00 0.909E-01
   0.266E+02 0.254E+02 -.174E+01   -.268E+02 -.257E+02 0.166E+01   0.156E+00 0.137E+00 0.497E-01
   0.368E+02 0.561E+02 0.454E+01   -.386E+02 -.592E+02 -.451E+01   0.170E+01 0.333E+01 -.177E-02
   0.181E+02 0.849E+01 -.903E-02   -.184E+02 -.841E+01 -.156E-01   0.312E+00 -.825E-03 0.130E-01
   0.201E+02 0.180E+02 0.191E+01   -.205E+02 -.183E+02 -.196E+01   0.405E+00 0.199E+00 0.740E-01
   0.630E+02 -.268E+02 0.286E+02   -.646E+02 0.304E+02 -.287E+02   0.167E+01 -.359E+01 0.393E-01
   0.136E+02 -.910E+01 0.568E+01   -.137E+02 0.945E+01 -.581E+01   0.136E+00 -.332E+00 0.127E+00
   0.317E+02 -.483E+01 0.674E+01   -.321E+02 0.517E+01 -.662E+01   0.423E+00 -.315E+00 -.908E-01
   0.434E+02 -.373E+02 0.525E+02   -.431E+02 0.376E+02 -.527E+02   -.510E+00 -.294E+00 0.288E+00
   0.241E+02 -.296E+02 0.240E+02   -.240E+02 0.297E+02 -.239E+02   -.546E-01 -.114E+00 -.508E-01
   0.277E+01 -.106E+02 0.664E+00   -.259E+01 0.107E+02 -.625E+00   -.174E+00 -.846E-01 -.509E-01
   0.145E+02 -.106E+02 0.512E+01   -.145E+02 0.107E+02 -.506E+01   -.622E-01 -.728E-01 -.639E-01
   0.160E+02 -.189E+02 0.260E+02   -.161E+02 0.191E+02 -.263E+02   -.332E-02 -.506E-01 0.325E+00
   -.763E+00 -.150E+02 0.127E+02   0.374E+00 0.149E+02 -.129E+02   0.335E+00 0.227E-01 0.198E+00
   0.860E+01 0.503E+01 -.797E+00   -.909E+01 -.543E+01 0.715E+00   0.420E+00 0.382E+00 0.698E-01
   0.966E+01 -.131E+02 0.321E+01   -.986E+01 0.129E+02 -.304E+01   0.229E+00 0.211E+00 -.166E+00
   -.886E+01 0.645E+01 0.716E+01   0.893E+01 -.680E+01 -.720E+01   -.571E-01 0.363E+00 0.392E-01
   -.180E+01 0.252E+02 0.408E+00   0.161E+01 -.257E+02 -.502E+00   0.184E+00 0.587E+00 0.904E-01
   0.451E+02 0.584E+02 -.128E+02   -.474E+02 -.617E+02 0.125E+02   0.243E+01 0.333E+01 0.238E+00
   0.121E+02 0.281E+02 -.790E+01   -.124E+02 -.287E+02 0.792E+01   0.270E+00 0.589E+00 -.233E-01
   -.251E+02 0.442E+02 -.308E+00   0.256E+02 -.452E+02 0.305E+00   -.472E+00 0.941E+00 0.163E-01
   -.370E+02 0.749E+02 -.111E+02   0.397E+02 -.782E+02 0.111E+02   -.266E+01 0.330E+01 0.977E-01
   0.361E+02 -.885E+02 0.112E+03   -.366E+02 0.904E+02 -.111E+03   0.752E+00 -.210E+01 -.122E+01
   0.311E+01 -.712E+02 0.329E+02   -.501E+01 0.737E+02 -.338E+02   0.182E+01 -.252E+01 0.897E+00
   0.161E+02 -.310E+02 0.171E+02   -.162E+02 0.306E+02 -.171E+02   0.916E-01 0.301E+00 -.623E-02
   0.159E+02 -.486E+02 0.388E+02   -.158E+02 0.483E+02 -.389E+02   0.255E-01 0.533E+00 0.153E+00
   -.127E+02 -.328E+02 0.159E+02   0.125E+02 0.328E+02 -.160E+02   0.251E+00 -.470E-01 0.135E+00
   -.921E+01 -.696E+01 -.125E+01   0.936E+01 0.693E+01 0.128E+01   -.140E+00 0.158E-01 -.328E-01
   -.110E+02 -.120E+00 0.350E+01   0.110E+02 0.342E-01 -.350E+01   -.262E-01 0.921E-01 0.757E-02
   -.127E+02 -.417E+01 0.515E+00   0.129E+02 0.419E+01 -.536E+00   -.168E+00 -.210E-01 0.933E-02
   -.414E+01 0.294E+01 -.642E+00   0.440E+01 -.303E+01 0.609E+00   -.236E+00 0.709E-01 0.280E-01
   -.109E+02 0.291E+01 -.154E+01   0.112E+02 -.297E+01 0.155E+01   -.245E+00 0.579E-01 -.227E-01
   -.289E+02 0.183E+02 0.106E+01   0.295E+02 -.183E+02 -.103E+01   -.589E+00 0.770E-01 -.191E-01
   -.151E+02 0.122E+02 0.123E+01   0.153E+02 -.125E+02 -.127E+01   -.267E+00 0.261E+00 0.346E-01
   -.545E+01 0.627E+01 -.218E+01   0.558E+01 -.630E+01 0.216E+01   -.121E+00 0.249E-02 0.899E-02
   -.149E+02 0.791E+01 -.128E+01   0.152E+02 -.777E+01 0.125E+01   -.297E+00 -.101E+00 0.293E-01
   -.784E+02 -.391E+00 -.183E+00   0.819E+02 0.847E+00 -.332E+00   -.348E+01 -.511E+00 0.515E+00
   -.340E+02 0.109E+02 0.402E+01   0.344E+02 -.107E+02 -.413E+01   -.398E+00 -.198E+00 0.160E+00
   -.417E+01 0.214E+00 -.450E+01   0.401E+01 -.338E-01 0.454E+01   0.144E+00 -.206E+00 -.419E-01
   -.130E+02 -.110E+01 -.686E+01   0.128E+02 0.122E+01 0.680E+01   0.172E+00 -.752E-01 0.616E-01
   -.807E+02 -.637E+01 -.328E+01   0.836E+02 0.630E+01 0.294E+01   -.304E+01 0.178E+00 0.341E+00
   -.414E+02 -.653E+00 -.142E+02   0.413E+02 0.902E+00 0.141E+02   0.168E+00 -.287E+00 0.831E-01
   -.391E+01 0.404E+00 -.172E+01   0.394E+01 -.450E+00 0.178E+01   -.332E-01 0.664E-01 -.600E-01
   -.142E+02 -.995E+01 0.273E+01   0.145E+02 0.981E+01 -.279E+01   -.235E+00 0.987E-01 0.642E-01
   -.215E+02 -.215E+02 0.254E+01   0.215E+02 0.216E+02 -.237E+01   -.126E+00 -.380E-01 -.163E+00
   -.308E+02 -.112E+02 0.790E+01   0.311E+02 0.111E+02 -.799E+01   -.303E+00 0.153E+00 0.121E+00
   -.324E+01 -.274E+01 0.331E+00   0.340E+01 0.269E+01 -.362E+00   -.154E+00 0.492E-01 0.283E-01
   0.491E+02 0.432E+02 0.210E+02   -.321E+02 -.427E+02 -.215E+02   -.165E+02 -.627E+00 0.376E+00
   0.502E+02 0.645E+02 -.432E+02   -.598E+02 -.485E+02 0.451E+02   0.916E+01 -.154E+02 -.187E+01
   -.622E+02 -.663E+01 -.110E+02   0.491E+02 0.289E+02 0.128E+02   0.123E+02 -.210E+02 -.181E+01
   -.636E+02 -.237E+02 0.628E+03   0.755E+02 0.163E+02 -.654E+03   -.114E+02 0.772E+01 0.251E+02
   -.424E+02 -.125E+02 -.111E+01   0.288E+02 -.984E+01 0.212E+01   0.128E+02 0.210E+02 -.113E+01
   0.200E+02 0.915E+02 0.211E+03   -.245E+02 -.946E+02 -.210E+03   0.504E+01 0.202E+01 -.633E+00
   0.494E+02 -.639E+02 -.119E+04   -.558E+02 0.626E+02 0.119E+04   0.610E+01 0.136E+01 -.102E+00
 -----------------------------------------------------------------------------------------------
   -.165E+02 -.788E+00 -.240E+02   0.540E-12 0.327E-12 0.000E+00   0.155E+02 0.533E+00 0.223E+02
 
 
 POSITION                                       TOTAL-FORCE (eV/Angst)
 -----------------------------------------------------------------------------------
      2.85213      0.00242      9.96809         0.033274     -0.132737     -0.002994
      0.73541      1.24750     10.03213         0.003609     -0.040048     -0.006954
      1.42446      0.00116     10.00038        -0.026935      0.035206      0.004197
      3.56421      1.25594     10.01560         0.036275      0.026298     -0.005689
      2.88093      2.52224     10.03177        -0.048594     -0.042598     -0.003655
      0.72930      3.73273     10.04907         0.012840     -0.024533     -0.023900
      1.44811      2.49992     10.03273        -0.003362      0.028679      0.010096
      3.60511      3.78012     10.04261         0.011547     -0.077604     -0.032815
      2.86201      5.03273      9.98684         0.070388      0.418856      0.023678
      0.67442      6.21002     10.02739         0.044879      0.073643     -0.012520
      1.42533      4.98775     10.01989         0.023170     -0.085240      0.024652
      2.78359      7.45460      9.85564         0.178550     -0.165358      0.022834
      0.65982      8.68403      9.99309         0.023333     -0.003831      0.009569
      1.37052      7.45001      9.96557        -0.034856      0.009905      0.020948
      3.49203      8.68584      9.73813        -0.280180     -0.029284      0.134255
      2.81002      9.91790      9.86462         0.099303     -0.125729      0.008091
      0.69797     11.16391     10.00902        -0.011839      0.010476     -0.015850
      1.38541      9.91901      9.96397        -0.005466     -0.014131     -0.012247
      3.54633     11.15978      9.89366        -0.061046      0.143306      0.028109
      7.11192     12.38152     10.01318        -0.032802     -0.024533      0.018754
      4.98238      1.22639     10.03606        -0.047938      0.003518     -0.009538
      5.68906     12.38313     10.00254         0.040183      0.002439     -0.013313
      7.84091      1.20137     10.04840         0.010245      0.036225      0.005727
      7.13390      2.42038     10.08540         0.010786      0.061974      0.001398
      5.04586      3.71540     10.10587         0.245615      0.229654     -0.029463
      5.71025      2.45255     10.08717        -0.008849     -0.011739     -0.005698
      7.87362      3.62235     10.12754         0.027591      0.026459      0.015160
      7.18284      4.83279     10.19989        -0.183605      0.176340      0.063817
      4.94722      8.68908      9.48234         0.281175     -0.355248     -0.721763
      7.12663      9.92047     10.02556         0.021888     -0.191869      0.050320
      4.98382     11.13773      9.91963         0.037398     -0.111209     -0.020838
      5.70318      9.90784      9.85471         0.159807      0.323577      0.035474
      7.82585     11.16074     10.02613         0.020012      0.003329      0.053027
     11.39469     12.39532     10.05842        -0.000057     -0.020000     -0.010209
      9.26491      1.21528     10.06254        -0.015698      0.005462      0.006079
      9.97173     12.38664     10.06433         0.000176      0.000399     -0.011760
     12.12033      1.23435     10.05497         0.012460     -0.002647     -0.003541
     11.41285      2.46813     10.07322        -0.006843      0.000440     -0.006879
      9.28325      3.66777     10.11175        -0.046810      0.000304      0.010614
      9.99210      2.44547     10.08095        -0.011589      0.034610     -0.002687
     12.10902      3.71947     10.07464         0.006217     -0.024974     -0.020069
     11.37555      4.94976     10.09637         0.031014      0.042791     -0.002767
      9.17769      6.13417     10.20414        -0.186579     -0.091074      0.026191
      9.95299      4.92742     10.12588        -0.023115      0.007311      0.056995
     12.05649      6.20109     10.08668        -0.009284     -0.043138     -0.003153
     11.30719      7.42871     10.11845        -0.011354      0.037622      0.004190
      9.16925      8.69724     10.18593        -0.321320      0.124789      0.015630
      9.86224      7.41709     10.19739         0.097913     -0.051006     -0.017106
     12.04249      8.66651     10.06378        -0.006978      0.031762     -0.002830
     11.35623      9.91238     10.06312        -0.011907     -0.038446      0.002464
      9.24667     11.15690     10.06849        -0.060198      0.003587     -0.012182
      9.93480      9.91311     10.08851         0.000329     -0.008881      0.040213
     12.08470     11.15248     10.04430         0.005802      0.007165     -0.002264
      3.49904      6.26126      9.89831        -0.962614     -0.214375     -0.112627
      5.80963      4.86027     10.16526         0.349490     -0.813428     -0.029367
      7.80529      6.03777     10.29894         0.213397     -0.547749     -0.120900
      5.45291      7.83232      8.53564        -0.473314      1.000222      0.921533
      7.80754      8.74914     10.24945         0.382311      0.471518     -0.187072
      5.31812      6.59408      9.71798         0.194301     -0.253305      0.068916
      6.68270      7.47999     11.53832         0.207856      0.166843     -0.220280
 -----------------------------------------------------------------------------------
    total drift:                               -0.017635      0.020785      0.037412


--------------------------------------------------------------------------------------------------------



  FREE ENERGIE OF THE ION-ELECTRON SYSTEM (eV)
  ---------------------------------------------------
  free  energy   TOTEN  =      -619.18526855 eV

  energy  without entropy=     -619.18526855  energy(sigma->0) =     -619.18526855
 


--------------------------------------------------------------------------------------------------------


    POTLOK:  cpu time    3.3767: real time    3.3781


--------------------------------------------------------------------------------------------------------


 stress matrix after NEB project (eV)
    -35.86194    -11.48813      1.02243
    -11.48889    -37.67470     -1.02566
      1.02366     -1.02647     -1.81970
  FORCES: max atom, RMS     1.440033    0.331432
  FORCE total and by dimension    2.567264    1.000222
  Stress total and by dimension   54.561375   37.674705
 writing wavefunctions
     LOOP+:  cpu time32596.3754: real time32610.4674
    4ORBIT:  cpu time    0.0000: real time    0.0000
 


 total charge     
 
# of ion       s       p       d       tot
------------------------------------------
    1        0.865   1.755   0.000   2.620
    2        0.866   1.759   0.000   2.625
    3        0.864   1.775   0.000   2.638
    4        0.861   1.767   0.000   2.628
    5        0.860   1.734   0.000   2.594
    6        0.865   1.757   0.000   2.622
    7        0.861   1.766   0.000   2.627
    8        0.849   1.747   0.000   2.596
    9        0.853   1.699   0.000   2.551
   10        0.867   1.757   0.000   2.625
   11        0.861   1.765   0.000   2.626
   12        0.864   1.732   0.000   2.596
   13        0.866   1.764   0.000   2.630
   14        0.869   1.792   0.000   2.660
   15        0.863   1.771   0.000   2.634
   16        0.867   1.758   0.000   2.625
   17        0.868   1.766   0.000   2.634
   18        0.865   1.775   0.000   2.640
   19        0.859   1.766   0.000   2.625
   20        0.871   1.783   0.000   2.654
   21        0.868   1.769   0.000   2.637
   22        0.864   1.772   0.000   2.637
   23        0.870   1.795   0.000   2.665
   24        0.874   1.789   0.000   2.663
   25        0.858   1.722   0.000   2.580
   26        0.866   1.785   0.000   2.651
   27        0.878   1.831   0.000   2.709
   28        0.868   1.749   0.000   2.616
   29        0.853   1.686   0.000   2.539
   30        0.863   1.734   0.000   2.597
   31        0.865   1.750   0.000   2.615
   32        0.857   1.755   0.000   2.612
   33        0.872   1.795   0.000   2.667
   34        0.868   1.767   0.000   2.635
   35        0.870   1.774   0.000   2.644
   36        0.868   1.786   0.000   2.654
   37        0.865   1.775   0.000   2.640
   38        0.869   1.770   0.000   2.639
   39        0.874   1.785   0.000   2.659
   40        0.869   1.790   0.000   2.658
   41        0.863   1.768   0.000   2.631
   42        0.868   1.764   0.000   2.632
   43        0.856   1.701   0.000   2.556
   44        0.865   1.781   0.000   2.646
   45        0.862   1.773   0.000   2.635
   46        0.860   1.733   0.000   2.592
   47        0.859   1.711   0.000   2.570
   48        0.849   1.746   0.000   2.595
   49        0.863   1.771   0.000   2.634
   50        0.867   1.765   0.000   2.632
   51        0.871   1.770   0.000   2.641
   52        0.866   1.783   0.000   2.649
   53        0.866   1.774   0.000   2.639
   54        1.227   2.668   0.000   3.896
   55        1.235   2.706   0.000   3.941
   56        1.241   2.665   0.000   3.906
   57        1.305   2.425   0.000   3.730
   58        1.242   2.664   0.000   3.906
   59        0.505   0.692   6.469   7.665
   60        0.630   0.254   9.813  10.698
--------------------------------------------------
tot         53.203 107.479  16.282 176.964
 


 magnetization (x)
 
# of ion       s       p       d       tot
------------------------------------------
    1        0.000   0.004   0.000   0.004
    2        0.000   0.004   0.000   0.004
    3       -0.001  -0.008   0.000  -0.008
    4       -0.000  -0.004   0.000  -0.004
    5        0.000   0.004   0.000   0.004
    6        0.000   0.003   0.000   0.004
    7       -0.001  -0.009   0.000  -0.009
    8       -0.001  -0.007   0.000  -0.008
    9        0.001   0.007   0.000   0.008
   10        0.000   0.004   0.000   0.005
   11       -0.000  -0.008   0.000  -0.008
   12        0.000   0.002   0.000   0.002
   13        0.000   0.002   0.000   0.002
   14       -0.000  -0.002   0.000  -0.002
   15        0.004   0.002   0.000   0.006
   16        0.001   0.006   0.000   0.007
   17        0.000   0.004   0.000   0.004
   18       -0.000  -0.004   0.000  -0.004
   19       -0.001  -0.011   0.000  -0.012
   20        0.000   0.005   0.000   0.005
   21        0.000   0.003   0.000   0.004
   22       -0.000  -0.004   0.000  -0.004
   23       -0.000  -0.003   0.000  -0.004
   24        0.000   0.000   0.000   0.000
   25       -0.000   0.001   0.000   0.001
   26       -0.000  -0.003   0.000  -0.004
   27        0.000  -0.001   0.000  -0.001
   28        0.000  -0.008   0.000  -0.007
   29       -0.005  -0.023   0.000  -0.028
   30        0.000   0.004   0.000   0.005
   31        0.001   0.007   0.000   0.008
   32        0.003   0.001   0.000   0.003
   33       -0.000  -0.004   0.000  -0.004
   34        0.000   0.002   0.000   0.002
   35        0.000   0.000   0.000   0.001
   36       -0.000  -0.003   0.000  -0.003
   37       -0.000  -0.005   0.000  -0.005
   38        0.000   0.002   0.000   0.003
   39        0.000  -0.000   0.000   0.000
   40       -0.000  -0.002   0.000  -0.002
   41       -0.000  -0.005   0.000  -0.005
   42        0.000   0.003   0.000   0.003
   43        0.000   0.002   0.000   0.002
   44       -0.000  -0.004   0.000  -0.004
   45       -0.000  -0.003   0.000  -0.004
   46        0.000   0.003   0.000   0.003
   47        0.000   0.000   0.000   0.001
   48       -0.000  -0.002   0.000  -0.003
   49       -0.000  -0.007   0.000  -0.007
   50        0.000   0.003   0.000   0.003
   51        0.000   0.001   0.000   0.002
   52       -0.000  -0.006   0.000  -0.007
   53       -0.000  -0.004   0.000  -0.004
   54        0.002  -0.005   0.000  -0.004
   55        0.000  -0.000   0.000   0.000
   56       -0.001   0.003   0.000   0.002
   57        0.011   0.369   0.000   0.380
   58       -0.005  -0.020   0.000  -0.024
   59       -0.007  -0.006  -0.841  -0.854
   60       -0.158  -0.025   0.009  -0.174
--------------------------------------------------
tot         -0.154   0.258  -0.832  -0.729
 

 total amount of memory used by VASP MPI-rank0   180345. kBytes
=======================================================================

   base      :      30000. kBytes
   nonl-proj :       5400. kBytes
   fftplans  :      13453. kBytes
   grid      :      34560. kBytes
   one-center:         62. kBytes
   HF        :         23. kBytes
   nonlr-proj:      16012. kBytes
   wavefun   :      80835. kBytes
 
  
  
 General timing and accounting informations for this job:
 ========================================================
  
                  Total CPU time used (sec):    32648.568
                            User time (sec):    32606.591
                          System time (sec):       41.977
                         Elapsed time (sec):    32664.638
  
                   Maximum memory used (kb):      418596.
                   Average memory used (kb):           0.
  
                          Minor page faults:       286113
                          Major page faults:            1
                 Voluntary context switches:         1461
