 vasp.5.4.4.18Apr17-6-g9f103f2a35 (build Feb 25 2019 10:51:38) complex          
  
 executed on             LinuxIFC date 2022.01.27  16:35:38
 running on   32 total cores
 distrk:  each k-point on   32 cores,    1 groups
 distr:  one band on NCORES_PER_BAND=  32 cores,    1 groups


--------------------------------------------------------------------------------------------------------


 INCAR:
 POTCAR:    PAW_PBE C 08Apr2002                   
 POTCAR:    PAW_PBE N 08Apr2002                   
 POTCAR:    PAW_PBE Fe 06Sep2000                  
 POTCAR:    PAW_PBE Zn 06Sep2000                  

 ----------------------------------------------------------------------------- 
|                                                                             |
|           W    W    AA    RRRRR   N    N  II  N    N   GGGG   !!!           |
|           W    W   A  A   R    R  NN   N  II  NN   N  G    G  !!!           |
|           W    W  A    A  R    R  N N  N  II  N N  N  G       !!!           |
|           W WW W  AAAAAA  RRRRR   N  N N  II  N  N N  G  GGG   !            |
|           WW  WW  A    A  R   R   N   NN  II  N   NN  G    G                |
|           W    W  A    A  R    R  N    N  II  N    N   GGGG   !!!           |
|                                                                             |
|      For optimal performance we recommend to set                            |
|        NCORE= 4 - approx SQRT( number of cores)                             |
|      NCORE specifies how many cores store one orbital (NPAR=cpu/NCORE).     |
|      This setting can  greatly improve the performance of VASP for DFT.     |
|      The default,   NCORE=1            might be grossly inefficient         |
|      on modern multi-core architectures or massively parallel machines.     |
|      Do your own testing !!!!                                               |
|      Unfortunately you need to use the default for GW and RPA calculations. |
|      (for HF NCORE is supported but not extensively tested yet)             |
|                                                                             |
 ----------------------------------------------------------------------------- 

 POTCAR:    PAW_PBE C 08Apr2002                   
   VRHFIN =C: s2p2                                                              
   LEXCH  = PE                                                                  
   EATOM  =   147.1560 eV,   10.8157 Ry                                         
                                                                                
   TITEL  = PAW_PBE C 08Apr2002                                                 
   LULTRA =        F    use ultrasoft PP ?                                      
   IUNSCR =        1    unscreen: 0-lin 1-nonlin 2-no                           
   RPACOR =    1.200    partial core radius                                     
   POMASS =   12.011; ZVAL   =    4.000    mass and valenz                      
   RCORE  =    1.500    outmost cutoff radius                                   
   RWIGS  =    1.630; RWIGS  =    0.863    wigner-seitz radius (au A)           
   ENMAX  =  400.000; ENMIN  =  300.000 eV                                      
   ICORE  =        2    local potential                                         
   LCOR   =        T    correct aug charges                                     
   LPAW   =        T    paw PP                                                  
   EAUG   =  644.873                                                            
   DEXC   =    0.000                                                            
   RMAX   =    1.529    core radius for proj-oper                               
   RAUG   =    1.300    factor for augmentation sphere                          
   RDEP   =    1.501    radius for radial grids                                 
   RDEPT  =    1.300    core radius for aug-charge                              
                                                                                
   Atomic configuration                                                         
    4 entries                                                                   
     n  l   j            E        occ.                                          
     1  0  0.50      -273.3789   2.0000                                         
     2  0  0.50       -13.7508   2.0000                                         
     2  1  0.50        -5.2854   2.0000                                         
     3  2  1.50        -5.4423   0.0000                                         
   Description                                                                  
     l       E           TYP  RCUT    TYP  RCUT                                 
     0    -13.7508458     23  1.200                                             
     0     -8.2022199     23  1.200                                             
     1     -5.2854383     23  1.500                                             
     1     34.0145650     23  1.500                                             
     2     -5.4423304      7  1.500                                             
  local pseudopotential read in
  partial core-charges read in
  partial kinetic energy density read in
  atomic valenz-charges read in
  non local Contribution for L=           0  read in
    real space projection operators read in
  non local Contribution for L=           0  read in
    real space projection operators read in
  non local Contribution for L=           1  read in
    real space projection operators read in
  non local Contribution for L=           1  read in
    real space projection operators read in
    PAW grid and wavefunctions read in
 
   number of l-projection  operators is LMAX  =           4
   number of lm-projection operators is LMMAX =           8
 
 POTCAR:    PAW_PBE N 08Apr2002                   
   VRHFIN =N: s2p3                                                              
   LEXCH  = PE                                                                  
   EATOM  =   264.5486 eV,   19.4438 Ry                                         
                                                                                
   TITEL  = PAW_PBE N 08Apr2002                                                 
   LULTRA =        F    use ultrasoft PP ?                                      
   IUNSCR =        1    unscreen: 0-lin 1-nonlin 2-no                           
   RPACOR =    1.200    partial core radius                                     
   POMASS =   14.001; ZVAL   =    5.000    mass and valenz                      
   RCORE  =    1.500    outmost cutoff radius                                   
   RWIGS  =    1.400; RWIGS  =    0.741    wigner-seitz radius (au A)           
   ENMAX  =  400.000; ENMIN  =  300.000 eV                                      
   ICORE  =        2    local potential                                         
   LCOR   =        T    correct aug charges                                     
   LPAW   =        T    paw PP                                                  
   EAUG   =  627.112                                                            
   DEXC   =    0.000                                                            
   RMAX   =    1.529    core radius for proj-oper                               
   RAUG   =    1.300    factor for augmentation sphere                          
   RDEP   =    1.514    radius for radial grids                                 
   RDEPT  =    1.338    core radius for aug-charge                              
                                                                                
   Atomic configuration                                                         
    4 entries                                                                   
     n  l   j            E        occ.                                          
     1  0  0.50      -384.7179   2.0000                                         
     2  0  0.50       -18.5828   2.0000                                         
     2  1  0.50        -7.0898   3.0000                                         
     3  2  1.50        -6.8029   0.0000                                         
   Description                                                                  
     l       E           TYP  RCUT    TYP  RCUT                                 
     0    -18.5828119     23  1.200                                             
     0    -13.5018863     23  1.200                                             
     1     -7.0897853     23  1.500                                             
     1      9.5240782     23  1.500                                             
     2     -6.8029130      7  1.500                                             
  local pseudopotential read in
  partial core-charges read in
  partial kinetic energy density read in
  atomic valenz-charges read in
  non local Contribution for L=           0  read in
    real space projection operators read in
  non local Contribution for L=           0  read in
    real space projection operators read in
  non local Contribution for L=           1  read in
    real space projection operators read in
  non local Contribution for L=           1  read in
    real space projection operators read in
    PAW grid and wavefunctions read in
 
   number of l-projection  operators is LMAX  =           4
   number of lm-projection operators is LMMAX =           8
 
 POTCAR:    PAW_PBE Fe 06Sep2000                  
   VRHFIN =Fe:  d7 s1                                                           
   LEXCH  = PE                                                                  
   EATOM  =   594.3153 eV,   43.6809 Ry                                         
                                                                                
   TITEL  = PAW_PBE Fe 06Sep2000                                                
   LULTRA =        F    use ultrasoft PP ?                                      
   IUNSCR =        1    unscreen: 0-lin 1-nonlin 2-no                           
   RPACOR =    2.000    partial core radius                                     
   POMASS =   55.847; ZVAL   =    8.000    mass and valenz                      
   RCORE  =    2.300    outmost cutoff radius                                   
   RWIGS  =    2.460; RWIGS  =    1.302    wigner-seitz radius (au A)           
   ENMAX  =  267.882; ENMIN  =  200.911 eV                                      
   RCLOC  =    1.701    cutoff for local pot                                    
   LCOR   =        T    correct aug charges                                     
   LPAW   =        T    paw PP                                                  
   EAUG   =  511.368                                                            
   DEXC   =    0.000                                                            
   RMAX   =    2.356    core radius for proj-oper                               
   RAUG   =    1.300    factor for augmentation sphere                          
   RDEP   =    2.442    radius for radial grids                                 
   RDEPT  =    1.890    core radius for aug-charge                              
                                                                                
   Atomic configuration                                                         
    9 entries                                                                   
     n  l   j            E        occ.                                          
     1  0  0.50     -6993.8440   2.0000                                         
     2  0  0.50      -814.6047   2.0000                                         
     2  1  1.50      -693.3689   6.0000                                         
     3  0  0.50       -89.4732   2.0000                                         
     3  1  1.50       -55.6373   6.0000                                         
     3  2  2.50        -3.8151   7.0000                                         
     4  0  0.50        -4.2551   1.0000                                         
     4  1  1.50        -3.4015   0.0000                                         
     4  3  2.50        -1.3606   0.0000                                         
   Description                                                                  
     l       E           TYP  RCUT    TYP  RCUT                                 
     2     -3.8151135     23  2.300                                             
     2     -5.1756961     23  2.300                                             
     0     -4.2550963     23  2.300                                             
     0      7.2035603     23  2.300                                             
     1     -2.7211652     23  2.300                                             
     1     18.4316424     23  2.300                                             
  local pseudopotential read in
  partial core-charges read in
  partial kinetic energy density read in
  atomic valenz-charges read in
  non local Contribution for L=           2  read in
    real space projection operators read in
  non local Contribution for L=           2  read in
    real space projection operators read in
  non local Contribution for L=           0  read in
    real space projection operators read in
  non local Contribution for L=           0  read in
    real space projection operators read in
  non local Contribution for L=           1  read in
    real space projection operators read in
  non local Contribution for L=           1  read in
    real space projection operators read in
    PAW grid and wavefunctions read in
 
   number of l-projection  operators is LMAX  =           6
   number of lm-projection operators is LMMAX =          18
 
 POTCAR:    PAW_PBE Zn 06Sep2000                  
   VRHFIN =Zn: d10 p2                                                           
   LEXCH  = PE                                                                  
   EATOM  =  1748.8345 eV,  128.5357 Ry                                         
                                                                                
   TITEL  = PAW_PBE Zn 06Sep2000                                                
   LULTRA =        F    use ultrasoft PP ?                                      
   IUNSCR =        1    unscreen: 0-lin 1-nonlin 2-no                           
   RPACOR =    2.000    partial core radius                                     
   POMASS =   65.390; ZVAL   =   12.000    mass and valenz                      
   RCORE  =    2.300    outmost cutoff radius                                   
   RWIGS  =    2.400; RWIGS  =    1.270    wigner-seitz radius (au A)           
   ENMAX  =  276.723; ENMIN  =  207.542 eV                                      
   RCLOC  =    1.828    cutoff for local pot                                    
   LCOR   =        T    correct aug charges                                     
   LPAW   =        T    paw PP                                                  
   EAUG   =  575.892                                                            
   DEXC   =    0.000                                                            
   RMAX   =    2.347    core radius for proj-oper                               
   RAUG   =    1.300    factor for augmentation sphere                          
   RDEP   =    2.324    radius for radial grids                                 
   RDEPT  =    1.788    core radius for aug-charge                              
                                                                                
   Atomic configuration                                                         
    9 entries                                                                   
     n  l   j            E        occ.                                          
     1  0  0.50     -9524.6913   2.0000                                         
     2  0  0.50     -1158.1882   2.0000                                         
     2  1  1.50     -1003.8506   6.0000                                         
     3  0  0.50      -129.2194   2.0000                                         
     3  1  1.50       -83.3890   6.0000                                         
     3  2  2.50       -10.1410  10.0000                                         
     4  0  0.50        -5.9785   2.0000                                         
     4  1  0.50        -4.0817   0.0000                                         
     4  3  2.50        -1.3606   0.0000                                         
   Description                                                                  
     l       E           TYP  RCUT    TYP  RCUT                                 
     2    -10.1410010     23  2.300                                             
     2    -11.5015836     23  2.300                                             
     0     -5.9785163     23  2.300                                             
     0      1.1858015     23  2.300                                             
     1     -2.7211652     23  2.300                                             
     1     13.2444212     23  2.300                                             
  local pseudopotential read in
  partial core-charges read in
  partial kinetic energy density read in
  atomic valenz-charges read in
  non local Contribution for L=           2  read in
    real space projection operators read in
  non local Contribution for L=           2  read in
    real space projection operators read in
  non local Contribution for L=           0  read in
    real space projection operators read in
  non local Contribution for L=           0  read in
    real space projection operators read in
  non local Contribution for L=           1  read in
    real space projection operators read in
  non local Contribution for L=           1  read in
    real space projection operators read in
    PAW grid and wavefunctions read in
 
   number of l-projection  operators is LMAX  =           6
   number of lm-projection operators is LMMAX =          18
 

 ----------------------------------------------------------------------------- 
|                                                                             |
|  ADVICE TO THIS USER RUNNING 'VASP/VAMP'   (HEAR YOUR MASTER'S VOICE ...):  |
|                                                                             |
|      You have a (more or less) 'large supercell' and for larger cells       |
|      it might be more efficient to use real space projection opertators     |
|      So try LREAL= Auto  in the INCAR   file.                               |
|      Mind:          For very  accurate calculation you might also keep the  |
|      reciprocal projection scheme          (i.e. LREAL=.FALSE.)             |
|                                                                             |
 ----------------------------------------------------------------------------- 

  PAW_PBE C 08Apr2002                   :
 energy of atom  1       EATOM= -147.1560
 kinetic energy error for atom=    0.0076 (will be added to EATOM!!)
  PAW_PBE N 08Apr2002                   :
 energy of atom  2       EATOM= -264.5486
 kinetic energy error for atom=    0.0138 (will be added to EATOM!!)
  PAW_PBE Fe 06Sep2000                  :
 energy of atom  3       EATOM= -594.3153
 kinetic energy error for atom=    0.0026 (will be added to EATOM!!)
  PAW_PBE Zn 06Sep2000                  :
 energy of atom  4       EATOM=-1748.8345
 kinetic energy error for atom=    0.0029 (will be added to EATOM!!)
 
 
 POSCAR:  C  N Fe Zn                             
  positions in cartesian coordinates
  No initial velocities read in
 exchange correlation table for  LEXCH =        8
   RHO(1)=    0.500       N(1)  =     2000
   RHO(2)=  100.500       N(2)  =     4000

 VTST: version 3.2, (02/03/18)

 CHAIN: initializing optimizer
 
 OPT: Using VASP Conjugate-Gradient optimizer
 CHAIN: Read ICHAIN            0
 
 POSCAR:  C  N Fe Zn                             
  positions in cartesian coordinates
  No initial velocities read in
 


--------------------------------------------------------------------------------------------------------


 ion  position               nearest neighbor table
   1  0.222  0.003  0.503-   3 1.42  19 1.43   4 1.44
   2  0.057  0.103  0.503-   3 1.43  36 1.43   7 1.44
   3  0.111  0.002  0.502-   1 1.42   2 1.43  17 1.44
   4  0.278  0.104  0.503-  21 1.42   5 1.44   1 1.44
   5  0.225  0.207  0.503-   7 1.44   4 1.44   8 1.46
   6  0.057  0.303  0.502-   7 1.43  40 1.43  11 1.44
   7  0.113  0.204  0.502-   6 1.43   5 1.44   2 1.44
   8  0.282  0.308  0.503-  25 1.44   5 1.46   9 1.46
   9  0.225  0.410  0.501-  53 1.37  11 1.45   8 1.46
  10  0.054  0.503  0.502-  14 1.43  11 1.43  44 1.44
  11  0.112  0.405  0.502-  10 1.43   6 1.44   9 1.45
  12  0.221  0.602  0.501-  53 1.36  14 1.43  15 1.46
  13  0.052  0.702  0.502-  14 1.43  18 1.43  48 1.44
  14  0.109  0.603  0.502-  13 1.43  10 1.43  12 1.43
  15  0.278  0.703  0.501-  56 1.39  16 1.43  12 1.46
  16  0.221  0.802  0.502-  15 1.43  18 1.43  19 1.44
  17  0.054  0.902  0.502-  18 1.43  52 1.43   3 1.44
  18  0.109  0.801  0.502-  17 1.43  13 1.43  16 1.43
  19  0.276  0.903  0.503-  30 1.43   1 1.43  16 1.44
  20  0.554  0.999  0.506-  23 1.42  32 1.42  22 1.42
  21  0.389  0.102  0.505-   4 1.42  26 1.43  22 1.43
  22  0.443  0.001  0.505-  20 1.42  30 1.43  21 1.43
  23  0.612  0.097  0.507-  24 1.41  20 1.42  34 1.43
  24  0.557  0.196  0.508-  27 1.41  23 1.41  26 1.42
  25  0.395  0.304  0.505-  54 1.38  26 1.44   8 1.44
  26  0.446  0.201  0.506-  24 1.42  21 1.43  25 1.44
  27  0.615  0.293  0.509-  28 1.39  38 1.41  24 1.41
  28  0.561  0.390  0.508-  54 1.36  55 1.36  27 1.39  58 2.52
  29  0.554  0.799  0.503-  57 1.36  32 1.43  31 1.46
  30  0.387  0.901  0.504-  19 1.43  31 1.43  22 1.43
  31  0.441  0.800  0.503-  56 1.38  30 1.43  29 1.46
  32  0.609  0.899  0.504-  20 1.42  50 1.43  29 1.43
  33  0.889  0.000  0.504-  52 1.42  35 1.43  36 1.44
  34  0.723  0.099  0.506-  35 1.42  23 1.43  39 1.43
  35  0.778  0.999  0.505-  34 1.42  33 1.43  50 1.44
  36  0.946  0.101  0.503-  37 1.42   2 1.43  33 1.44
  37  0.891  0.200  0.504-  36 1.42  39 1.42  40 1.44
  38  0.725  0.297  0.507-  27 1.41  39 1.41  43 1.42
  39  0.780  0.198  0.506-  38 1.41  37 1.42  34 1.43
  40  0.945  0.302  0.504-   6 1.43  41 1.43  37 1.44
  41  0.888  0.401  0.504-  44 1.43  43 1.43  40 1.43
  42  0.715  0.496  0.505-  55 1.37  43 1.44  47 1.45
  43  0.777  0.398  0.506-  38 1.42  41 1.43  42 1.44
  44  0.941  0.502  0.503-  41 1.43  45 1.44  10 1.44
  45  0.882  0.600  0.503-  44 1.44  48 1.44  47 1.45
  46  0.712  0.701  0.502-  57 1.37  51 1.45  47 1.46
  47  0.769  0.599  0.503-  42 1.45  45 1.45  46 1.46
  48  0.940  0.700  0.502-  49 1.42  13 1.44  45 1.44
  49  0.885  0.800  0.503-  48 1.42  51 1.44  52 1.44
  50  0.720  0.900  0.504-  51 1.42  32 1.43  35 1.44
  51  0.773  0.799  0.503-  50 1.42  49 1.44  46 1.45
  52  0.943  0.900  0.503-  33 1.42  17 1.43  49 1.44
  53  0.276  0.508  0.500-  12 1.36   9 1.37
  54  0.455  0.396  0.505-  28 1.36  25 1.38  58 2.10
  55  0.608  0.488  0.506-  28 1.36  42 1.37  58 2.10
  56  0.386  0.703  0.501-  31 1.38  15 1.39  58 1.98
  57  0.605  0.703  0.501-  29 1.36  46 1.37
  58  0.463  0.565  0.496-  56 1.98  55 2.10  54 2.10  28 2.52  59 2.72
  59  0.477  0.567  0.360-  58 2.72
 
  LATTYP: Found a simple orthorhombic cell.
 ALAT       =    12.4000000000
 B/A-ratio  =     1.0330645161
 C/A-ratio  =     1.6129032258
  
  Lattice vectors:
  
 A1 = (   0.0000000000, -12.4000000000,   0.0000000000)
 A2 = ( -12.8100000000,   0.0000000000,   0.0000000000)
 A3 = (   0.0000000000,   0.0000000000, -20.0000000000)


Analysis of symmetry for initial positions (statically):
=====================================================================
 Subroutine PRICEL returns:
 Original cell was already a primitive cell.
 

 Routine SETGRP: Setting up the symmetry group for a 
 simple orthorhombic supercell.


 Subroutine GETGRP returns: Found  1 space group operations
 (whereof  1 operations were pure point group operations)
 out of a pool of  8 trial point group operations.


The static configuration has the point symmetry C_1 .


Analysis of symmetry for dynamics (positions and initial velocities):
=====================================================================
 Subroutine PRICEL returns:
 Original cell was already a primitive cell.
 

 Routine SETGRP: Setting up the symmetry group for a 
 simple orthorhombic supercell.


 Subroutine GETGRP returns: Found  1 space group operations
 (whereof  1 operations were pure point group operations)
 out of a pool of  8 trial point group operations.


The dynamic configuration has the point symmetry C_1 .


Analysis of structural, dynamic, and magnetic symmetry:
=====================================================================
 Subroutine PRICEL returns:
 Original cell was already a primitive cell.
 

 Routine SETGRP: Setting up the symmetry group for a 
 simple orthorhombic supercell.


 Subroutine GETGRP returns: Found  1 space group operations
 (whereof  1 operations were pure point group operations)
 out of a pool of  8 trial point group operations.


The magnetic configuration has the point symmetry C_1 .


 Subroutine INISYM returns: Found  1 space group operations
 (whereof  1 operations are pure point group operations),
 and found     1 'primitive' translations

 
 
 KPOINTS: KPOINTS created by Atomic Simulation Env

Automatic generation of k-mesh.
Space group operators:
 irot       det(A)        alpha          n_x          n_y          n_z        tau_x        tau_y        tau_z
    1     1.000000     0.000000     1.000000     0.000000     0.000000     0.000000     0.000000     0.000000
 
 Subroutine IBZKPT returns following result:
 ===========================================
 
 Found      2 irreducible k-points:
 
 Following reciprocal coordinates:
            Coordinates               Weight
  0.250000  0.250000  0.000000      2.000000
 -0.250000  0.250000  0.000000      2.000000
 
 Following cartesian coordinates:
            Coordinates               Weight
  0.019516  0.020161  0.000000      2.000000
 -0.019516  0.020161  0.000000      2.000000
 
 
 Subroutine IBZKPT_HF returns following result:
 ==============================================
 
 Found      4 k-points in 1st BZ
 the following      4 k-points will be used (e.g. in the exchange kernel)
 Following reciprocal coordinates:   # in IRBZ
  0.250000  0.250000  0.000000    0.25000000   1 t-inv F
 -0.250000  0.250000  0.000000    0.25000000   2 t-inv F
 -0.250000 -0.250000  0.000000    0.25000000   1 t-inv T
  0.250000 -0.250000  0.000000    0.25000000   2 t-inv T


--------------------------------------------------------------------------------------------------------




 Dimension of arrays:
   k-points           NKPTS =      2   k-points in BZ     NKDIM =      4   number of bands    NBANDS=    160
   number of dos      NEDOS =    301   number of ions     NIONS =     59
   non local maximal  LDIM  =      6   non local SUM 2l+1 LMDIM =     18
   total plane-waves  NPLWV = ******
   max r-space proj   IRMAX =      1   max aug-charges    IRDMAX=  14730
   dimension x,y,z NGX =    96 NGY =   90 NGZ =  150
   dimension x,y,z NGXF=   192 NGYF=  180 NGZF=  300
   support grid    NGXF=   192 NGYF=  180 NGZF=  300
   ions per type =              52   5   1   1
   NGX,Y,Z   is equivalent  to a cutoff of  12.46, 12.07, 12.47 a.u.
   NGXF,Y,Z  is equivalent  to a cutoff of  24.92, 24.13, 24.94 a.u.

 SYSTEM =  unknown system                          
 POSCAR =   C  N Fe Zn                             

 Startparameter for this run:
   NWRITE =      2    write-flag & timer
   PREC   = accura    normal or accurate (medium, high low for compatibility)
   ISTART =      1    job   : 0-new  1-cont  2-samecut
   ICHARG =      0    charge: 1-file 2-atom 10-const
   ISPIN  =      2    spin polarized calculation?
   LNONCOLLINEAR =      F non collinear calculations
   LSORBIT =      F    spin-orbit coupling
   INIWAV =      1    electr: 0-lowe 1-rand  2-diag
   LASPH  =      T    aspherical Exc in radial PAW
   METAGGA=      F    non-selfconsistent MetaGGA calc.

 Electronic Relaxation 1
   ENCUT  =  500.0 eV  36.75 Ry    6.06 a.u.  23.36 22.61 36.46*2*pi/ulx,y,z
   ENINI  =  500.0     initial cutoff
   ENAUG  =  644.9 eV  augmentation charge cutoff
   NELM   =    250;   NELMIN=  2; NELMDL=  0     # of ELM steps 
   EDIFF  = 0.1E-03   stopping-criterion for ELM
   LREAL  =      F    real-space projection
   NLSPLINE    = F    spline interpolate recip. space projectors
   LCOMPAT=      F    compatible to vasp.4.4
   GGA_COMPAT  = T    GGA compatible to vasp.4.4-vasp.4.6
   LMAXPAW     = -100 max onsite density
   LMAXMIX     =    2 max onsite mixed and CHGCAR
   VOSKOWN=      0    Vosko Wilk Nusair interpolation
   ROPT   =    0.00000   0.00000   0.00000   0.00000
 Ionic relaxation
   EDIFFG = -.3E-01   stopping-criterion for IOM
   NSW    =      0    number of steps for IOM
   NBLOCK =      1;   KBLOCK =      1    inner block; outer block 
   IBRION =     -1    ionic relax: 0-MD 1-quasi-New 2-CG
   NFREE  =      1    steps in history (QN), initial steepest desc. (CG)
   ISIF   =      2    stress and relaxation
   IWAVPR =     10    prediction:  0-non 1-charg 2-wave 3-comb
   ISYM   =      3    0-nonsym 1-usesym 2-fastsym
   LCORR  =      T    Harris-Foulkes like correction to forces

   POTIM  = 0.5000    time-step for ionic-motion
   TEIN   =    0.0    initial temperature
   TEBEG  =    0.0;   TEEND  =   0.0 temperature during run
   SMASS  =  -3.00    Nose mass-parameter (am)
   estimated Nose-frequenzy (Omega)   =  0.10E-29 period in steps =****** mass=  -0.375E-26a.u.
   SCALEE = 1.0000    scale energy and forces
   NPACO  =    256;   APACO  = 16.0  distance and # of slots for P.C.
   PSTRESS=    0.0 pullay stress

  Mass of Ions in am
   POMASS =  12.01 14.00 55.85 65.39
  Ionic Valenz
   ZVAL   =   4.00  5.00  8.00 12.00
  Atomic Wigner-Seitz radii
   RWIGS  =  -1.00 -1.00 -1.00 -1.00
  virtual crystal weights 
   VCA    =   1.00  1.00  1.00  1.00
   NELECT =     253.0000    total number of electrons
   NUPDOWN=      -1.0000    fix difference up-down

 DOS related values:
   EMIN   =  10.00;   EMAX   =-10.00  energy-range for DOS
   EFERMI =   0.00
   ISMEAR =     0;   SIGMA  =   0.10  broadening in eV -4-tet -1-fermi 0-gaus

 Electronic relaxation 2 (details)
   IALGO  =     53    algorithm
   LDIAG  =      T    sub-space diagonalisation (order eigenvalues)
   LSUBROT=      F    optimize rotation matrix (better conditioning)
   TURBO    =      0    0=normal 1=particle mesh
   IRESTART =      0    0=no restart 2=restart with 2 vectors
   NREBOOT  =      0    no. of reboots
   NMIN     =      0    reboot dimension
   EREF     =   0.00    reference energy to select bands
   IMIX   =      4    mixing-type and parameters
     AMIX     =   0.40;   BMIX     =  1.00
     AMIX_MAG =   1.60;   BMIX_MAG =  1.00
     AMIN     =   0.10
     WC   =   100.;   INIMIX=   1;  MIXPRE=   1;  MAXMIX= -45

 Intra band minimization:
   WEIMIN = 0.0000     energy-eigenvalue tresh-hold
   EBREAK =  0.16E-06  absolut break condition
   DEPER  =   0.30     relativ break condition  

   TIME   =   0.20     timestep for ELM

  volume/ion in A,a.u.               =      53.85       363.37
  Fermi-wavevector in a.u.,A,eV,Ry     =   0.704338  1.331007  6.749750  0.496093
  Thomas-Fermi vector in A             =   1.789553
 
 Write flags
   LWAVE        =      T    write WAVECAR
   LDOWNSAMPLE  =      F    k-point downsampling of WAVECAR
   LCHARG       =      T    write CHGCAR
   LVTOT        =      F    write LOCPOT, total local potential
   LVHAR        =      F    write LOCPOT, Hartree potential only
   LELF         =      F    write electronic localiz. function (ELF)
   LORBIT       =     11    0 simple, 1 ext, 2 COOP (PROOUT), +10 PAW based schemes


 Dipole corrections
   LMONO  =      F    monopole corrections only (constant potential shift)
   LDIPOL =      T    correct potential (dipole corrections)
   IDIPOL =      3    1-x, 2-y, 3-z, 4-all directions 
   EPSILON=  1.0000000 bulk dielectric constant

 Exchange correlation treatment:
   GGA     =    PE    GGA type
   LEXCH   =     8    internal setting for exchange type
   VOSKOWN=      0    Vosko Wilk Nusair interpolation
   EXXOEP  =     0    0=HF, 1=EXX-LHF (local Hartree Fock) 2=EXX OEP
   LHFCALC =     T    Hartree Fock is set to
   LSYMGRAD=     F    symmetrize gradient (conserves proper symmetry)
   PRECFOCK=normal    Normal, Fast or Accurate (Low or Medium for compatibility)
   LRHFCALC=     F    long range Hartree Fock
   LRSCOR  =     F    long range correlation only (use DFT for short range part)
   LTHOMAS =     F    Thomas Fermi screening in HF
   LMODELHF=     F    short range full HF, long range fraction AEXX
   ENCUT4O =  -1.0   cutoff for four orbital integrals eV
   LMAXFOCK=     4    L truncation for augmentation on plane wave grid
   LMAXFOCKAE=  -1    L truncation for all-electron charge restoration on plane wave grid
   NMAXFOCKAE=   1    number of basis functions for all-electron charge restoration
   LFOCKAEDFT=     F  apply the AE augmentation even for DFT
   NKREDX  =     1    reduce k-point grid by
   NKREDY  =     1    reduce k-point grid by
   NKREDZ  =     1    reduce k-point grid by
   SHIFTRED=     F    shift reduced grid of Gamma
   HFKIDENT=     F    idential grid for each k-point
   ODDONLY =     F    use only odd q-grid points
   EVENONLY=     F    use only even q-grid points
   HFALPHA =   -1.0000 decay constant for conv. correction
   MCALPHA =    0.0000 extent of test-charge in conv. correction in multipole expansion
   AEXX    =    0.2500 exact exchange contribution
   HFSCREEN=    0.2000 screening length (either q_TF or 0.3 A-1)
   HFSCREENC=   0.2000 screening length for correlation (either q_TF or 0.3 A-1)
   HFRCUT  =    0.0000 spherical cutoff for potential kernel
   ALDAX   =    0.7500 LDA exchange part
   AGGAX   =    0.7500 GGA exchange part
   ALDAC   =    1.0000 LDA correlation
   AGGAC   =    1.0000 GGA correlation
   ENCUTFOCK=  -1.0 apply spherical cutoff to Coloumb kernel
   NBANDSGWLOW=     1    first orbital included in HF term
   NBLOCK_FOCK=    64    blocking factor in FOCK_ACC
 Linear response parameters
   LEPSILON=     F    determine dielectric tensor
   LRPA    =     F    only Hartree local field effects (RPA)
   LNABLA  =     F    use nabla operator in PAW spheres
   LVEL    =     F    velocity operator in full k-point grid
   LINTERFAST=   F  fast interpolation
   KINTER  =     0    interpolate to denser k-point grid
   CSHIFT  =0.1000    complex shift for real part using Kramers Kronig
   OMEGAMAX=  -1.0    maximum frequency
   DEG_THRESHOLD= 0.2000000E-02 threshold for treating states as degnerate
   RTIME   =   -0.100 relaxation time in fs
  (WPLASMAI=    0.000 imaginary part of plasma frequency in eV, 0.658/RTIME)
   DFIELD  = 0.0000000 0.0000000 0.0000000 field for delta impulse in time
 
 Orbital magnetization related:
   ORBITALMAG=     F  switch on orbital magnetization
   LCHIMAG   =     F  perturbation theory with respect to B field
   DQ        =  0.001000  dq finite difference perturbation B field
   LLRAUG    =     F  two centre corrections for induced B field



--------------------------------------------------------------------------------------------------------


 Static calculation
 charge density and potential will be updated during run
 spin polarized calculation
 Conjugate gradient for all bands (Freysoldt, et al. PRB 79, 241103 (2009))
 perform sub-space diagonalisation
    before iterative eigenvector-optimisation
 modified Broyden-mixing scheme, WC =      100.0
 initial mixing is a Kerker type mixing with AMIX =  0.4000 and BMIX =      1.0000
 Hartree-type preconditioning will be used
 using additional bands           33
 reciprocal scheme for non local part
 use partial core corrections
 no Harris-corrections to forces 
 use gradient corrections 
 use of overlap-Matrix (Vanderbilt PP)
 Gauss-broadening in eV      SIGMA  =   0.10


--------------------------------------------------------------------------------------------------------


  energy-cutoff  :      500.00
  volume of cell :     3176.88
      direct lattice vectors                 reciprocal lattice vectors
    12.810000000  0.000000000  0.000000000     0.078064012  0.000000000  0.000000000
     0.000000000 12.400000000  0.000000000     0.000000000  0.080645161  0.000000000
     0.000000000  0.000000000 20.000000000     0.000000000  0.000000000  0.050000000

  length of vectors
    12.810000000 12.400000000 20.000000000     0.078064012  0.080645161  0.050000000


 
 old parameters found on file WAVECAR:
  energy-cutoff  :      500.00
  volume of cell :     3176.88
      direct lattice vectors                 reciprocal lattice vectors
    12.810000000  0.000000000  0.000000000     0.078064012  0.000000000  0.000000000
     0.000000000 12.400000000  0.000000000     0.000000000  0.080645161  0.000000000
     0.000000000  0.000000000 20.000000000     0.000000000  0.000000000  0.050000000

  length of vectors

 
 k-points in units of 2pi/SCALE and weight: KPOINTS created by Atomic Simulation Env
   0.01951600  0.02016129  0.00000000       0.500
  -0.01951600  0.02016129  0.00000000       0.500
 
 k-points in reciprocal lattice and weights: KPOINTS created by Atomic Simulation Env
   0.25000000  0.25000000  0.00000000       0.500
  -0.25000000  0.25000000  0.00000000       0.500
 
 position of ions in fractional coordinates (direct lattice) 
   0.22193980  0.00312326  0.50277741
   0.05725245  0.10267999  0.50253138
   0.11076767  0.00190476  0.50237134
   0.27798918  0.10400759  0.50342835
   0.22535679  0.20661420  0.50264863
   0.05714764  0.30341885  0.50244254
   0.11316480  0.20384141  0.50230241
   0.28229765  0.30814725  0.50260925
   0.22498446  0.41025316  0.50118999
   0.05358253  0.50314454  0.50187805
   0.11190803  0.40474371  0.50175992
   0.22112092  0.60159929  0.50078509
   0.05221033  0.70173354  0.50194829
   0.10924895  0.60297027  0.50153190
   0.27826596  0.70339807  0.50133492
   0.22084192  0.80189310  0.50204980
   0.05445046  0.90152756  0.50231788
   0.10887205  0.80124978  0.50204841
   0.27617629  0.90256874  0.50277534
   0.55437801  0.99922968  0.50572441
   0.38883564  0.10163146  0.50505988
   0.44348995  0.00079756  0.50502178
   0.61161031  0.09724406  0.50700911
   0.55680723  0.19613030  0.50791264
   0.39492689  0.30428702  0.50494573
   0.44583631  0.20057745  0.50642494
   0.61517826  0.29250487  0.50872611
   0.56094203  0.38963742  0.50763788
   0.55414280  0.79924743  0.50273895
   0.38745317  0.90093464  0.50353769
   0.44053755  0.79977939  0.50259571
   0.60887017  0.89947779  0.50439536
   0.88903410  0.00046054  0.50356931
   0.72306908  0.09863186  0.50628243
   0.77765009  0.99923027  0.50466754
   0.94586925  0.10073521  0.50337272
   0.89100718  0.20035796  0.50439721
   0.72513919  0.29667967  0.50745295
   0.78009921  0.19794242  0.50625838
   0.94535271  0.30159455  0.50367259
   0.88802651  0.40091200  0.50413839
   0.71530265  0.49591142  0.50508999
   0.77668357  0.39846090  0.50592639
   0.94123750  0.50189617  0.50282250
   0.88205776  0.60037831  0.50268706
   0.71234569  0.70075811  0.50230110
   0.76862778  0.59883017  0.50307460
   0.94003466  0.70004783  0.50228309
   0.88546379  0.80000129  0.50269899
   0.72029074  0.89977296  0.50401900
   0.77341233  0.79931594  0.50296307
   0.94276400  0.90005648  0.50276319
   0.27636959  0.50754383  0.49996918
   0.45513337  0.39614797  0.50538191
   0.60826101  0.48787499  0.50569068
   0.38647024  0.70322844  0.50112740
   0.60504650  0.70295446  0.50122031
   0.46316862  0.56455892  0.49568022
   0.47685670  0.56698918  0.35985872
 
 position of ions in cartesian coordinates  (Angst):
   2.84304890  0.03872837 10.05554825
   0.73340388  1.27323184 10.05062757
   1.41893382  0.02361908 10.04742684
   3.56104140  1.28969416 10.06856702
   2.88682044  2.56201607 10.05297270
   0.73206125  3.76239380 10.04885089
   1.44964109  2.52763353 10.04604821
   3.61623292  3.82102584 10.05218493
   2.88205096  5.08713919 10.02379985
   0.68639222  6.23899230 10.03756093
   1.43354181  5.01882197 10.03519836
   2.83255904  7.45983121 10.01570183
   0.66881433  8.70149594 10.03896584
   1.39947910  7.47683133 10.03063808
   3.56458698  8.72213607 10.02669836
   2.82898500  9.94347448 10.04099594
   0.69751043 11.17894174 10.04635767
   1.39465091  9.93549733 10.04096817
   3.53781828 11.19185232 10.05550685
   7.10158227 12.39044804 10.11448816
   4.98098455  1.26023015 10.10119762
   5.68110623  0.00988973 10.10043568
   7.83472813  1.20582636 10.14018218
   7.13270060  2.43201577 10.15825271
   5.05901344  3.77315903 10.09891457
   5.71116312  2.48716041 10.12849879
   7.88043345  3.62706035 10.17452225
   7.18566745  4.83150404 10.15275758
   7.09856928  9.91066813 10.05477902
   4.96327515 11.17158952 10.07075384
   5.64328595  9.91726447 10.05191411
   7.79962688 11.15352455 10.08790721
  11.38852681  0.00571068 10.07138612
   9.26251492  1.22303508 10.12564861
   9.96169760 12.39045538 10.09335077
  12.11658508  1.24911657 10.06745446
  11.41380194  2.48443873 10.08794415
   9.28903298  3.67882792 10.14905896
   9.99307088  2.45448605 10.12516757
  12.10996816  3.73977246 10.07345186
  11.37561959  4.97130880 10.08276773
   9.16302698  6.14930159 10.10179971
   9.94931650  4.94091516 10.11852772
  12.05725236  6.22351250 10.05644993
  11.29915992  7.44469103 10.05374123
   9.12514823  8.68940052 10.04602202
   9.84612191  7.42549410 10.06149190
  12.04184397  8.68059313 10.04566189
  11.34279116  9.92001597 10.05397989
   9.22692433 11.15718468 10.08038002
   9.90741193  9.91151771 10.05926150
  12.07680684 11.16070039 10.05526379
   3.54029450  6.29354346  9.99938355
   5.83025847  4.91223480 10.10763815
   7.79182350  6.04964986 10.11381355
   4.95068378  8.72003262 10.02254794
   7.75064568  8.71663534 10.02440623
   5.93318996  7.00053056  9.91360447
   6.10853436  7.03066579  7.19717430
 


--------------------------------------------------------------------------------------------------------


 k-point  1 :   0.2500 0.2500 0.0000  plane waves:   80679
 k-point  2 :  -0.2500 0.2500 0.0000  plane waves:   80679

 maximum and minimum number of plane-waves per node :      2549     2492

 maximum number of plane-waves:     80679
 maximum index in each direction: 
   IXMAX=   23   IYMAX=   22   IZMAX=   36
   IXMIN=  -23   IYMIN=  -22   IZMIN=  -36


 parallel 3D FFT for wavefunctions:
    minimum data exchange during FFTs selected (reduces bandwidth)
 parallel 3D FFT for charge:
    minimum data exchange during FFTs selected (reduces bandwidth)


 FFT grid for exact exchange (Hartree Fock) 
  NGX = 72; NGY = 70; NGZ =112

 
 Radii for the augmentation spheres in the non-local exchange
 for species   1 augmentation radius   0.874 (default was   0.699)
       energy cutoff for augmentation   2000.0
 for species   2 augmentation radius   0.886 (default was   0.709)
       energy cutoff for augmentation   2000.0
 for species   3 augmentation radius   1.263 (default was   1.010)
       energy cutoff for augmentation   2000.0
 for species   4 augmentation radius   1.190 (default was   0.952)
       energy cutoff for augmentation   2000.0

 real space projection operators:
  total allocation   :       2528.73 KBytes
  max/ min on nodes  :        142.27         38.60

 Maximum index for augmentation-charges in exchange          153
  SETUP_FOCK is finished

 total amount of memory used by VASP MPI-rank0   164523. kBytes
=======================================================================

   base      :      30000. kBytes
   nonl-proj :       5359. kBytes
   fftplans  :      13453. kBytes
   grid      :      34560. kBytes
   one-center:         62. kBytes
   HF        :         23. kBytes
   nonlr-proj:       1719. kBytes
   wavefun   :      79347. kBytes
 
     INWAV:  cpu time    3.6721: real time    3.6727
 Broyden mixing: mesh for mixing (old mesh)
   NGX = 47   NGY = 45   NGZ = 73
  (NGX  =192   NGY  =180   NGZ  =300)
  gives a total of 154395 points

 charge density for first step will be calculated from the start-wavefunctions


--------------------------------------------------------------------------------------------------------


 Maximum index for augmentation-charges          558 (set IRDMAX)


--------------------------------------------------------------------------------------------------------


 initial charge from wavefunction
 First call to EWALD:  gamma=   0.121
 Maximum number of real-space cells 3x 3x 2
 Maximum number of reciprocal cells 2x 2x 4

    FEWALD:  cpu time    0.0021: real time    1.0627


--------------------------------------- Iteration      1(   1)  ---------------------------------------


    POTLOK:  cpu time    1.3260: real time    1.3270
    SETDIJ:  cpu time    2.0875: real time    2.0881
    TRIAL :  cpu time  559.7672: real time  559.8656
    CORREC:  cpu time    0.0023: real time    0.0023
    CHARGE:  cpu time    1.7237: real time    1.7243
    --------------------------------------------
      LOOP:  cpu time  564.9228: real time  565.0264

 eigenvalue-minimisations  :     0
 total energy-change (2. order) :-0.6106838E+03  (-0.5425066E+00)
 number of electron     252.9999987 magnetization       4.0595818
 augmentation part       18.1352445 magnetization       2.6684223

 DIPCOR: dipole corrections for dipol
 direction  3 min pos     1,
 dipolmoment           0.000000      0.000000      0.175900 electrons x Angstroem
 Tr[quadrupol]     -7182.395586

 energy correction for charged system         0.000000 eV
 dipol+quadrupol energy correction           -0.000885 eV
 added-field ion interaction          0.176553 eV  (added to PSCEN)


 Free energy of the ion-electron system (eV)
  ---------------------------------------------------
  alpha Z        PSCENC =       111.18636245
  Ewald energy   TEWEN  =     39842.99346186
  -Hartree energ DENC   =    -49529.29912932
  -exchange      EXHF   =       582.94054602
  -V(xc)+E(xc)   XCENC  =       672.74522027
  PAW double counting   =     27548.89700732   -27751.69948624
  entropy T*S    EENTRO =        -0.02494942
  eigenvalues    EBANDS =     -3294.22087390
  atomic energy  EATOM  =     11205.80488686
  ---------------------------------------------------
  free energy    TOTEN  =      -610.68381882 eV

  energy without entropy =     -610.65886940  energy(sigma->0) =     -610.67134411
  exchange ACFDT corr.  =        -0.11186317  see jH, gK, PRB 81, 115126


--------------------------------------------------------------------------------------------------------




--------------------------------------- Iteration      1(   2)  ---------------------------------------


    POTLOK:  cpu time    1.3280: real time    1.3281
    SETDIJ:  cpu time    2.0798: real time    2.0800
    TRIAL :  cpu time  562.3252: real time  562.4347
    CORREC:  cpu time    0.0023: real time    0.0026
    CHARGE:  cpu time    1.7175: real time    1.7178
    --------------------------------------------
      LOOP:  cpu time  567.4562: real time  567.5674

 eigenvalue-minimisations  :     0
 total energy-change (2. order) :-0.4085277E+00  (-0.4869638E+00)
 number of electron     252.9999987 magnetization       4.0715012
 augmentation part       18.1722011 magnetization       2.7243082

 DIPCOR: dipole corrections for dipol
 direction  3 min pos     1,
 dipolmoment           0.000000      0.000000      0.178469 electrons x Angstroem
 Tr[quadrupol]     -7182.166328

 energy correction for charged system         0.000000 eV
 dipol+quadrupol energy correction           -0.000911 eV
 added-field ion interaction          0.179131 eV  (added to PSCEN)


 Free energy of the ion-electron system (eV)
  ---------------------------------------------------
  alpha Z        PSCENC =       111.18891415
  Ewald energy   TEWEN  =     39842.99346186
  -Hartree energ DENC   =    -49512.26691481
  -exchange      EXHF   =       582.98579755
  -V(xc)+E(xc)   XCENC  =       672.56535853
  PAW double counting   =     27672.28461342   -27876.35496213
  entropy T*S    EENTRO =        -0.01873513
  eigenvalues    EBANDS =     -3310.26855256
  atomic energy  EATOM  =     11205.80488686
  ---------------------------------------------------
  free energy    TOTEN  =      -611.09234655 eV

  energy without entropy =     -611.07361142  energy(sigma->0) =     -611.08297899
  exchange ACFDT corr.  =        -0.12167791  see jH, gK, PRB 81, 115126


--------------------------------------------------------------------------------------------------------




--------------------------------------- Iteration      1(   3)  ---------------------------------------


    POTLOK:  cpu time    1.3290: real time    1.3292
    SETDIJ:  cpu time    2.0700: real time    2.0765
    TRIAL :  cpu time  561.0754: real time  561.1639
    CORREC:  cpu time    0.0022: real time    0.0025
    CHARGE:  cpu time    1.7161: real time    1.7164
    --------------------------------------------
      LOOP:  cpu time  566.1951: real time  566.2909

 eigenvalue-minimisations  :     0
 total energy-change (2. order) :-0.3630013E+00  (-0.2849072E+00)
 number of electron     252.9999987 magnetization       4.0835031
 augmentation part       18.1772629 magnetization       2.7696873

 DIPCOR: dipole corrections for dipol
 direction  3 min pos     1,
 dipolmoment           0.000000      0.000000      0.189247 electrons x Angstroem
 Tr[quadrupol]     -7182.047115

 energy correction for charged system         0.000000 eV
 dipol+quadrupol energy correction           -0.001024 eV
 added-field ion interaction          0.189949 eV  (added to PSCEN)


 Free energy of the ion-electron system (eV)
  ---------------------------------------------------
  alpha Z        PSCENC =       111.19961962
  Ewald energy   TEWEN  =     39842.99346186
  -Hartree energ DENC   =    -49501.71044909
  -exchange      EXHF   =       583.01022027
  -V(xc)+E(xc)   XCENC  =       672.31928980
  PAW double counting   =     27846.37244340   -28051.90949827
  entropy T*S    EENTRO =        -0.01469337
  eigenvalues    EBANDS =     -3319.51658719
  atomic energy  EATOM  =     11205.80488686
  ---------------------------------------------------
  free energy    TOTEN  =      -611.45534787 eV

  energy without entropy =     -611.44065450  energy(sigma->0) =     -611.44800118
  exchange ACFDT corr.  =        -0.02640517  see jH, gK, PRB 81, 115126


--------------------------------------------------------------------------------------------------------




--------------------------------------- Iteration      1(   4)  ---------------------------------------


    POTLOK:  cpu time    1.3293: real time    1.3293
    SETDIJ:  cpu time    2.0800: real time    2.0801
    TRIAL :  cpu time  560.0933: real time  560.1692
    CORREC:  cpu time    0.0021: real time    0.0024
    CHARGE:  cpu time    1.7190: real time    1.7191
    --------------------------------------------
      LOOP:  cpu time  565.2256: real time  565.3020

 eigenvalue-minimisations  :     0
 total energy-change (2. order) :-0.2006728E+00  (-0.1569873E+00)
 number of electron     252.9999987 magnetization       4.0867831
 augmentation part       18.1622464 magnetization       2.7920506

 DIPCOR: dipole corrections for dipol
 direction  3 min pos     1,
 dipolmoment           0.000000      0.000000      0.204424 electrons x Angstroem
 Tr[quadrupol]     -7182.024595

 energy correction for charged system         0.000000 eV
 dipol+quadrupol energy correction           -0.001195 eV
 added-field ion interaction          0.205182 eV  (added to PSCEN)


 Free energy of the ion-electron system (eV)
  ---------------------------------------------------
  alpha Z        PSCENC =       111.21468159
  Ewald energy   TEWEN  =     39842.99346186
  -Hartree energ DENC   =    -49494.79352897
  -exchange      EXHF   =       583.13065485
  -V(xc)+E(xc)   XCENC  =       672.15750347
  PAW double counting   =     27996.10197425   -28201.30913575
  entropy T*S    EENTRO =        -0.01352711
  eigenvalues    EBANDS =     -3326.94182543
  atomic energy  EATOM  =     11205.80488686
  ---------------------------------------------------
  free energy    TOTEN  =      -611.65602064 eV

  energy without entropy =     -611.64249353  energy(sigma->0) =     -611.64925709
  exchange ACFDT corr.  =        -0.00957268  see jH, gK, PRB 81, 115126


--------------------------------------------------------------------------------------------------------




--------------------------------------- Iteration      1(   5)  ---------------------------------------


    POTLOK:  cpu time    1.3284: real time    1.3285
    SETDIJ:  cpu time    2.0750: real time    2.0751
    TRIAL :  cpu time  560.7226: real time  560.8030
    CORREC:  cpu time    0.0021: real time    0.0023
    CHARGE:  cpu time    1.7100: real time    1.7100
    --------------------------------------------
      LOOP:  cpu time  565.8402: real time  565.9209

 eigenvalue-minimisations  :     0
 total energy-change (2. order) :-0.1116013E+00  (-0.8678268E-01)
 number of electron     252.9999987 magnetization       4.0856389
 augmentation part       18.1565200 magnetization       2.7985001

 DIPCOR: dipole corrections for dipol
 direction  3 min pos     1,
 dipolmoment           0.000000      0.000000      0.214454 electrons x Angstroem
 Tr[quadrupol]     -7182.075206

 energy correction for charged system         0.000000 eV
 dipol+quadrupol energy correction           -0.001315 eV
 added-field ion interaction          0.215250 eV  (added to PSCEN)


 Free energy of the ion-electron system (eV)
  ---------------------------------------------------
  alpha Z        PSCENC =       111.22462909
  Ewald energy   TEWEN  =     39842.99346186
  -Hartree energ DENC   =    -49493.27357778
  -exchange      EXHF   =       583.33856911
  -V(xc)+E(xc)   XCENC  =       672.13404252
  PAW double counting   =     28100.45500261   -28304.61369032
  entropy T*S    EENTRO =        -0.01294471
  eigenvalues    EBANDS =     -3329.81741871
  atomic energy  EATOM  =     11205.80488686
  ---------------------------------------------------
  free energy    TOTEN  =      -611.76762189 eV

  energy without entropy =     -611.75467718  energy(sigma->0) =     -611.76114954
  exchange ACFDT corr.  =        -0.00639463  see jH, gK, PRB 81, 115126


--------------------------------------------------------------------------------------------------------




--------------------------------------- Iteration      1(   6)  ---------------------------------------


    POTLOK:  cpu time    1.3278: real time    1.3280
    SETDIJ:  cpu time    2.0761: real time    2.0763
    TRIAL :  cpu time  559.4040: real time  559.4700
    CORREC:  cpu time    0.0022: real time    0.0025
    CHARGE:  cpu time    1.7144: real time    1.7149
    --------------------------------------------
      LOOP:  cpu time  564.5280: real time  564.6335

 eigenvalue-minimisations  :     0
 total energy-change (2. order) :-0.6657020E-01  (-0.5196985E-01)
 number of electron     252.9999987 magnetization       4.0819083
 augmentation part       18.1651510 magnetization       2.7996073

 DIPCOR: dipole corrections for dipol
 direction  3 min pos     1,
 dipolmoment           0.000000      0.000000      0.219584 electrons x Angstroem
 Tr[quadrupol]     -7182.156012

 energy correction for charged system         0.000000 eV
 dipol+quadrupol energy correction           -0.001379 eV
 added-field ion interaction          0.220399 eV  (added to PSCEN)


 Free energy of the ion-electron system (eV)
  ---------------------------------------------------
  alpha Z        PSCENC =       111.22971463
  Ewald energy   TEWEN  =     39842.99346186
  -Hartree energ DENC   =    -49496.52046489
  -exchange      EXHF   =       583.59898971
  -V(xc)+E(xc)   XCENC  =       672.23718069
  PAW double counting   =     28166.17297554   -28369.98114467
  entropy T*S    EENTRO =        -0.01235771
  eigenvalues    EBANDS =     -3327.35684711
  atomic energy  EATOM  =     11205.80488686
  ---------------------------------------------------
  free energy    TOTEN  =      -611.83419209 eV

  energy without entropy =     -611.82183438  energy(sigma->0) =     -611.82801324
  exchange ACFDT corr.  =        -0.00595933  see jH, gK, PRB 81, 115126


--------------------------------------------------------------------------------------------------------




--------------------------------------- Iteration      1(   7)  ---------------------------------------


    POTLOK:  cpu time    1.3249: real time    1.3250
    SETDIJ:  cpu time    2.0755: real time    2.0755
    TRIAL :  cpu time  557.8270: real time  557.8899
    CORREC:  cpu time    0.0023: real time    0.0025
    CHARGE:  cpu time    1.7121: real time    1.7121
    --------------------------------------------
      LOOP:  cpu time  562.9434: real time  563.0165

 eigenvalue-minimisations  :     0
 total energy-change (2. order) :-0.4198120E-01  (-0.3216523E-01)
 number of electron     252.9999987 magnetization       4.0774271
 augmentation part       18.1771016 magnetization       2.8001879

 DIPCOR: dipole corrections for dipol
 direction  3 min pos     1,
 dipolmoment           0.000000      0.000000      0.222777 electrons x Angstroem
 Tr[quadrupol]     -7182.230737

 energy correction for charged system         0.000000 eV
 dipol+quadrupol energy correction           -0.001419 eV
 added-field ion interaction          0.223603 eV  (added to PSCEN)


 Free energy of the ion-electron system (eV)
  ---------------------------------------------------
  alpha Z        PSCENC =       111.23287840
  Ewald energy   TEWEN  =     39842.99346186
  -Hartree energ DENC   =    -49501.31608850
  -exchange      EXHF   =       583.83948102
  -V(xc)+E(xc)   XCENC  =       672.38007102
  PAW double counting   =     28205.27771900   -28409.38361977
  entropy T*S    EENTRO =        -0.01178862
  eigenvalues    EBANDS =     -3322.69260546
  atomic energy  EATOM  =     11205.80488686
  ---------------------------------------------------
  free energy    TOTEN  =      -611.87617329 eV

  energy without entropy =     -611.86438467  energy(sigma->0) =     -611.87027898
  exchange ACFDT corr.  =        -0.00560098  see jH, gK, PRB 81, 115126


--------------------------------------------------------------------------------------------------------




--------------------------------------- Iteration      1(   8)  ---------------------------------------


    POTLOK:  cpu time    1.3298: real time    1.3299
    SETDIJ:  cpu time    2.0782: real time    2.0784
    TRIAL :  cpu time  557.3944: real time  557.4608
    CORREC:  cpu time    0.0021: real time    0.0024
    CHARGE:  cpu time    1.7081: real time    1.7082
    --------------------------------------------
      LOOP:  cpu time  562.5153: real time  563.6937

 eigenvalue-minimisations  :     0
 total energy-change (2. order) :-0.2663480E-01  (-0.2051816E-01)
 number of electron     252.9999987 magnetization       4.0733333
 augmentation part       18.1841260 magnetization       2.8010755

 DIPCOR: dipole corrections for dipol
 direction  3 min pos     1,
 dipolmoment           0.000000      0.000000      0.225387 electrons x Angstroem
 Tr[quadrupol]     -7182.280241

 energy correction for charged system         0.000000 eV
 dipol+quadrupol energy correction           -0.001452 eV
 added-field ion interaction          0.226222 eV  (added to PSCEN)


 Free energy of the ion-electron system (eV)
  ---------------------------------------------------
  alpha Z        PSCENC =       111.23546436
  Ewald energy   TEWEN  =     39842.99346186
  -Hartree energ DENC   =    -49504.84703583
  -exchange      EXHF   =       584.00884407
  -V(xc)+E(xc)   XCENC  =       672.48751765
  PAW double counting   =     28226.13401929   -28430.60222588
  entropy T*S    EENTRO =        -0.01129524
  eigenvalues    EBANDS =     -3319.10595184
  atomic energy  EATOM  =     11205.80488686
  ---------------------------------------------------
  free energy    TOTEN  =      -611.90280809 eV

  energy without entropy =     -611.89151285  energy(sigma->0) =     -611.89716047
  exchange ACFDT corr.  =        -0.00528051  see jH, gK, PRB 81, 115126


--------------------------------------------------------------------------------------------------------




--------------------------------------- Iteration      1(   9)  ---------------------------------------


    POTLOK:  cpu time    1.3225: real time    1.3226
    SETDIJ:  cpu time    2.0736: real time    2.0737
    TRIAL :  cpu time  558.0593: real time  558.1089
    CORREC:  cpu time    0.0023: real time    0.0026
    CHARGE:  cpu time    1.7083: real time    1.7085
    --------------------------------------------
      LOOP:  cpu time  563.1687: real time  563.2238

 eigenvalue-minimisations  :     0
 total energy-change (2. order) :-0.1749882E-01  (-0.1389395E-01)
 number of electron     252.9999987 magnetization       4.0699165
 augmentation part       18.1854708 magnetization       2.8019936

 DIPCOR: dipole corrections for dipol
 direction  3 min pos     1,
 dipolmoment           0.000000      0.000000      0.227320 electrons x Angstroem
 Tr[quadrupol]     -7182.303689

 energy correction for charged system         0.000000 eV
 dipol+quadrupol energy correction           -0.001477 eV
 added-field ion interaction          0.228163 eV  (added to PSCEN)


 Free energy of the ion-electron system (eV)
  ---------------------------------------------------
  alpha Z        PSCENC =       111.23738001
  Ewald energy   TEWEN  =     39842.99346186
  -Hartree energ DENC   =    -49506.32059996
  -exchange      EXHF   =       584.10297444
  -V(xc)+E(xc)   XCENC  =       672.53891610
  PAW double counting   =     28234.94666953   -28439.53529861
  entropy T*S    EENTRO =        -0.01088943
  eigenvalues    EBANDS =     -3317.67740190
  atomic energy  EATOM  =     11205.80488686
  ---------------------------------------------------
  free energy    TOTEN  =      -611.92030692 eV

  energy without entropy =     -611.90941748  energy(sigma->0) =     -611.91486220
  exchange ACFDT corr.  =        -0.00501383  see jH, gK, PRB 81, 115126


--------------------------------------------------------------------------------------------------------




--------------------------------------- Iteration      1(  10)  ---------------------------------------


    POTLOK:  cpu time    1.3234: real time    1.3234
    SETDIJ:  cpu time    2.0791: real time    2.0791
    TRIAL :  cpu time  557.2904: real time  557.3441
    CORREC:  cpu time    0.0023: real time    0.0026
    CHARGE:  cpu time    1.7081: real time    1.7081
    --------------------------------------------
      LOOP:  cpu time  562.4051: real time  562.4616

 eigenvalue-minimisations  :     0
 total energy-change (2. order) :-0.1201167E-01  (-0.9394348E-02)
 number of electron     252.9999987 magnetization       4.0670708
 augmentation part       18.1848680 magnetization       2.8026812

 DIPCOR: dipole corrections for dipol
 direction  3 min pos     1,
 dipolmoment           0.000000      0.000000      0.228304 electrons x Angstroem
 Tr[quadrupol]     -7182.309838

 energy correction for charged system         0.000000 eV
 dipol+quadrupol energy correction           -0.001490 eV
 added-field ion interaction          0.229151 eV  (added to PSCEN)


 Free energy of the ion-electron system (eV)
  ---------------------------------------------------
  alpha Z        PSCENC =       111.23835490
  Ewald energy   TEWEN  =     39842.99346186
  -Hartree energ DENC   =    -49506.36270871
  -exchange      EXHF   =       584.14669341
  -V(xc)+E(xc)   XCENC  =       672.55122615
  PAW double counting   =     28236.69541707   -28441.20249747
  entropy T*S    EENTRO =        -0.01055650
  eigenvalues    EBANDS =     -3317.78626322
  atomic energy  EATOM  =     11205.80488686
  ---------------------------------------------------
  free energy    TOTEN  =      -611.93231859 eV

  energy without entropy =     -611.92176209  energy(sigma->0) =     -611.92704034
  exchange ACFDT corr.  =        -0.00479974  see jH, gK, PRB 81, 115126


--------------------------------------------------------------------------------------------------------




--------------------------------------- Iteration      1(  11)  ---------------------------------------


    POTLOK:  cpu time    1.3216: real time    1.3220
    SETDIJ:  cpu time    2.0789: real time    2.0789
    TRIAL :  cpu time  558.6828: real time  558.7374
    CORREC:  cpu time    0.0023: real time    0.0026
    CHARGE:  cpu time    1.7163: real time    1.7164
    --------------------------------------------
      LOOP:  cpu time  563.8060: real time  563.8632

 eigenvalue-minimisations  :     0
 total energy-change (2. order) :-0.8200830E-02  (-0.6419844E-02)
 number of electron     252.9999987 magnetization       4.0646323
 augmentation part       18.1852169 magnetization       2.8032474

 DIPCOR: dipole corrections for dipol
 direction  3 min pos     1,
 dipolmoment           0.000000      0.000000      0.228495 electrons x Angstroem
 Tr[quadrupol]     -7182.309111

 energy correction for charged system         0.000000 eV
 dipol+quadrupol energy correction           -0.001493 eV
 added-field ion interaction          0.229343 eV  (added to PSCEN)


 Free energy of the ion-electron system (eV)
  ---------------------------------------------------
  alpha Z        PSCENC =       111.23854431
  Ewald energy   TEWEN  =     39842.99346186
  -Hartree energ DENC   =    -49506.02591456
  -exchange      EXHF   =       584.17057182
  -V(xc)+E(xc)   XCENC  =       672.55258458
  PAW double counting   =     28235.25899934   -28439.68734076
  entropy T*S    EENTRO =        -0.01027845
  eigenvalues    EBANDS =     -3318.23575636
  atomic energy  EATOM  =     11205.80488686
  ---------------------------------------------------
  free energy    TOTEN  =      -611.94051942 eV

  energy without entropy =     -611.93024097  energy(sigma->0) =     -611.93538019
  exchange ACFDT corr.  =        -0.00462651  see jH, gK, PRB 81, 115126


--------------------------------------------------------------------------------------------------------




--------------------------------------- Iteration      1(  12)  ---------------------------------------


    POTLOK:  cpu time    1.3232: real time    1.3235
    SETDIJ:  cpu time    2.0771: real time    2.0773
    TRIAL :  cpu time  558.9107: real time  559.0138
    CORREC:  cpu time    0.0021: real time    0.0024
    CHARGE:  cpu time    1.7087: real time    1.7088
    --------------------------------------------
      LOOP:  cpu time  564.0243: real time  564.1311

 eigenvalue-minimisations  :     0
 total energy-change (2. order) :-0.5671128E-02  (-0.4418219E-02)
 number of electron     252.9999987 magnetization       4.0625080
 augmentation part       18.1866657 magnetization       2.8038027

 DIPCOR: dipole corrections for dipol
 direction  3 min pos     1,
 dipolmoment           0.000000      0.000000      0.228381 electrons x Angstroem
 Tr[quadrupol]     -7182.308299

 energy correction for charged system         0.000000 eV
 dipol+quadrupol energy correction           -0.001491 eV
 added-field ion interaction          0.229228 eV  (added to PSCEN)


 Free energy of the ion-electron system (eV)
  ---------------------------------------------------
  alpha Z        PSCENC =       111.23843121
  Ewald energy   TEWEN  =     39842.99346186
  -Hartree energ DENC   =    -49505.90874555
  -exchange      EXHF   =       584.19189410
  -V(xc)+E(xc)   XCENC  =       672.55821993
  PAW double counting   =     28233.33314761   -28437.78102623
  entropy T*S    EENTRO =        -0.01004383
  eigenvalues    EBANDS =     -3318.36618189
  atomic energy  EATOM  =     11205.80488686
  ---------------------------------------------------
  free energy    TOTEN  =      -611.94619054 eV

  energy without entropy =     -611.93614672  energy(sigma->0) =     -611.94116863
  exchange ACFDT corr.  =        -0.00448278  see jH, gK, PRB 81, 115126


--------------------------------------------------------------------------------------------------------




--------------------------------------- Iteration      1(  13)  ---------------------------------------


    POTLOK:  cpu time    1.3185: real time    1.3186
    SETDIJ:  cpu time    2.0741: real time    2.0744
    TRIAL :  cpu time  559.2743: real time  559.3690
    CORREC:  cpu time    0.0022: real time    0.0025
    CHARGE:  cpu time    1.7085: real time    1.7087
    --------------------------------------------
      LOOP:  cpu time  564.3805: real time  564.4788

 eigenvalue-minimisations  :     0
 total energy-change (2. order) :-0.3935710E-02  (-0.3059464E-02)
 number of electron     252.9999987 magnetization       4.0606668
 augmentation part       18.1882077 magnetization       2.8042408

 DIPCOR: dipole corrections for dipol
 direction  3 min pos     1,
 dipolmoment           0.000000      0.000000      0.228366 electrons x Angstroem
 Tr[quadrupol]     -7182.309523

 energy correction for charged system         0.000000 eV
 dipol+quadrupol energy correction           -0.001491 eV
 added-field ion interaction          0.229213 eV  (added to PSCEN)


 Free energy of the ion-electron system (eV)
  ---------------------------------------------------
  alpha Z        PSCENC =       111.23841640
  Ewald energy   TEWEN  =     39842.99346186
  -Hartree energ DENC   =    -49506.02931248
  -exchange      EXHF   =       584.21321262
  -V(xc)+E(xc)   XCENC  =       672.56771104
  PAW double counting   =     28232.23907730   -28436.75350633
  entropy T*S    EENTRO =        -0.00984674
  eigenvalues    EBANDS =     -3318.21402969
  atomic energy  EATOM  =     11205.80488686
  ---------------------------------------------------
  free energy    TOTEN  =      -611.95012625 eV

  energy without entropy =     -611.94027951  energy(sigma->0) =     -611.94520288
  exchange ACFDT corr.  =        -0.00436177  see jH, gK, PRB 81, 115126


--------------------------------------------------------------------------------------------------------




--------------------------------------- Iteration      1(  14)  ---------------------------------------


    POTLOK:  cpu time    1.3150: real time    1.3152
    SETDIJ:  cpu time    2.0741: real time    2.0742
    TRIAL :  cpu time  557.5341: real time  557.5906
    CORREC:  cpu time    0.0023: real time    0.0026
    CHARGE:  cpu time    1.7100: real time    1.7100
    --------------------------------------------
      LOOP:  cpu time  562.6372: real time  562.6964

 eigenvalue-minimisations  :     0
 total energy-change (2. order) :-0.2751578E-02  (-0.2155511E-02)
 number of electron     252.9999987 magnetization       4.0590894
 augmentation part       18.1890929 magnetization       2.8044537

 DIPCOR: dipole corrections for dipol
 direction  3 min pos     1,
 dipolmoment           0.000000      0.000000      0.228483 electrons x Angstroem
 Tr[quadrupol]     -7182.312007

 energy correction for charged system         0.000000 eV
 dipol+quadrupol energy correction           -0.001493 eV
 added-field ion interaction          0.229330 eV  (added to PSCEN)


 Free energy of the ion-electron system (eV)
  ---------------------------------------------------
  alpha Z        PSCENC =       111.23853218
  Ewald energy   TEWEN  =     39842.99346186
  -Hartree energ DENC   =    -49506.21252034
  -exchange      EXHF   =       584.23212058
  -V(xc)+E(xc)   XCENC  =       672.57648526
  PAW double counting   =     28232.10599502   -28436.66977497
  entropy T*S    EENTRO =        -0.00968270
  eigenvalues    EBANDS =     -3318.01221754
  atomic energy  EATOM  =     11205.80488686
  ---------------------------------------------------
  free energy    TOTEN  =      -611.95287783 eV

  energy without entropy =     -611.94319514  energy(sigma->0) =     -611.94803648
  exchange ACFDT corr.  =        -0.00426015  see jH, gK, PRB 81, 115126


--------------------------------------------------------------------------------------------------------




--------------------------------------- Iteration      1(  15)  ---------------------------------------


    POTLOK:  cpu time    1.3156: real time    1.3158
    SETDIJ:  cpu time    2.0737: real time    2.0738
    TRIAL :  cpu time  558.5107: real time  558.5605
    CORREC:  cpu time    0.0023: real time    0.0025
    CHARGE:  cpu time    1.7097: real time    1.7097
    --------------------------------------------
      LOOP:  cpu time  563.6140: real time  563.6685

 eigenvalue-minimisations  :     0
 total energy-change (2. order) :-0.1954050E-02  (-0.1538449E-02)
 number of electron     252.9999987 magnetization       4.0577440
 augmentation part       18.1893673 magnetization       2.8044115

 DIPCOR: dipole corrections for dipol
 direction  3 min pos     1,
 dipolmoment           0.000000      0.000000      0.228567 electrons x Angstroem
 Tr[quadrupol]     -7182.314322

 energy correction for charged system         0.000000 eV
 dipol+quadrupol energy correction           -0.001494 eV
 added-field ion interaction          0.229414 eV  (added to PSCEN)


 Free energy of the ion-electron system (eV)
  ---------------------------------------------------
  alpha Z        PSCENC =       111.23861487
  Ewald energy   TEWEN  =     39842.99346186
  -Hartree energ DENC   =    -49506.32846823
  -exchange      EXHF   =       584.24693297
  -V(xc)+E(xc)   XCENC  =       672.58190373
  PAW double counting   =     28232.64282603   -28437.21496265
  entropy T*S    EENTRO =        -0.00954660
  eigenvalues    EBANDS =     -3317.91034462
  atomic energy  EATOM  =     11205.80488686
  ---------------------------------------------------
  free energy    TOTEN  =      -611.95483188 eV

  energy without entropy =     -611.94528528  energy(sigma->0) =     -611.95005858
  exchange ACFDT corr.  =        -0.00417549  see jH, gK, PRB 81, 115126


--------------------------------------------------------------------------------------------------------




--------------------------------------- Iteration      1(  16)  ---------------------------------------


    POTLOK:  cpu time    1.3184: real time    1.3184
    SETDIJ:  cpu time    2.0717: real time    2.0718
    TRIAL :  cpu time  557.2542: real time  557.3006
    CORREC:  cpu time    0.0019: real time    0.0022
    CHARGE:  cpu time    1.7092: real time    1.7093
    --------------------------------------------
      LOOP:  cpu time  562.3578: real time  562.4047

 eigenvalue-minimisations  :     0
 total energy-change (2. order) :-0.1401448E-02  (-0.1106954E-02)
 number of electron     252.9999987 magnetization       4.0565898
 augmentation part       18.1895089 magnetization       2.8041950

 DIPCOR: dipole corrections for dipol
 direction  3 min pos     1,
 dipolmoment           0.000000      0.000000      0.228505 electrons x Angstroem
 Tr[quadrupol]     -7182.315789

 energy correction for charged system         0.000000 eV
 dipol+quadrupol energy correction           -0.001493 eV
 added-field ion interaction          0.229352 eV  (added to PSCEN)


 Free energy of the ion-electron system (eV)
  ---------------------------------------------------
  alpha Z        PSCENC =       111.23855365
  Ewald energy   TEWEN  =     39842.99346186
  -Hartree energ DENC   =    -49506.37360551
  -exchange      EXHF   =       584.25843169
  -V(xc)+E(xc)   XCENC  =       672.58478028
  PAW double counting   =     28233.53070469   -28438.08936622
  entropy T*S    EENTRO =        -0.00943313
  eigenvalues    EBANDS =     -3317.89453402
  atomic energy  EATOM  =     11205.80488686
  ---------------------------------------------------
  free energy    TOTEN  =      -611.95623333 eV

  energy without entropy =     -611.94680021  energy(sigma->0) =     -611.95151677
  exchange ACFDT corr.  =        -0.00410512  see jH, gK, PRB 81, 115126


--------------------------------------------------------------------------------------------------------




--------------------------------------- Iteration      1(  17)  ---------------------------------------


    POTLOK:  cpu time    1.3169: real time    1.3169
    SETDIJ:  cpu time    2.0739: real time    2.0740
    TRIAL :  cpu time  558.6363: real time  558.7228
    CORREC:  cpu time    0.0022: real time    0.0022
    CHARGE:  cpu time    1.7104: real time    1.7107
    --------------------------------------------
      LOOP:  cpu time  563.7423: real time  563.8312

 eigenvalue-minimisations  :     0
 total energy-change (2. order) :-0.1014281E-02  (-0.8066027E-03)
 number of electron     252.9999987 magnetization       4.0555896
 augmentation part       18.1897523 magnetization       2.8039555

 DIPCOR: dipole corrections for dipol
 direction  3 min pos     1,
 dipolmoment           0.000000      0.000000      0.228328 electrons x Angstroem
 Tr[quadrupol]     -7182.316458

 energy correction for charged system         0.000000 eV
 dipol+quadrupol energy correction           -0.001491 eV
 added-field ion interaction          0.229175 eV  (added to PSCEN)


 Free energy of the ion-electron system (eV)
  ---------------------------------------------------
  alpha Z        PSCENC =       111.23837851
  Ewald energy   TEWEN  =     39842.99346186
  -Hartree energ DENC   =    -49506.40495588
  -exchange      EXHF   =       584.26835459
  -V(xc)+E(xc)   XCENC  =       672.58722729
  PAW double counting   =     28234.56238130   -28439.11581938
  entropy T*S    EENTRO =        -0.00933767
  eigenvalues    EBANDS =     -3317.88172963
  atomic energy  EATOM  =     11205.80488686
  ---------------------------------------------------
  free energy    TOTEN  =      -611.95724761 eV

  energy without entropy =     -611.94790994  energy(sigma->0) =     -611.95257878
  exchange ACFDT corr.  =        -0.00404629  see jH, gK, PRB 81, 115126


--------------------------------------------------------------------------------------------------------




--------------------------------------- Iteration      1(  18)  ---------------------------------------


    POTLOK:  cpu time    1.3176: real time    1.3178
    SETDIJ:  cpu time    2.0738: real time    2.0741
    TRIAL :  cpu time  558.9797: real time  559.0417
    CORREC:  cpu time    0.0022: real time    0.0025
    CHARGE:  cpu time    1.7208: real time    1.7208
    --------------------------------------------
      LOOP:  cpu time  564.0960: real time  564.1610

 eigenvalue-minimisations  :     0
 total energy-change (2. order) :-0.7426806E-03  (-0.5929994E-03)
 number of electron     252.9999987 magnetization       4.0547167
 augmentation part       18.1900629 magnetization       2.8037817

 DIPCOR: dipole corrections for dipol
 direction  3 min pos     1,
 dipolmoment           0.000000      0.000000      0.228143 electrons x Angstroem
 Tr[quadrupol]     -7182.316640

 energy correction for charged system         0.000000 eV
 dipol+quadrupol energy correction           -0.001488 eV
 added-field ion interaction          0.228989 eV  (added to PSCEN)


 Free energy of the ion-electron system (eV)
  ---------------------------------------------------
  alpha Z        PSCENC =       111.23819487
  Ewald energy   TEWEN  =     39842.99346186
  -Hartree energ DENC   =    -49506.44300385
  -exchange      EXHF   =       584.27730284
  -V(xc)+E(xc)   XCENC  =       672.58987103
  PAW double counting   =     28235.60107990   -28440.16213812
[...]
  Total     -48.44916   -45.12498    -0.21886   -19.38435    -0.03413     0.05796
  in kB     -24.43408   -22.75762    -0.11038    -9.77600    -0.01721     0.02923
  external pressure =      -15.77 kB  Pullay stress =        0.00 kB


 VOLUME and BASIS-vectors are now :
 -----------------------------------------------------------------------------
  energy-cutoff  :      500.00
  volume of cell :     3176.88
      direct lattice vectors                 reciprocal lattice vectors
    12.810000000  0.000000000  0.000000000     0.078064012  0.000000000  0.000000000
     0.000000000 12.400000000  0.000000000     0.000000000  0.080645161  0.000000000
     0.000000000  0.000000000 20.000000000     0.000000000  0.000000000  0.050000000

  length of vectors
    12.810000000 12.400000000 20.000000000     0.078064012  0.080645161  0.050000000


 FORCES acting on ions:
    Electron-Ion                     Ewald-Force                    Non-Local-Force
 -----------------------------------------------------------------------------------------------
   0.527E+01 -.877E+01 -.712E+01   -.547E+01 0.901E+01 0.713E+01   0.175E+00 -.288E+00 -.695E-02
   -.188E+01 -.427E+01 -.290E+01   0.206E+01 0.428E+01 0.291E+01   -.175E+00 0.529E-02 -.874E-02
   0.666E+01 -.418E+00 -.367E+01   -.665E+01 0.365E+00 0.367E+01   -.280E-02 0.132E-01 0.479E-02
   0.144E+02 0.109E+00 -.918E+01   -.146E+02 -.239E-01 0.918E+01   0.211E+00 -.556E-01 0.117E-01
   0.654E+01 0.743E+00 -.697E+01   -.636E+01 -.472E+00 0.700E+01   -.130E+00 -.274E+00 -.198E-01
   0.680E+00 0.310E+01 -.516E+01   -.663E+00 -.335E+01 0.518E+01   -.733E-02 0.217E+00 -.113E-01
   0.281E+01 0.638E+01 -.325E+01   -.275E+01 -.643E+01 0.325E+01   -.755E-01 0.325E-01 0.776E-02
   0.193E+02 0.101E+02 -.134E+02   -.193E+02 -.982E+01 0.134E+02   0.123E+00 -.347E+00 0.176E-01
   0.199E+02 0.421E+02 -.126E+02   -.210E+02 -.445E+02 0.127E+02   0.117E+01 0.254E+01 -.741E-01
   0.142E+02 0.369E+01 -.719E+01   -.144E+02 -.365E+01 0.718E+01   0.258E+00 -.707E-01 0.101E-01
   0.961E+01 0.144E+02 -.733E+01   -.954E+01 -.146E+02 0.738E+01   -.113E+00 0.260E+00 -.286E-01
   0.331E+02 -.283E+02 -.186E+02   -.348E+02 0.303E+02 0.187E+02   0.160E+01 -.201E+01 -.685E-01
   0.109E+02 -.544E+01 -.795E+01   -.111E+02 0.556E+01 0.798E+01   0.211E+00 -.973E-01 -.252E-01
   0.174E+02 -.484E+01 -.102E+02   -.174E+02 0.527E+01 0.102E+02   0.957E-01 -.392E+00 -.299E-01
   0.490E+02 -.582E+01 -.248E+02   -.524E+02 0.562E+01 0.248E+02   0.355E+01 0.203E+00 -.614E-01
   0.221E+02 -.148E+02 -.135E+02   -.226E+02 0.148E+02 0.135E+02   0.425E+00 -.111E+00 -.416E-02
   0.321E+01 -.716E+01 -.489E+01   -.315E+01 0.723E+01 0.491E+01   -.463E-01 -.400E-01 -.138E-01
   0.929E+01 -.503E+01 -.789E+01   -.968E+01 0.490E+01 0.790E+01   0.350E+00 0.945E-01 -.486E-02
   0.149E+02 -.144E+02 -.123E+02   -.152E+02 0.148E+02 0.123E+02   0.239E+00 -.331E+00 -.198E-01
   -.169E+01 -.400E+01 -.209E+02   0.144E+01 0.410E+01 0.209E+02   0.222E+00 -.410E-01 -.125E-01
   0.731E+01 0.416E+01 -.172E+02   -.763E+01 -.430E+01 0.172E+02   0.270E+00 0.162E+00 0.882E-02
   0.717E+01 -.653E+01 -.190E+02   -.706E+01 0.669E+01 0.191E+02   -.856E-01 -.193E+00 -.396E-01
   -.783E+01 0.894E+01 -.240E+02   0.789E+01 -.933E+01 0.240E+02   -.765E-01 0.347E+00 -.160E-01
   0.971E+00 0.222E+02 -.327E+02   -.121E+01 -.226E+02 0.327E+02   0.260E+00 0.448E+00 0.155E-02
   0.440E+02 0.353E+02 -.298E+02   -.463E+02 -.380E+02 0.297E+02   0.234E+01 0.266E+01 0.544E-01
   0.156E+02 0.182E+02 -.274E+02   -.160E+02 -.184E+02 0.275E+02   0.427E+00 0.158E+00 -.309E-01
   -.202E+02 0.335E+02 -.454E+02   0.208E+02 -.344E+02 0.455E+02   -.607E+00 0.886E+00 -.152E+00
   -.269E+02 0.482E+02 -.640E+02   0.291E+02 -.518E+02 0.642E+02   -.215E+01 0.358E+01 -.254E+00
   0.951E+01 -.413E+02 -.280E+02   -.103E+02 0.437E+02 0.281E+02   0.962E+00 -.224E+01 -.106E+00
   0.479E+01 -.216E+02 -.189E+02   -.467E+01 0.221E+02 0.189E+02   -.553E-01 -.407E+00 -.125E-03
   -.137E+02 -.431E+02 -.312E+02   0.155E+02 0.459E+02 0.313E+02   -.196E+01 -.292E+01 -.142E+00
   -.746E+01 -.155E+02 -.202E+02   0.712E+01 0.156E+02 0.203E+02   0.255E+00 -.147E+00 -.388E-01
   -.703E+01 -.441E+01 -.690E+01   0.712E+01 0.436E+01 0.692E+01   -.949E-01 0.172E-01 -.153E-01
   -.862E+01 0.196E+01 -.190E+02   0.873E+01 -.199E+01 0.190E+02   -.790E-01 0.305E-01 -.315E-01
   -.918E+01 0.307E+01 -.120E+02   0.938E+01 -.293E+01 0.120E+02   -.192E+00 -.885E-01 -.682E-02
   -.350E+01 0.536E+01 -.515E+01   0.366E+01 -.542E+01 0.515E+01   -.156E+00 0.668E-01 0.777E-02
   -.106E+02 0.971E+00 -.961E+01   0.108E+02 -.935E+00 0.962E+01   -.190E+00 -.265E-01 0.636E-02
   -.251E+02 0.114E+02 -.306E+02   0.256E+02 -.114E+02 0.305E+02   -.567E+00 0.177E-01 -.732E-02
   -.131E+02 0.122E+02 -.188E+02   0.133E+02 -.123E+02 0.188E+02   -.219E+00 0.181E+00 0.876E-03
   -.567E+01 0.397E+01 -.880E+01   0.579E+01 -.393E+01 0.883E+01   -.112E+00 -.505E-01 -.229E-01
   -.121E+02 0.300E+01 -.129E+02   0.123E+02 -.282E+01 0.129E+02   -.257E+00 -.152E+00 0.510E-02
   -.552E+02 -.169E+02 -.332E+02   0.587E+02 0.176E+02 0.332E+02   -.345E+01 -.644E+00 0.527E-01
   -.271E+02 0.984E+00 -.259E+02   0.274E+02 -.788E+00 0.259E+02   -.324E+00 -.213E+00 -.189E-01
   -.508E+01 -.248E+01 -.874E+01   0.483E+01 0.270E+01 0.874E+01   0.196E+00 -.217E+00 -.101E-03
   -.409E+01 -.364E+01 -.988E+01   0.382E+01 0.366E+01 0.992E+01   0.314E+00 -.169E-01 -.351E-01
   -.481E+02 0.217E+01 -.190E+02   0.507E+02 -.256E+01 0.191E+02   -.278E+01 0.377E+00 -.827E-01
   -.203E+02 -.631E+01 -.178E+02   0.201E+02 0.648E+01 0.178E+02   0.185E+00 -.268E+00 0.759E-02
   -.244E+01 0.168E+01 -.684E+01   0.250E+01 -.186E+01 0.683E+01   -.376E-01 0.124E+00 0.107E-01
   -.577E+01 -.654E+01 -.800E+01   0.606E+01 0.639E+01 0.804E+01   -.274E+00 0.152E+00 -.422E-01
   -.141E+02 -.128E+02 -.137E+02   0.142E+02 0.128E+02 0.137E+02   -.122E+00 -.115E+00 0.119E-02
   -.204E+02 -.212E+00 -.119E+02   0.206E+02 -.714E-01 0.119E+02   -.232E+00 0.334E+00 -.144E-01
   -.194E+01 0.158E+01 -.550E+01   0.196E+01 -.165E+01 0.550E+01   -.443E-01 0.642E-01 0.460E-05
   -.499E+02 0.200E+02 -.256E+02   0.782E+02 -.199E+02 0.251E+02   -.266E+02 -.167E+00 0.453E+00
   0.829E+02 -.117E+02 -.697E+02   -.951E+02 0.329E+02 0.692E+02   0.116E+02 -.200E+02 0.417E+00
   -.295E+02 -.712E+02 -.772E+02   0.171E+02 0.925E+02 0.769E+02   0.118E+02 -.201E+02 0.256E+00
   -.130E+01 0.131E+02 -.537E+02   0.112E+02 -.304E+02 0.538E+02   -.966E+01 0.170E+02 0.400E-01
   0.781E+01 0.547E+02 -.359E+02   -.219E+02 -.794E+02 0.352E+02   0.133E+02 0.233E+02 0.681E+00
   0.267E+02 -.212E+02 -.962E+02   -.269E+02 0.216E+02 0.960E+02   0.360E+00 -.944E+00 0.395E+00
   -.688E+01 0.907E+00 0.120E+04   0.621E+01 -.908E+00 -.120E+04   0.604E+00 0.183E-02 -.301E+01
 -----------------------------------------------------------------------------------------------
   -.614E+00 -.326E+00 0.223E+01   -.711E-13 0.296E-12 0.227E-12   0.615E+00 0.184E+00 -.201E+01
 
 
 POSITION                                       TOTAL-FORCE (eV/Angst)
 -----------------------------------------------------------------------------------
      2.84305      0.03873     10.05555        -0.027818     -0.068387      0.004386
      0.73340      1.27323     10.05063        -0.008650      0.007872      0.006483
      1.41893      0.02362     10.04743         0.021095     -0.032346      0.005945
      3.56104      1.28969     10.06857         0.048933      0.027255      0.007584
      2.88682      2.56202     10.05297         0.040161     -0.026030      0.002851
      0.73206      3.76239     10.04885         0.007925     -0.025199      0.012214
      1.44964      2.52763     10.04605        -0.022512     -0.002673      0.009300
      3.61623      3.82103     10.05218         0.095265     -0.112968      0.012446
      2.88205      5.08714     10.02380         0.125469      0.356954      0.007199
      0.68639      6.23899     10.03756         0.090077     -0.032653      0.005201
      1.43354      5.01882     10.03520        -0.051903      0.053183      0.011693
      2.83256      7.45983     10.01570        -0.024484     -0.188552     -0.003528
      0.66881      8.70150     10.03897         0.018734      0.015704      0.000334
      1.39948      7.47683     10.03064         0.061260      0.015595     -0.003831
      3.56459      8.72214     10.02670         0.348466      0.024982     -0.012854
      2.82899      9.94347     10.04100        -0.029764     -0.034852     -0.007920
      0.69751     11.17894     10.04636         0.015230      0.017118      0.006888
      1.39465      9.93550     10.04097        -0.023058     -0.029227      0.000178
      3.53782     11.19185     10.05551        -0.008951      0.029200      0.003933
      7.10158     12.39045     10.11449        -0.020927      0.052335     -0.008080
      4.98098      1.26023     10.10120        -0.039970      0.031230     -0.004031
      5.68111      0.00989     10.10044         0.031311     -0.037631     -0.004728
      7.83473      1.20583     10.14018        -0.029902     -0.024233     -0.011444
      7.13270      2.43202     10.15825         0.037701      0.081486     -0.020791
      5.05901      3.77316     10.09891         0.090582      0.092299     -0.015115
      5.71116      2.48716     10.12850        -0.018808     -0.004893     -0.014346
      7.88043      3.62706     10.17452        -0.047462      0.024146     -0.045368
      7.18567      4.83150     10.15276        -0.170262      0.239384     -0.075033
      7.09857      9.91067     10.05478         0.247170     -0.034977     -0.016396
      4.96328     11.17159     10.07075         0.055234      0.049253     -0.003844
      5.64329      9.91726     10.05191        -0.255331     -0.300558     -0.030611
      7.79963     11.15352     10.08791        -0.072340     -0.090862     -0.016835
     11.38853      0.00571     10.07139        -0.012787     -0.032317      0.003533
      9.26251      1.22304     10.12565         0.022509     -0.006661     -0.011877
      9.96170     12.39046     10.09335         0.001284      0.059613     -0.002810
     12.11659      1.24912     10.06745         0.004015      0.017759      0.009160
     11.41380      2.48444     10.08794        -0.003387      0.001833      0.008121
      9.28903      3.67883     10.14906        -0.033366      0.015750     -0.014515
      9.99307      2.45449     10.12517        -0.030056      0.032600     -0.001026
     12.10997      3.73977     10.07345         0.006364     -0.008747      0.000404
     11.37562      4.97131     10.08277         0.000347      0.019770      0.003621
      9.16303      6.14930     10.10180        -0.154719      0.007938     -0.026289
      9.94932      4.94092     10.11853        -0.005560     -0.031019     -0.007163
     12.05725      6.22351     10.05645        -0.045971     -0.003877      0.005539
     11.29916      7.44469     10.05374         0.075885     -0.000806      0.002655
      9.12515      8.68940     10.04602        -0.363475      0.008806     -0.003277
      9.84612      7.42549     10.06149        -0.003065     -0.113154      0.005958
     12.04184      8.68059     10.04566         0.011360     -0.036630      0.004074
     11.34279      9.92002     10.05398        -0.001732      0.004699     -0.004089
      9.22692     11.15718     10.08038         0.015983     -0.038187     -0.000612
      9.90741      9.91152     10.05926        -0.025740      0.077108      0.002714
     12.07681     11.16070     10.05526        -0.018205      0.012670     -0.000002
      3.54029      6.29354      9.99938        -0.680756     -0.124885      0.022861
      5.83026      4.91223     10.10764         0.394871     -0.588470     -0.008877
      7.79182      6.04965     10.11381         0.382625     -0.606956     -0.000111
      4.95068      8.72003     10.02255        -0.611013      1.123082      0.072846
      7.75065      8.71664     10.02441         0.428946      0.537146      0.032527
      5.93319      7.00053      9.91360         0.172121     -0.399742      0.184309
      6.10853      7.03067      7.19717        -0.008949      0.000724     -0.079552
 -----------------------------------------------------------------------------------
    total drift:                               -0.000857      0.002500     -0.004855


--------------------------------------------------------------------------------------------------------



  FREE ENERGIE OF THE ION-ELECTRON SYSTEM (eV)
  ---------------------------------------------------
  free  energy   TOTEN  =      -611.96017235 eV

  energy  without entropy=     -611.95127956  energy(sigma->0) =     -611.95572596
 


--------------------------------------------------------------------------------------------------------


    POTLOK:  cpu time    3.3819: real time    3.3827


--------------------------------------------------------------------------------------------------------


 stress matrix after NEB project (eV)
    -48.44916    -19.38430      0.05796
    -19.38435    -45.12498     -0.02534
      0.06473     -0.03413     -0.21886
  FORCES: max atom, RMS     1.280608    0.284407
  FORCE total and by dimension    2.184569    1.123082
  Stress total and by dimension   71.659937   48.449161
 writing wavefunctions
     LOOP+:  cpu time16468.8724: real time16472.9419
    4ORBIT:  cpu time    0.0000: real time    0.0000
 


 total charge     
 
# of ion       s       p       d       tot
------------------------------------------
    1        0.863   1.765   0.000   2.629
    2        0.864   1.759   0.000   2.623
    3        0.864   1.770   0.000   2.635
    4        0.862   1.761   0.000   2.623
    5        0.858   1.730   0.000   2.589
    6        0.863   1.757   0.000   2.621
    7        0.861   1.755   0.000   2.616
    8        0.848   1.742   0.000   2.590
    9        0.853   1.696   0.000   2.548
   10        0.866   1.750   0.000   2.616
   11        0.862   1.752   0.000   2.614
   12        0.858   1.734   0.000   2.592
   13        0.862   1.765   0.000   2.627
   14        0.866   1.775   0.000   2.640
   15        0.855   1.725   0.000   2.580
   16        0.864   1.766   0.000   2.630
   17        0.864   1.760   0.000   2.625
   18        0.864   1.766   0.000   2.630
   19        0.867   1.762   0.000   2.629
   20        0.869   1.786   0.000   2.655
   21        0.867   1.766   0.000   2.633
   22        0.863   1.775   0.000   2.639
   23        0.870   1.789   0.000   2.659
   24        0.875   1.787   0.000   2.662
   25        0.855   1.710   0.000   2.565
   26        0.864   1.776   0.000   2.640
   27        0.878   1.841   0.000   2.719
   28        0.875   1.761   0.000   2.636
   29        0.861   1.744   0.000   2.604
   30        0.866   1.773   0.000   2.639
   31        0.857   1.728   0.000   2.584
   32        0.868   1.782   0.000   2.651
   33        0.865   1.764   0.000   2.629
   34        0.868   1.772   0.000   2.640
   35        0.866   1.778   0.000   2.644
   36        0.865   1.768   0.000   2.633
   37        0.868   1.769   0.000   2.638
   38        0.874   1.790   0.000   2.663
   39        0.868   1.787   0.000   2.656
   40        0.862   1.762   0.000   2.624
   41        0.867   1.762   0.000   2.628
   42        0.855   1.706   0.000   2.562
   43        0.864   1.775   0.000   2.639
   44        0.861   1.765   0.000   2.626
   45        0.858   1.731   0.000   2.589
   46        0.854   1.700   0.000   2.554
   47        0.849   1.748   0.000   2.597
   48        0.862   1.760   0.000   2.622
   49        0.864   1.757   0.000   2.621
   50        0.869   1.763   0.000   2.632
   51        0.864   1.761   0.000   2.626
   52        0.864   1.764   0.000   2.628
   53        1.245   2.629   0.000   3.874
   54        1.241   2.684   0.000   3.925
   55        1.241   2.683   0.000   3.923
   56        1.228   2.662   0.000   3.890
   57        1.246   2.633   0.000   3.878
   58        0.331   0.376   5.991   6.698
   59        0.851   0.021   9.766  10.639
--------------------------------------------------
tot         52.284 105.178  15.757 173.220
 


 magnetization (x)
 
# of ion       s       p       d       tot
------------------------------------------
    1        0.000   0.001   0.000   0.001
    2       -0.000  -0.000   0.000  -0.000
    3       -0.000  -0.000   0.000  -0.001
    4        0.000   0.001   0.000   0.001
    5       -0.000  -0.001   0.000  -0.001
    6        0.000  -0.000   0.000  -0.000
    7        0.000   0.000   0.000   0.000
    8        0.000   0.004   0.000   0.004
    9        0.000  -0.003   0.000  -0.002
   10       -0.000  -0.002   0.000  -0.002
   11        0.001   0.002   0.000   0.003
   12       -0.000   0.003   0.000   0.003
   13        0.000   0.002   0.000   0.002
   14        0.000   0.001   0.000   0.001
   15       -0.001  -0.004   0.000  -0.005
   16        0.000   0.003   0.000   0.003
   17        0.000  -0.000   0.000  -0.000
   18       -0.000  -0.000   0.000  -0.000
   19       -0.000  -0.003   0.000  -0.003
   20        0.000   0.001   0.000   0.001
   21        0.000  -0.000   0.000  -0.000
   22        0.000  -0.000   0.000  -0.000
   23       -0.000  -0.000   0.000  -0.000
   24        0.000  -0.001   0.000  -0.001
   25        0.001  -0.001   0.000  -0.000
   26        0.001   0.003   0.000   0.004
   27       -0.000  -0.000   0.000  -0.000
   28       -0.000  -0.001   0.000  -0.002
   29       -0.000   0.002   0.000   0.002
   30        0.000   0.002   0.000   0.003
   31       -0.001  -0.005   0.000  -0.005
   32        0.000   0.000   0.000   0.000
   33       -0.000  -0.001   0.000  -0.001
   34       -0.000  -0.000   0.000  -0.000
   35        0.000   0.000   0.000   0.000
   36        0.000   0.000   0.000   0.000
   37       -0.000  -0.001   0.000  -0.001
   38        0.000  -0.002   0.000  -0.002
   39        0.000   0.001   0.000   0.001
   40        0.000   0.001   0.000   0.001
   41       -0.000  -0.001   0.000  -0.001
   42        0.001  -0.003   0.000  -0.003
   43        0.001   0.003   0.000   0.004
   44        0.000   0.002   0.000   0.002
   45       -0.000  -0.001   0.000  -0.001
   46        0.000  -0.002   0.000  -0.002
   47        0.000   0.005   0.000   0.005
   48        0.000   0.000   0.000   0.000
   49        0.000  -0.001   0.000  -0.001
   50       -0.000  -0.001   0.000  -0.001
   51        0.001   0.002   0.000   0.003
   52        0.000   0.000   0.000   0.000
   53        0.009   0.034   0.000   0.044
   54        0.010   0.028   0.000   0.038
   55        0.011   0.029   0.000   0.039
   56        0.002   0.023   0.000   0.026
   57        0.009   0.035   0.000   0.044
   58        0.040   0.020   3.562   3.622
   59        0.021   0.003   0.002   0.026
--------------------------------------------------
tot          0.107   0.177   3.564   3.847
 

 total amount of memory used by VASP MPI-rank0   178491. kBytes
=======================================================================

   base      :      30000. kBytes
   nonl-proj :       5359. kBytes
   fftplans  :      13453. kBytes
   grid      :      34560. kBytes
   one-center:         62. kBytes
   HF        :         23. kBytes
   nonlr-proj:      15687. kBytes
   wavefun   :      79347. kBytes
 
  
  
 General timing and accounting informations for this job:
 ========================================================
  
                  Total CPU time used (sec):    16520.820
                            User time (sec):    16493.904
                          System time (sec):       26.917
                         Elapsed time (sec):    16526.795
  
                   Maximum memory used (kb):      415712.
                   Average memory used (kb):           0.
  
                          Minor page faults:       165458
                          Major page faults:            0
                 Voluntary context switches:         1288
