 vasp.5.4.4.18Apr17-6-g9f103f2a35 (build Feb 25 2019 10:51:38) complex          
  
 executed on             LinuxIFC date 2021.06.16  07:17:51
 running on   80 total cores
 distrk:  each k-point on   40 cores,    2 groups
 distr:  one band on NCORES_PER_BAND=  40 cores,    1 groups


--------------------------------------------------------------------------------------------------------


 INCAR:
 POTCAR:    PAW_PBE C 08Apr2002                   
 POTCAR:    PAW_PBE N 08Apr2002                   
 POTCAR:    PAW_PBE Cu 22Jun2005                  
 POTCAR:    PAW_PBE Fe 06Sep2000                  

 ----------------------------------------------------------------------------- 
|                                                                             |
|           W    W    AA    RRRRR   N    N  II  N    N   GGGG   !!!           |
|           W    W   A  A   R    R  NN   N  II  NN   N  G    G  !!!           |
|           W    W  A    A  R    R  N N  N  II  N N  N  G       !!!           |
|           W WW W  AAAAAA  RRRRR   N  N N  II  N  N N  G  GGG   !            |
|           WW  WW  A    A  R   R   N   NN  II  N   NN  G    G                |
|           W    W  A    A  R    R  N    N  II  N    N   GGGG   !!!           |
|                                                                             |
|      For optimal performance we recommend to set                            |
|        NCORE= 4 - approx SQRT( number of cores)                             |
|      NCORE specifies how many cores store one orbital (NPAR=cpu/NCORE).     |
|      This setting can  greatly improve the performance of VASP for DFT.     |
|      The default,   NCORE=1            might be grossly inefficient         |
|      on modern multi-core architectures or massively parallel machines.     |
|      Do your own testing !!!!                                               |
|      Unfortunately you need to use the default for GW and RPA calculations. |
|      (for HF NCORE is supported but not extensively tested yet)             |
|                                                                             |
 ----------------------------------------------------------------------------- 


 ----------------------------------------------------------------------------- 
|                                                                             |
|           W    W    AA    RRRRR   N    N  II  N    N   GGGG   !!!           |
|           W    W   A  A   R    R  NN   N  II  NN   N  G    G  !!!           |
|           W    W  A    A  R    R  N N  N  II  N N  N  G       !!!           |
|           W WW W  AAAAAA  RRRRR   N  N N  II  N  N N  G  GGG   !            |
|           WW  WW  A    A  R   R   N   NN  II  N   NN  G    G                |
|           W    W  A    A  R    R  N    N  II  N    N   GGGG   !!!           |
|                                                                             |
|      You have enabled k-point parallelism (KPAR>1).                         |
|      This developmental code was originally  written by Paul Kent at ORNL,  |
|      and carefully double checked in Vienna.                                |
|      GW as well as linear response parallelism added by Martijn Marsman     |
|      and Georg Kresse.                                                      |
|      Carefully verify results versus KPAR=1.                                |
|      Report problems to Paul Kent and Vienna.                               |
|                                                                             |
 ----------------------------------------------------------------------------- 

 POTCAR:    PAW_PBE C 08Apr2002                   
   VRHFIN =C: s2p2                                                              
   LEXCH  = PE                                                                  
   EATOM  =   147.1560 eV,   10.8157 Ry                                         
                                                                                
   TITEL  = PAW_PBE C 08Apr2002                                                 
   LULTRA =        F    use ultrasoft PP ?                                      
   IUNSCR =        1    unscreen: 0-lin 1-nonlin 2-no                           
   RPACOR =    1.200    partial core radius                                     
   POMASS =   12.011; ZVAL   =    4.000    mass and valenz                      
   RCORE  =    1.500    outmost cutoff radius                                   
   RWIGS  =    1.630; RWIGS  =    0.863    wigner-seitz radius (au A)           
   ENMAX  =  400.000; ENMIN  =  300.000 eV                                      
   ICORE  =        2    local potential                                         
   LCOR   =        T    correct aug charges                                     
   LPAW   =        T    paw PP                                                  
   EAUG   =  644.873                                                            
   DEXC   =    0.000                                                            
   RMAX   =    1.529    core radius for proj-oper                               
   RAUG   =    1.300    factor for augmentation sphere                          
   RDEP   =    1.501    radius for radial grids                                 
   RDEPT  =    1.300    core radius for aug-charge                              
                                                                                
   Atomic configuration                                                         
    4 entries                                                                   
     n  l   j            E        occ.                                          
     1  0  0.50      -273.3789   2.0000                                         
     2  0  0.50       -13.7508   2.0000                                         
     2  1  0.50        -5.2854   2.0000                                         
     3  2  1.50        -5.4423   0.0000                                         
   Description                                                                  
     l       E           TYP  RCUT    TYP  RCUT                                 
     0    -13.7508458     23  1.200                                             
     0     -8.2022199     23  1.200                                             
     1     -5.2854383     23  1.500                                             
     1     34.0145650     23  1.500                                             
     2     -5.4423304      7  1.500                                             
  local pseudopotential read in
  partial core-charges read in
  partial kinetic energy density read in
  atomic valenz-charges read in
  non local Contribution for L=           0  read in
    real space projection operators read in
  non local Contribution for L=           0  read in
    real space projection operators read in
  non local Contribution for L=           1  read in
    real space projection operators read in
  non local Contribution for L=           1  read in
    real space projection operators read in
    PAW grid and wavefunctions read in
 
   number of l-projection  operators is LMAX  =           4
   number of lm-projection operators is LMMAX =           8
 
 POTCAR:    PAW_PBE N 08Apr2002                   
   VRHFIN =N: s2p3                                                              
   LEXCH  = PE                                                                  
   EATOM  =   264.5486 eV,   19.4438 Ry                                         
                                                                                
   TITEL  = PAW_PBE N 08Apr2002                                                 
   LULTRA =        F    use ultrasoft PP ?                                      
   IUNSCR =        1    unscreen: 0-lin 1-nonlin 2-no                           
   RPACOR =    1.200    partial core radius                                     
   POMASS =   14.001; ZVAL   =    5.000    mass and valenz                      
   RCORE  =    1.500    outmost cutoff radius                                   
   RWIGS  =    1.400; RWIGS  =    0.741    wigner-seitz radius (au A)           
   ENMAX  =  400.000; ENMIN  =  300.000 eV                                      
   ICORE  =        2    local potential                                         
   LCOR   =        T    correct aug charges                                     
   LPAW   =        T    paw PP                                                  
   EAUG   =  627.112                                                            
   DEXC   =    0.000                                                            
   RMAX   =    1.529    core radius for proj-oper                               
   RAUG   =    1.300    factor for augmentation sphere                          
   RDEP   =    1.514    radius for radial grids                                 
   RDEPT  =    1.338    core radius for aug-charge                              
                                                                                
   Atomic configuration                                                         
    4 entries                                                                   
     n  l   j            E        occ.                                          
     1  0  0.50      -384.7179   2.0000                                         
     2  0  0.50       -18.5828   2.0000                                         
     2  1  0.50        -7.0898   3.0000                                         
     3  2  1.50        -6.8029   0.0000                                         
   Description                                                                  
     l       E           TYP  RCUT    TYP  RCUT                                 
     0    -18.5828119     23  1.200                                             
     0    -13.5018863     23  1.200                                             
     1     -7.0897853     23  1.500                                             
     1      9.5240782     23  1.500                                             
     2     -6.8029130      7  1.500                                             
  local pseudopotential read in
  partial core-charges read in
  partial kinetic energy density read in
  atomic valenz-charges read in
  non local Contribution for L=           0  read in
    real space projection operators read in
  non local Contribution for L=           0  read in
    real space projection operators read in
  non local Contribution for L=           1  read in
    real space projection operators read in
  non local Contribution for L=           1  read in
    real space projection operators read in
    PAW grid and wavefunctions read in
 
   number of l-projection  operators is LMAX  =           4
   number of lm-projection operators is LMMAX =           8
 
 POTCAR:    PAW_PBE Cu 22Jun2005                  
   VRHFIN =Cu: d10 p1                                                           
   LEXCH  = PE                                                                  
   EATOM  =  1390.9808 eV,  102.2342 Ry                                         
                                                                                
   TITEL  = PAW_PBE Cu 22Jun2005                                                
   LULTRA =        F    use ultrasoft PP ?                                      
   IUNSCR =        1    unscreen: 0-lin 1-nonlin 2-no                           
   RPACOR =    2.000    partial core radius                                     
   POMASS =   63.546; ZVAL   =   11.000    mass and valenz                      
   RCORE  =    2.300    outmost cutoff radius                                   
   RWIGS  =    2.200; RWIGS  =    1.164    wigner-seitz radius (au A)           
   ENMAX  =  295.446; ENMIN  =  221.585 eV                                      
   ICORE  =        3    local potential                                         
   LCOR   =        T    correct aug charges                                     
   LPAW   =        T    paw PP                                                  
   EAUG   =  586.980                                                            
   DEXC   =    0.000                                                            
   RMAX   =    2.344    core radius for proj-oper                               
   RAUG   =    1.300    factor for augmentation sphere                          
   RDEP   =    2.302    radius for radial grids                                 
   RDEPT  =    1.771    core radius for aug-charge                              
                                                                                
   Atomic configuration                                                         
    9 entries                                                                   
     n  l   j            E        occ.                                          
     1  0  0.50     -8850.2468   2.0000                                         
     2  0  0.50     -1062.3498   2.0000                                         
     2  1  1.50      -916.8226   6.0000                                         
     3  0  0.50      -114.6929   2.0000                                         
     3  1  1.50       -72.1325   6.0000                                         
     3  2  2.50        -5.0394  10.0000                                         
     4  0  0.50        -4.6097   1.0000                                         
     4  1  0.50        -4.0817   0.0000                                         
     4  3  2.50        -1.3606   0.0000                                         
   Description                                                                  
     l       E           TYP  RCUT    TYP  RCUT                                 
     2     -5.0393973     23  2.200                                             
     2     10.8846608     23  2.200                                             
     0     -4.6097109     23  2.200                                             
     0      8.2520465     23  2.200                                             
     1     -2.7211652     23  2.200                                             
     1     21.7055443     23  2.200                                             
     3      2.7211652     23  2.300                                             
  local pseudopotential read in
  partial core-charges read in
  partial kinetic energy density read in
  atomic valenz-charges read in
  non local Contribution for L=           2  read in
    real space projection operators read in
  non local Contribution for L=           2  read in
    real space projection operators read in
  non local Contribution for L=           0  read in
    real space projection operators read in
  non local Contribution for L=           0  read in
    real space projection operators read in
  non local Contribution for L=           1  read in
    real space projection operators read in
  non local Contribution for L=           1  read in
    real space projection operators read in
    PAW grid and wavefunctions read in
 
   number of l-projection  operators is LMAX  =           6
   number of lm-projection operators is LMMAX =          18
 
 POTCAR:    PAW_PBE Fe 06Sep2000                  
   VRHFIN =Fe:  d7 s1                                                           
   LEXCH  = PE                                                                  
   EATOM  =   594.3153 eV,   43.6809 Ry                                         
                                                                                
   TITEL  = PAW_PBE Fe 06Sep2000                                                
   LULTRA =        F    use ultrasoft PP ?                                      
   IUNSCR =        1    unscreen: 0-lin 1-nonlin 2-no                           
   RPACOR =    2.000    partial core radius                                     
   POMASS =   55.847; ZVAL   =    8.000    mass and valenz                      
   RCORE  =    2.300    outmost cutoff radius                                   
   RWIGS  =    2.460; RWIGS  =    1.302    wigner-seitz radius (au A)           
   ENMAX  =  267.882; ENMIN  =  200.911 eV                                      
   RCLOC  =    1.701    cutoff for local pot                                    
   LCOR   =        T    correct aug charges                                     
   LPAW   =        T    paw PP                                                  
   EAUG   =  511.368                                                            
   DEXC   =    0.000                                                            
   RMAX   =    2.356    core radius for proj-oper                               
   RAUG   =    1.300    factor for augmentation sphere                          
   RDEP   =    2.442    radius for radial grids                                 
   RDEPT  =    1.890    core radius for aug-charge                              
                                                                                
   Atomic configuration                                                         
    9 entries                                                                   
     n  l   j            E        occ.                                          
     1  0  0.50     -6993.8440   2.0000                                         
     2  0  0.50      -814.6047   2.0000                                         
     2  1  1.50      -693.3689   6.0000                                         
     3  0  0.50       -89.4732   2.0000                                         
     3  1  1.50       -55.6373   6.0000                                         
     3  2  2.50        -3.8151   7.0000                                         
     4  0  0.50        -4.2551   1.0000                                         
     4  1  1.50        -3.4015   0.0000                                         
     4  3  2.50        -1.3606   0.0000                                         
   Description                                                                  
     l       E           TYP  RCUT    TYP  RCUT                                 
     2     -3.8151135     23  2.300                                             
     2     -5.1756961     23  2.300                                             
     0     -4.2550963     23  2.300                                             
     0      7.2035603     23  2.300                                             
     1     -2.7211652     23  2.300                                             
     1     18.4316424     23  2.300                                             
  local pseudopotential read in
  partial core-charges read in
  partial kinetic energy density read in
  atomic valenz-charges read in
  non local Contribution for L=           2  read in
    real space projection operators read in
  non local Contribution for L=           2  read in
    real space projection operators read in
  non local Contribution for L=           0  read in
    real space projection operators read in
  non local Contribution for L=           0  read in
    real space projection operators read in
  non local Contribution for L=           1  read in
    real space projection operators read in
  non local Contribution for L=           1  read in
    real space projection operators read in
    PAW grid and wavefunctions read in
 
   number of l-projection  operators is LMAX  =           6
   number of lm-projection operators is LMMAX =          18
 

 ----------------------------------------------------------------------------- 
|                                                                             |
|  ADVICE TO THIS USER RUNNING 'VASP/VAMP'   (HEAR YOUR MASTER'S VOICE ...):  |
|                                                                             |
|      You have a (more or less) 'large supercell' and for larger cells       |
|      it might be more efficient to use real space projection opertators     |
|      So try LREAL= Auto  in the INCAR   file.                               |
|      Mind:          For very  accurate calculation you might also keep the  |
|      reciprocal projection scheme          (i.e. LREAL=.FALSE.)             |
|                                                                             |
 ----------------------------------------------------------------------------- 

  PAW_PBE C 08Apr2002                   :
 energy of atom  1       EATOM= -147.1560
 kinetic energy error for atom=    0.0076 (will be added to EATOM!!)
  PAW_PBE N 08Apr2002                   :
 energy of atom  2       EATOM= -264.5486
 kinetic energy error for atom=    0.0138 (will be added to EATOM!!)
  PAW_PBE Cu 22Jun2005                  :
 energy of atom  3       EATOM=-1390.9808
 kinetic energy error for atom=    0.0043 (will be added to EATOM!!)
  PAW_PBE Fe 06Sep2000                  :
 energy of atom  4       EATOM= -594.3153
 kinetic energy error for atom=    0.0026 (will be added to EATOM!!)
 
 
 POSCAR:  C  N Cu Fe                             
  positions in cartesian coordinates
  No initial velocities read in
 exchange correlation table for  LEXCH =        8
   RHO(1)=    0.500       N(1)  =     2000
   RHO(2)=  100.500       N(2)  =     4000

 VTST: version 3.2, (02/03/18)

 CHAIN: initializing optimizer
 
 OPT: Using VASP Conjugate-Gradient optimizer
 CHAIN: Read ICHAIN            0
 
 POSCAR:  C  N Cu Fe                             
  positions in cartesian coordinates
  No initial velocities read in
 


--------------------------------------------------------------------------------------------------------


 ion  position               nearest neighbor table
   1  0.228  1.000  0.500-   3 1.46   4 1.46  18 1.47
   2  0.058  0.099  0.500-   7 1.42   3 1.43  33 1.45
   3  0.116  1.000  0.500-  16 1.43   2 1.43   1 1.46
   4  0.283  0.104  0.500-  20 1.46   1 1.46   5 1.46
   5  0.222  0.205  0.499-  50 1.37   7 1.45   4 1.46
   6  0.051  0.298  0.500-  10 1.41  37 1.42   7 1.43
   7  0.111  0.200  0.500-   2 1.42   6 1.43   5 1.45
   8  0.210  0.399  0.500-  50 1.37  10 1.40  11 1.42
   9  0.048  0.500  0.500-  41 1.41  10 1.42  14 1.42
  10  0.102  0.400  0.500-   8 1.40   6 1.41   9 1.42
  11  0.264  0.500  0.499-  54 1.34  12 1.42   8 1.42
  12  0.209  0.600  0.500-  51 1.38  14 1.39  11 1.42
  13  0.051  0.701  0.500-  14 1.41  45 1.42  17 1.43
  14  0.102  0.600  0.500-  12 1.39  13 1.41   9 1.42
  15  0.223  0.794  0.500-  51 1.39  17 1.45  18 1.46
  16  0.058  0.900  0.500-  17 1.42   3 1.43  49 1.45
  17  0.112  0.799  0.500-  16 1.42  13 1.43  15 1.45
  18  0.283  0.895  0.500-  15 1.46  28 1.46   1 1.47
  19  0.558  1.000  0.500-  29 1.43  22 1.43  21 1.43
  20  0.395  0.104  0.500-  52 1.39  21 1.45   4 1.46
  21  0.448  0.999  0.500-  19 1.43  28 1.45  20 1.45
  22  0.614  0.100  0.500-  23 1.42  19 1.43  31 1.43
  23  0.558  0.199  0.500-  52 1.38  22 1.42  24 1.45
  24  0.613  0.302  0.499-  53 1.40  35 1.42  23 1.45
  25  0.609  0.500  0.499-  53 1.38  55 1.41  39 1.45
  26  0.614  0.698  0.500-  55 1.41  43 1.41  27 1.44
  27  0.559  0.801  0.500-  56 1.39  29 1.42  26 1.44
  28  0.395  0.895  0.500-  56 1.40  21 1.45  18 1.46
  29  0.614  0.900  0.500-  27 1.42  19 1.43  47 1.43
  30  0.891  1.000  0.500-  33 1.42  49 1.42  32 1.44
  31  0.724  0.099  0.500-  36 1.41  32 1.42  22 1.43
  32  0.781  1.000  0.500-  47 1.42  31 1.42  30 1.44
  33  0.947  0.099  0.500-  30 1.42  34 1.43   2 1.45
  34  0.889  0.199  0.500-  37 1.41  33 1.43  36 1.43
  35  0.722  0.299  0.500-  24 1.42  40 1.42  36 1.43
  36  0.779  0.199  0.500-  31 1.41  35 1.43  34 1.43
  37  0.942  0.299  0.500-  34 1.41   6 1.42  38 1.43
  38  0.885  0.399  0.500-  41 1.42  40 1.42  37 1.43
  39  0.720  0.500  0.500-  44 1.43  40 1.43  25 1.45
  40  0.776  0.400  0.500-  35 1.42  38 1.42  39 1.43
  41  0.940  0.500  0.500-   9 1.41  42 1.42  38 1.42
  42  0.886  0.600  0.500-  41 1.42  44 1.42  45 1.43
  43  0.723  0.701  0.500-  26 1.41  44 1.42  48 1.43
  44  0.777  0.600  0.500-  42 1.42  43 1.42  39 1.43
  45  0.942  0.701  0.500-  46 1.41  13 1.42  42 1.43
  46  0.889  0.801  0.500-  45 1.41  49 1.43  48 1.43
  47  0.725  0.901  0.500-  48 1.41  32 1.42  29 1.43
  48  0.779  0.801  0.500-  47 1.41  43 1.43  46 1.43
  49  0.947  0.900  0.500-  30 1.42  46 1.43  16 1.45
  50  0.268  0.306  0.499-   8 1.37   5 1.37  57 1.98
  51  0.270  0.692  0.500-  12 1.38  15 1.39  58 1.94
  52  0.452  0.199  0.499-  23 1.38  20 1.39  57 1.98
  53  0.559  0.401  0.499-  25 1.38  24 1.40  57 1.99
  54  0.366  0.505  0.499-  11 1.34  58 1.82  57 1.93
  55  0.557  0.601  0.499-  25 1.41  26 1.41  58 1.96
  56  0.452  0.799  0.500-  27 1.39  28 1.40  58 1.96
  57  0.412  0.355  0.499-  54 1.93  50 1.98  52 1.98  53 1.99
  58  0.413  0.645  0.499-  54 1.82  51 1.94  56 1.96  55 1.96
 
  LATTYP: Found a triclinic cell.
 ALAT       =    34.1580519312
 B/A-ratio  =     0.3588407215
 C/A-ratio  =     0.5832621849
 COS(alpha) =     0.0000471239
 COS(beta)  =     0.5834076759
 COS(gamma) =     0.7173759094
  
  Lattice vectors:
  
 A1 = ( -12.9935059504,  24.5155345906, -19.9230991212)
 A2 = (   0.0107179038,  12.2572953141,   0.0000000000)
 A3 = (  -0.0058417579,   0.0009439624, -19.9230991212)


Analysis of symmetry for initial positions (statically):
=====================================================================
 Subroutine PRICEL returns:
 Original cell was already a primitive cell.
 

 Routine SETGRP: Setting up the symmetry group for a 
 triclinic supercell.


 Subroutine GETGRP returns: Found  1 space group operations
 (whereof  1 operations were pure point group operations)
 out of a pool of  2 trial point group operations.


The static configuration has the point symmetry C_1 .


Analysis of symmetry for dynamics (positions and initial velocities):
=====================================================================
 Subroutine PRICEL returns:
 Original cell was already a primitive cell.
 

 Routine SETGRP: Setting up the symmetry group for a 
 triclinic supercell.


 Subroutine GETGRP returns: Found  1 space group operations
 (whereof  1 operations were pure point group operations)
 out of a pool of  2 trial point group operations.


The dynamic configuration has the point symmetry C_1 .


Analysis of structural, dynamic, and magnetic symmetry:
=====================================================================
 Subroutine PRICEL returns:
 Original cell was already a primitive cell.
 

 Routine SETGRP: Setting up the symmetry group for a 
 triclinic supercell.


 Subroutine GETGRP returns: Found  1 space group operations
 (whereof  1 operations were pure point group operations)
 out of a pool of  2 trial point group operations.


The magnetic configuration has the point symmetry C_1 .


 Subroutine INISYM returns: Found  1 space group operations
 (whereof  1 operations are pure point group operations),
 and found     1 'primitive' translations

 
 
 KPOINTS: KPOINTS created by Atomic Simulation Env

Automatic generation of k-mesh.
Space group operators:
 irot       det(A)        alpha          n_x          n_y          n_z        tau_x        tau_y        tau_z
    1     1.000000     0.000001     1.000000     0.000000     0.000000     0.000000     0.000000     0.000000
 
 Subroutine IBZKPT returns following result:
 ===========================================
 
 Found      2 irreducible k-points:
 
 Following reciprocal coordinates:
            Coordinates               Weight
  0.250000  0.250000  0.000000      2.000000
 -0.250000  0.250000 -0.000000      2.000000
 
 Following cartesian coordinates:
            Coordinates               Weight
  0.019217  0.020379 -0.000005      2.000000
 -0.019217  0.020413  0.000007      2.000000
 
 
 Subroutine IBZKPT_HF returns following result:
 ==============================================
 
 Found      4 k-points in 1st BZ
 the following      4 k-points will be used (e.g. in the exchange kernel)
 Following reciprocal coordinates:   # in IRBZ
  0.250000  0.250000  0.000000    0.25000000   1 t-inv F
 -0.250000  0.250000 -0.000000    0.25000000   2 t-inv F
 -0.250000 -0.250000 -0.000000    0.25000000   1 t-inv T
  0.250000 -0.250000  0.000000    0.25000000   2 t-inv T


--------------------------------------------------------------------------------------------------------




 Dimension of arrays:
   k-points           NKPTS =      2   k-points in BZ     NKDIM =      4   number of bands    NBANDS=    159
   number of dos      NEDOS =    301   number of ions     NIONS =     58
   non local maximal  LDIM  =      6   non local SUM 2l+1 LMDIM =     18
   total plane-waves  NPLWV = ******
   max r-space proj   IRMAX =      1   max aug-charges    IRDMAX=  14730
   dimension x,y,z NGX =    96 NGY =   90 NGZ =  150
   dimension x,y,z NGXF=   192 NGYF=  180 NGZF=  300
   support grid    NGXF=   192 NGYF=  180 NGZF=  300
   ions per type =              49   7   1   1
   NGX,Y,Z   is equivalent  to a cutoff of  12.27, 12.21, 12.52 a.u.
   NGXF,Y,Z  is equivalent  to a cutoff of  24.54, 24.41, 25.03 a.u.

 SYSTEM =  unknown system                          
 POSCAR =   C  N Cu Fe                             

 Startparameter for this run:
   NWRITE =      2    write-flag & timer
   PREC   = accura    normal or accurate (medium, high low for compatibility)
   ISTART =      1    job   : 0-new  1-cont  2-samecut
   ICHARG =      0    charge: 1-file 2-atom 10-const
   ISPIN  =      2    spin polarized calculation?
   LNONCOLLINEAR =      F non collinear calculations
   LSORBIT =      F    spin-orbit coupling
   INIWAV =      1    electr: 0-lowe 1-rand  2-diag
   LASPH  =      T    aspherical Exc in radial PAW
   METAGGA=      F    non-selfconsistent MetaGGA calc.

 Electronic Relaxation 1
   ENCUT  =  500.0 eV  36.75 Ry    6.06 a.u.  23.72 22.35 36.32*2*pi/ulx,y,z
   ENINI  =  500.0     initial cutoff
   ENAUG  =  644.9 eV  augmentation charge cutoff
   NELM   =    250;   NELMIN=  2; NELMDL=  0     # of ELM steps 
   EDIFF  = 0.1E-03   stopping-criterion for ELM
   LREAL  =      F    real-space projection
   NLSPLINE    = F    spline interpolate recip. space projectors
   LCOMPAT=      F    compatible to vasp.4.4
   GGA_COMPAT  = T    GGA compatible to vasp.4.4-vasp.4.6
   LMAXPAW     = -100 max onsite density
   LMAXMIX     =    2 max onsite mixed and CHGCAR
   VOSKOWN=      0    Vosko Wilk Nusair interpolation
   ROPT   =    0.00000   0.00000   0.00000   0.00000
 Ionic relaxation
   EDIFFG = -.3E-01   stopping-criterion for IOM
   NSW    =      0    number of steps for IOM
   NBLOCK =      1;   KBLOCK =      1    inner block; outer block 
   IBRION =     -1    ionic relax: 0-MD 1-quasi-New 2-CG
   NFREE  =      1    steps in history (QN), initial steepest desc. (CG)
   ISIF   =      2    stress and relaxation
   IWAVPR =     10    prediction:  0-non 1-charg 2-wave 3-comb
   ISYM   =      3    0-nonsym 1-usesym 2-fastsym
   LCORR  =      T    Harris-Foulkes like correction to forces

   POTIM  = 0.5000    time-step for ionic-motion
   TEIN   =    0.0    initial temperature
   TEBEG  =    0.0;   TEEND  =   0.0 temperature during run
   SMASS  =  -3.00    Nose mass-parameter (am)
   estimated Nose-frequenzy (Omega)   =  0.10E-29 period in steps =****** mass=  -0.387E-26a.u.
   SCALEE = 1.0000    scale energy and forces
   NPACO  =    256;   APACO  = 16.0  distance and # of slots for P.C.
   PSTRESS=    0.0 pullay stress

  Mass of Ions in am
   POMASS =  12.01 14.00 63.55 55.85
  Ionic Valenz
   ZVAL   =   4.00  5.00 11.00  8.00
  Atomic Wigner-Seitz radii
   RWIGS  =  -1.00 -1.00 -1.00 -1.00
  virtual crystal weights 
   VCA    =   1.00  1.00  1.00  1.00
   NELECT =     250.0000    total number of electrons
   NUPDOWN=      -1.0000    fix difference up-down

 DOS related values:
   EMIN   =  10.00;   EMAX   =-10.00  energy-range for DOS
   EFERMI =   0.00
   ISMEAR =     0;   SIGMA  =   0.10  broadening in eV -4-tet -1-fermi 0-gaus

 Electronic relaxation 2 (details)
   IALGO  =     53    algorithm
   LDIAG  =      T    sub-space diagonalisation (order eigenvalues)
   LSUBROT=      F    optimize rotation matrix (better conditioning)
   TURBO    =      0    0=normal 1=particle mesh
   IRESTART =      0    0=no restart 2=restart with 2 vectors
   NREBOOT  =      0    no. of reboots
   NMIN     =      0    reboot dimension
   EREF     =   0.00    reference energy to select bands
   IMIX   =      4    mixing-type and parameters
     AMIX     =   0.40;   BMIX     =  1.00
     AMIX_MAG =   1.60;   BMIX_MAG =  1.00
     AMIN     =   0.10
     WC   =   100.;   INIMIX=   1;  MIXPRE=   1;  MAXMIX= -45

 Intra band minimization:
   WEIMIN = 0.0000     energy-eigenvalue tresh-hold
   EBREAK =  0.16E-06  absolut break condition
   DEPER  =   0.30     relativ break condition  

   TIME   =   0.20     timestep for ELM

  volume/ion in A,a.u.               =      54.77       369.63
  Fermi-wavevector in a.u.,A,eV,Ry     =   0.701545  1.325727  6.696307  0.492165
  Thomas-Fermi vector in A             =   1.786000
 
 Write flags
   LWAVE        =      T    write WAVECAR
   LDOWNSAMPLE  =      F    k-point downsampling of WAVECAR
   LCHARG       =      T    write CHGCAR
   LVTOT        =      F    write LOCPOT, total local potential
   LVHAR        =      F    write LOCPOT, Hartree potential only
   LELF         =      F    write electronic localiz. function (ELF)
   LORBIT       =     11    0 simple, 1 ext, 2 COOP (PROOUT), +10 PAW based schemes


 Dipole corrections
   LMONO  =      F    monopole corrections only (constant potential shift)
   LDIPOL =      T    correct potential (dipole corrections)
   IDIPOL =      3    1-x, 2-y, 3-z, 4-all directions 
   EPSILON=  1.0000000 bulk dielectric constant

 Exchange correlation treatment:
   GGA     =    PE    GGA type
   LEXCH   =     8    internal setting for exchange type
   VOSKOWN=      0    Vosko Wilk Nusair interpolation
   EXXOEP  =     0    0=HF, 1=EXX-LHF (local Hartree Fock) 2=EXX OEP
   LHFCALC =     T    Hartree Fock is set to
   LSYMGRAD=     F    symmetrize gradient (conserves proper symmetry)
   PRECFOCK=normal    Normal, Fast or Accurate (Low or Medium for compatibility)
   LRHFCALC=     F    long range Hartree Fock
   LRSCOR  =     F    long range correlation only (use DFT for short range part)
   LTHOMAS =     F    Thomas Fermi screening in HF
   LMODELHF=     F    short range full HF, long range fraction AEXX
   ENCUT4O =  -1.0   cutoff for four orbital integrals eV
   LMAXFOCK=     4    L truncation for augmentation on plane wave grid
   LMAXFOCKAE=  -1    L truncation for all-electron charge restoration on plane wave grid
   NMAXFOCKAE=   1    number of basis functions for all-electron charge restoration
   LFOCKAEDFT=     F  apply the AE augmentation even for DFT
   NKREDX  =     1    reduce k-point grid by
   NKREDY  =     1    reduce k-point grid by
   NKREDZ  =     1    reduce k-point grid by
   SHIFTRED=     F    shift reduced grid of Gamma
   HFKIDENT=     F    idential grid for each k-point
   ODDONLY =     F    use only odd q-grid points
   EVENONLY=     F    use only even q-grid points
   HFALPHA =   -1.0000 decay constant for conv. correction
   MCALPHA =    0.0000 extent of test-charge in conv. correction in multipole expansion
   AEXX    =    0.2500 exact exchange contribution
   HFSCREEN=    0.2000 screening length (either q_TF or 0.3 A-1)
   HFSCREENC=   0.2000 screening length for correlation (either q_TF or 0.3 A-1)
   HFRCUT  =    0.0000 spherical cutoff for potential kernel
   ALDAX   =    0.7500 LDA exchange part
   AGGAX   =    0.7500 GGA exchange part
   ALDAC   =    1.0000 LDA correlation
   AGGAC   =    1.0000 GGA correlation
   ENCUTFOCK=  -1.0 apply spherical cutoff to Coloumb kernel
   NBANDSGWLOW=     1    first orbital included in HF term
   NBLOCK_FOCK=    64    blocking factor in FOCK_ACC
 Linear response parameters
   LEPSILON=     F    determine dielectric tensor
   LRPA    =     F    only Hartree local field effects (RPA)
   LNABLA  =     F    use nabla operator in PAW spheres
   LVEL    =     F    velocity operator in full k-point grid
   LINTERFAST=   F  fast interpolation
   KINTER  =     0    interpolate to denser k-point grid
   CSHIFT  =0.1000    complex shift for real part using Kramers Kronig
   OMEGAMAX=  -1.0    maximum frequency
   DEG_THRESHOLD= 0.2000000E-02 threshold for treating states as degnerate
   RTIME   =   -0.100 relaxation time in fs
  (WPLASMAI=    0.000 imaginary part of plasma frequency in eV, 0.658/RTIME)
   DFIELD  = 0.0000000 0.0000000 0.0000000 field for delta impulse in time
 
 Orbital magnetization related:
   ORBITALMAG=     F  switch on orbital magnetization
   LCHIMAG   =     F  perturbation theory with respect to B field
   DQ        =  0.001000  dq finite difference perturbation B field
   LLRAUG    =     F  two centre corrections for induced B field



--------------------------------------------------------------------------------------------------------


 Static calculation
 charge density and potential will be updated during run
 spin polarized calculation
 Conjugate gradient for all bands (Freysoldt, et al. PRB 79, 241103 (2009))
 perform sub-space diagonalisation
    before iterative eigenvector-optimisation
 modified Broyden-mixing scheme, WC =      100.0
 initial mixing is a Kerker type mixing with AMIX =  0.4000 and BMIX =      1.0000
 Hartree-type preconditioning will be used
 using additional bands           34
 reciprocal scheme for non local part
 use partial core corrections
 no Harris-corrections to forces 
 use gradient corrections 
 use of overlap-Matrix (Vanderbilt PP)
 Gauss-broadening in eV      SIGMA  =   0.10


--------------------------------------------------------------------------------------------------------


  energy-cutoff  :      500.00
  volume of cell :     3176.87
      direct lattice vectors                 reciprocal lattice vectors
    13.009100000  0.000000000  0.000000000     0.076869268 -0.000067215 -0.000022542
     0.010717904 12.257295314  0.000000000     0.000000000  0.081584067  0.000003865
     0.005841758 -0.000943962 19.923099121     0.000000000  0.000000000  0.050192994

  length of vectors
    13.009100000 12.257300000 19.923100000     0.076869301  0.081584067  0.050192994


 
 old parameters found on file WAVECAR:
  energy-cutoff  :      500.00
  volume of cell :     3176.87
      direct lattice vectors                 reciprocal lattice vectors
    13.009100000  0.000000000  0.000000000     0.076869268 -0.000067215 -0.000022542
     0.010717904 12.257295314  0.000000000     0.000000000  0.081584067  0.000003865
     0.005841758 -0.000943962 19.923099121     0.000000000  0.000000000  0.050192994

  length of vectors

 
 k-points in units of 2pi/SCALE and weight: KPOINTS created by Atomic Simulation Env
   0.01921732  0.02037921 -0.00000467       0.500
  -0.01921732  0.02041282  0.00000660       0.500
 
 k-points in reciprocal lattice and weights: KPOINTS created by Atomic Simulation Env
   0.25000000  0.25000000  0.00000000       0.500
  -0.25000000  0.25000000 -0.00000000       0.500
 
 position of ions in fractional coordinates (direct lattice) 
   0.22815246  0.99964133  0.49979493
   0.05797666  0.09922757  0.49998471
   0.11582754  0.99965198  0.49993064
   0.28254510  0.10398874  0.49956446
   0.22227416  0.20483303  0.49948950
   0.05098837  0.29849258  0.50005295
   0.11080790  0.20044377  0.49985698
   0.20992957  0.39886018  0.49956025
   0.04788356  0.49970135  0.50028117
   0.10230531  0.39956085  0.50005575
   0.26371465  0.49988618  0.49942856
   0.20934975  0.60001348  0.49981918
   0.05119685  0.70112337  0.50012099
   0.10230865  0.59992681  0.50017050
   0.22320886  0.79425272  0.49982318
   0.05843940  0.90007991  0.50000650
   0.11176817  0.79867342  0.49999454
   0.28275916  0.89503261  0.49982033
   0.55825757  0.99992767  0.50004859
   0.39486473  0.10380120  0.49957751
   0.44796101  0.99928652  0.49988020
   0.61426829  0.09988396  0.49998916
   0.55807538  0.19936270  0.49959987
   0.61328320  0.30243350  0.49949466
   0.60883329  0.50010224  0.49938919
   0.61388592  0.69838643  0.49974287
   0.55901398  0.80057481  0.49991840
   0.39493488  0.89539569  0.49984020
   0.61449947  0.90007596  0.50012034
   0.89106881  0.99981584  0.50008914
   0.72438672  0.09942662  0.50011822
   0.78057369  0.99994643  0.50013551
   0.94665971  0.09949300  0.50010122
   0.88869068  0.19859681  0.50015877
   0.72222636  0.29930458  0.49990831
   0.77861824  0.19903321  0.50011290
   0.94163249  0.29900165  0.50018210
   0.88543265  0.39943736  0.50020122
   0.72016169  0.50034468  0.49984532
   0.77606002  0.40014024  0.50000048
   0.93959836  0.49983691  0.50027049
   0.88566782  0.60045702  0.50015580
   0.72259575  0.70085685  0.49994598
   0.77651927  0.60005883  0.49999501
   0.94204232  0.70079105  0.50011101
   0.88900530  0.80124741  0.50004895
   0.72458553  0.90058316  0.50012155
   0.77894708  0.80097018  0.50005352
   0.94699961  0.90007246  0.50004442
   0.26781499  0.30556004  0.49915558
   0.26993115  0.69246012  0.49960300
   0.45222308  0.19897737  0.49933098
   0.55902033  0.40069950  0.49905214
   0.36622699  0.50487916  0.49886624
   0.55717459  0.60082554  0.49931765
   0.45233643  0.79902947  0.49975037
   0.41226855  0.35527351  0.49873388
   0.41262797  0.64517043  0.49911415
 
 position of ions in cartesian coordinates  (Angst):
   2.98169187 12.25242719  9.95746384
   0.75820842  1.21578971  9.96124485
   1.52044664 12.25255766  9.96016772
   3.67969032  1.27414910  9.95287231
   2.89670009  2.51022743  9.95137878
   0.66943316  3.65823963  9.96260452
   1.44657943  2.45642665  9.95870019
   2.73818797  4.88847549  9.95278832
   0.63120032  6.12451475  9.96715141
   1.33810361  4.89706326  9.96266028
   3.43896554  6.12678111  9.95016461
   2.73280249  7.35407059  9.95794703
   0.67646104  8.59340409  9.96396006
   1.34029530  7.35300788  9.96494647
   2.91517901  9.73491828  9.95802673
   0.77281186 11.03207323  9.96167906
   1.46548420  9.78910398  9.96144076
   3.69095488 10.97020722  9.95797000
   7.27606678 12.25593675  9.96251757
   5.14086571  1.27185039  9.95313223
   5.84119996 12.24807810  9.95916286
   7.99506903  1.22383525  9.96133368
   7.26511369  2.44317592  9.95357767
   7.98442183  3.70654516  9.95148160
   7.92865055  6.12942949  9.94938024
   7.99650797  8.55985700  9.95642679
   7.28376971  9.81241002  9.95992392
   5.15026408 10.97465762  9.95836589
   8.00665356 11.03202470  9.96394718
  11.60564064 12.25456600  9.96332555
   9.42760650  1.21822939  9.96390490
  10.16820013 12.25616653  9.96424929
  12.31917862  1.21904301  9.96356609
  11.56611631  2.43378766  9.96471275
   9.40164319  3.66819274  9.95972289
  10.13417735  2.43913671  9.96379883
  12.25591784  3.66447943  9.96517746
  11.52588503  4.89554948  9.96555840
   9.37693812  6.13240071  9.95846791
  10.10305194  4.90416516  9.96155917
  12.23160875  6.12617640  9.96693851
  11.53109868  7.35950692  9.96465368
   9.41075261  8.59013746  9.96047329
  10.11116902  7.35462626  9.96145018
  12.26555524  8.58933082  9.96376127
  11.57666767  9.82065404  9.96252473
   9.43877961 11.03824162  9.96397124
  10.14490640  9.81725595  9.96261583
  12.33218061 11.03198193  9.96243453
   3.49022289  3.74486845  9.94472608
   3.52190160  8.48721657  9.95364011
   5.88806491  2.43845303  9.94822053
   7.27956138  4.91102099  9.94266519
   4.77260907  6.18798204  9.93896149
   7.25769647  7.36402472  9.94795494
   5.89597325  9.79346849  9.95657606
   5.36996403  4.35422155  9.93632451
   5.37774909  7.90757334  9.94390076
 


--------------------------------------------------------------------------------------------------------


 k-point  1 :   0.2500 0.2500 0.0000  plane waves:   80671
 k-point  2 :  -0.2500 0.2500-0.0000  plane waves:   80660

 maximum and minimum number of plane-waves per node :      2042     1982

 maximum number of plane-waves:     80671
 maximum index in each direction: 
   IXMAX=   23   IYMAX=   22   IZMAX=   36
   IXMIN=  -23   IYMIN=  -22   IZMIN=  -36


 parallel 3D FFT for wavefunctions:
    minimum data exchange during FFTs selected (reduces bandwidth)
 parallel 3D FFT for charge:
    minimum data exchange during FFTs selected (reduces bandwidth)


 FFT grid for exact exchange (Hartree Fock) 
  NGX = 72; NGY = 70; NGZ =112

 
 Radii for the augmentation spheres in the non-local exchange
 for species   1 augmentation radius   0.874 (default was   0.699)
       energy cutoff for augmentation   2000.0
 for species   2 augmentation radius   0.886 (default was   0.709)
       energy cutoff for augmentation   2000.0
 for species   3 augmentation radius   1.179 (default was   0.943)
       energy cutoff for augmentation   2000.0
 for species   4 augmentation radius   1.263 (default was   1.010)
       energy cutoff for augmentation   2000.0

 real space projection operators:
  total allocation   :       2451.94 KBytes
  max/ min on nodes  :        106.27         17.93

 Maximum index for augmentation-charges in exchange           78
  SETUP_FOCK is finished

 total amount of memory used by VASP MPI-rank0   139814. kBytes
=======================================================================

   base      :      30000. kBytes
   nonl-proj :       4264. kBytes
   fftplans  :      11188. kBytes
   grid      :      29312. kBytes
   one-center:         62. kBytes
   HF        :         23. kBytes
   nonlr-proj:       1590. kBytes
   wavefun   :      63375. kBytes
 
     INWAV:  cpu time    2.7323: real time    5.5036
 Broyden mixing: mesh for mixing (old mesh)
   NGX = 47   NGY = 45   NGZ = 73
  (NGX  =192   NGY  =180   NGZ  =300)
  gives a total of 154395 points

 charge density for first step will be calculated from the start-wavefunctions


--------------------------------------------------------------------------------------------------------


 Maximum index for augmentation-charges          704 (set IRDMAX)


--------------------------------------------------------------------------------------------------------


 initial charge from wavefunction
 First call to EWALD:  gamma=   0.121
 Maximum number of real-space cells 3x 3x 2
 Maximum number of reciprocal cells 2x 2x 4

    FEWALD:  cpu time    0.0025: real time    0.0026


--------------------------------------- Iteration      1(   1)  ---------------------------------------


    POTLOK:  cpu time    0.8354: real time    0.8382
    SETDIJ:  cpu time    0.9831: real time    0.9857
    TRIAL :  cpu time  168.0838: real time  168.6895
    CORREC:  cpu time    0.0015: real time    0.0015
    CHARGE:  cpu time    0.7575: real time    0.7596
    --------------------------------------------
      LOOP:  cpu time  170.6818: real time  171.2967

 eigenvalue-minimisations  :     0
 total energy-change (2. order) :-0.6015947E+03  (-0.6342778E+00)
 number of electron     250.0000006 magnetization       1.5184655
 augmentation part       17.3203584 magnetization       1.0016940

 DIPCOR: dipole corrections for dipol
 direction  3 min pos     1,
 dipolmoment           0.000000     -0.000000      0.000078 electrons x Angstroem
 Tr[quadrupol]     -6785.708820

 energy correction for charged system         0.000000 eV
 dipol+quadrupol energy correction            0.000000 eV
 added-field ion interaction          0.000000 eV  (added to PSCEN)


 Free energy of the ion-electron system (eV)
  ---------------------------------------------------
  alpha Z        PSCENC =       103.09047734
  Ewald energy   TEWEN  =     40810.83209001
  -Hartree energ DENC   =    -50279.86741712
  -exchange      EXHF   =       578.21859519
  -V(xc)+E(xc)   XCENC  =       663.09360434
  PAW double counting   =     27252.00614355   -27390.76797465
  entropy T*S    EENTRO =        -0.03352203
  eigenvalues    EBANDS =     -3273.21427516
  atomic energy  EATOM  =     10935.05270585
  ---------------------------------------------------
  free energy    TOTEN  =      -601.59469803 eV

  energy without entropy =     -601.56117600  energy(sigma->0) =     -601.57793702
  exchange ACFDT corr.  =        -0.06598435  see jH, gK, PRB 81, 115126


--------------------------------------------------------------------------------------------------------




--------------------------------------- Iteration      1(   2)  ---------------------------------------


    POTLOK:  cpu time    0.8572: real time    0.8605
    SETDIJ:  cpu time    1.0089: real time    1.0117
    TRIAL :  cpu time  167.7657: real time  168.3368
    CORREC:  cpu time    0.0017: real time    0.0017
    CHARGE:  cpu time    0.7542: real time    0.7562
    --------------------------------------------
      LOOP:  cpu time  170.3889: real time  170.9718

 eigenvalue-minimisations  :     0
 total energy-change (2. order) :-0.4366052E+00  (-0.4402776E+00)
 number of electron     250.0000006 magnetization       1.5537505
 augmentation part       17.2856603 magnetization       1.0186816

 DIPCOR: dipole corrections for dipol
 direction  3 min pos     1,
 dipolmoment          -0.000000      0.000000     -0.000369 electrons x Angstroem
 Tr[quadrupol]     -6785.577338

 energy correction for charged system         0.000000 eV
 dipol+quadrupol energy correction            0.000000 eV
 added-field ion interaction          0.000000 eV  (added to PSCEN)


 Free energy of the ion-electron system (eV)
  ---------------------------------------------------
  alpha Z        PSCENC =       103.09047734
  Ewald energy   TEWEN  =     40810.83209001
  -Hartree energ DENC   =    -50272.59271197
  -exchange      EXHF   =       578.31393033
  -V(xc)+E(xc)   XCENC  =       662.90289591
  PAW double counting   =     27383.99481441   -27524.08302430
  entropy T*S    EENTRO =        -0.03217759
  eigenvalues    EBANDS =     -3279.50895878
  atomic energy  EATOM  =     10935.05270585
  ---------------------------------------------------
  free energy    TOTEN  =      -602.03130323 eV

  energy without entropy =     -601.99912564  energy(sigma->0) =     -602.01521443
  exchange ACFDT corr.  =        -0.03538895  see jH, gK, PRB 81, 115126


--------------------------------------------------------------------------------------------------------




--------------------------------------- Iteration      1(   3)  ---------------------------------------


    POTLOK:  cpu time    0.8627: real time    0.8655
    SETDIJ:  cpu time    0.9863: real time    0.9889
    TRIAL :  cpu time  166.2780: real time  166.8274
    CORREC:  cpu time    0.0016: real time    0.0016
    CHARGE:  cpu time    0.7499: real time    0.7519
    --------------------------------------------
      LOOP:  cpu time  168.8797: real time  169.4405

 eigenvalue-minimisations  :     0
 total energy-change (2. order) :-0.3391197E+00  (-0.2589197E+00)
 number of electron     250.0000006 magnetization       1.5857829
 augmentation part       17.2668674 magnetization       1.0290151

 DIPCOR: dipole corrections for dipol
 direction  3 min pos     1,
 dipolmoment          -0.000000      0.000000     -0.000393 electrons x Angstroem
 Tr[quadrupol]     -6785.414076

 energy correction for charged system         0.000000 eV
 dipol+quadrupol energy correction            0.000000 eV
 added-field ion interaction          0.000000 eV  (added to PSCEN)


 Free energy of the ion-electron system (eV)
  ---------------------------------------------------
  alpha Z        PSCENC =       103.09047734
  Ewald energy   TEWEN  =     40810.83209001
  -Hartree energ DENC   =    -50256.41076194
  -exchange      EXHF   =       578.25863788
  -V(xc)+E(xc)   XCENC  =       662.48544066
  PAW double counting   =     27549.05891841   -27688.25838945
  entropy T*S    EENTRO =        -0.03100263
  eigenvalues    EBANDS =     -3296.44736406
  atomic energy  EATOM  =     10935.05270585
  ---------------------------------------------------
  free energy    TOTEN  =      -602.37042289 eV

  energy without entropy =     -602.33942025  energy(sigma->0) =     -602.35492157
  exchange ACFDT corr.  =        -0.03403493  see jH, gK, PRB 81, 115126


--------------------------------------------------------------------------------------------------------




--------------------------------------- Iteration      1(   4)  ---------------------------------------


    POTLOK:  cpu time    0.8687: real time    0.8714
    SETDIJ:  cpu time    1.0034: real time    1.0060
    TRIAL :  cpu time  166.8360: real time  167.4063
    CORREC:  cpu time    0.0017: real time    0.0017
    CHARGE:  cpu time    0.7507: real time    0.7527
    --------------------------------------------
      LOOP:  cpu time  169.4611: real time  170.0430

 eigenvalue-minimisations  :     0
 total energy-change (2. order) :-0.1936907E+00  (-0.1524152E+00)
 number of electron     250.0000007 magnetization       1.6250732
 augmentation part       17.2793276 magnetization       1.0362146

 DIPCOR: dipole corrections for dipol
 direction  3 min pos     1,
 dipolmoment          -0.000000      0.000000     -0.000266 electrons x Angstroem
 Tr[quadrupol]     -6785.346776

 energy correction for charged system         0.000000 eV
 dipol+quadrupol energy correction            0.000000 eV
 added-field ion interaction          0.000000 eV  (added to PSCEN)


 Free energy of the ion-electron system (eV)
  ---------------------------------------------------
  alpha Z        PSCENC =       103.09047734
  Ewald energy   TEWEN  =     40810.83209001
  -Hartree energ DENC   =    -50247.66109448
  -exchange      EXHF   =       578.36687249
  -V(xc)+E(xc)   XCENC  =       662.26512999
  PAW double counting   =     27692.65935619   -27831.12928362
  entropy T*S    EENTRO =        -0.02951564
  eigenvalues    EBANDS =     -3306.00936474
  atomic energy  EATOM  =     10935.05270585
  ---------------------------------------------------
  free energy    TOTEN  =      -602.56411359 eV

  energy without entropy =     -602.53459794  energy(sigma->0) =     -602.54935576
  exchange ACFDT corr.  =        -0.04566807  see jH, gK, PRB 81, 115126


--------------------------------------------------------------------------------------------------------




--------------------------------------- Iteration      1(   5)  ---------------------------------------


    POTLOK:  cpu time    0.8650: real time    0.8677
    SETDIJ:  cpu time    1.0028: real time    1.0053
    TRIAL :  cpu time  166.7194: real time  167.2915
    CORREC:  cpu time    0.0012: real time    0.0012
    CHARGE:  cpu time    0.7493: real time    0.7513
    --------------------------------------------
      LOOP:  cpu time  169.3390: real time  169.9217

 eigenvalue-minimisations  :     0
 total energy-change (2. order) :-0.1205573E+00  (-0.9428739E-01)
 number of electron     250.0000007 magnetization       1.6668725
 augmentation part       17.2866887 magnetization       1.0393214

 DIPCOR: dipole corrections for dipol
 direction  3 min pos     1,
 dipolmoment           0.000000     -0.000000      0.000010 electrons x Angstroem
 Tr[quadrupol]     -6785.378639

 energy correction for charged system         0.000000 eV
 dipol+quadrupol energy correction            0.000000 eV
 added-field ion interaction          0.000000 eV  (added to PSCEN)


 Free energy of the ion-electron system (eV)
  ---------------------------------------------------
  alpha Z        PSCENC =       103.09047734
  Ewald energy   TEWEN  =     40810.83209001
  -Hartree energ DENC   =    -50249.64481537
  -exchange      EXHF   =       578.68460655
  -V(xc)+E(xc)   XCENC  =       662.34868042
  PAW double counting   =     27796.94369836   -27935.93016334
  entropy T*S    EENTRO =        -0.02779134
  eigenvalues    EBANDS =     -3304.03243503
  atomic energy  EATOM  =     10935.05270585
  ---------------------------------------------------
  free energy    TOTEN  =      -602.68467085 eV

  energy without entropy =     -602.65687952  energy(sigma->0) =     -602.67077518
  exchange ACFDT corr.  =        -0.04568779  see jH, gK, PRB 81, 115126


--------------------------------------------------------------------------------------------------------




--------------------------------------- Iteration      1(   6)  ---------------------------------------


    POTLOK:  cpu time    0.8620: real time    0.8656
    SETDIJ:  cpu time    0.9905: real time    0.9930
    TRIAL :  cpu time  166.6254: real time  167.1657
    CORREC:  cpu time    0.0014: real time    0.0014
    CHARGE:  cpu time    0.7557: real time    0.7578
    --------------------------------------------
      LOOP:  cpu time  169.2366: real time  169.7890

 eigenvalue-minimisations  :     0
 total energy-change (2. order) :-0.7687615E-01  (-0.6241159E-01)
 number of electron     250.0000007 magnetization       1.7052881
 augmentation part       17.2836506 magnetization       1.0387539

 DIPCOR: dipole corrections for dipol
 direction  3 min pos     1,
 dipolmoment           0.000000     -0.000000      0.000272 electrons x Angstroem
 Tr[quadrupol]     -6785.439745

 energy correction for charged system         0.000000 eV
 dipol+quadrupol energy correction            0.000000 eV
 added-field ion interaction          0.000000 eV  (added to PSCEN)


 Free energy of the ion-electron system (eV)
  ---------------------------------------------------
  alpha Z        PSCENC =       103.09047734
  Ewald energy   TEWEN  =     40810.83209001
  -Hartree energ DENC   =    -50253.86521791
  -exchange      EXHF   =       579.00543258
  -V(xc)+E(xc)   XCENC  =       662.49436537
  PAW double counting   =     27863.00685425   -28002.28088079
  entropy T*S    EENTRO =        -0.02602028
  eigenvalues    EBANDS =     -3300.06958235
  atomic energy  EATOM  =     10935.05270585
  ---------------------------------------------------
  free energy    TOTEN  =      -602.76154700 eV

  energy without entropy =     -602.73552672  energy(sigma->0) =     -602.74853686
  exchange ACFDT corr.  =        -0.04432126  see jH, gK, PRB 81, 115126


--------------------------------------------------------------------------------------------------------




--------------------------------------- Iteration      1(   7)  ---------------------------------------


    POTLOK:  cpu time    0.8596: real time    0.8630
    SETDIJ:  cpu time    1.0029: real time    1.0055
    TRIAL :  cpu time  166.7089: real time  167.2656
    CORREC:  cpu time    0.0017: real time    0.0017
    CHARGE:  cpu time    0.7512: real time    0.7532
    --------------------------------------------
      LOOP:  cpu time  169.3255: real time  169.8936

 eigenvalue-minimisations  :     0
 total energy-change (2. order) :-0.5244895E-01  (-0.4086004E-01)
 number of electron     250.0000007 magnetization       1.7398646
 augmentation part       17.2862349 magnetization       1.0370816

 DIPCOR: dipole corrections for dipol
 direction  3 min pos     1,
 dipolmoment           0.000000     -0.000000      0.000428 electrons x Angstroem
 Tr[quadrupol]     -6785.489565

 energy correction for charged system         0.000000 eV
 dipol+quadrupol energy correction            0.000000 eV
 added-field ion interaction          0.000000 eV  (added to PSCEN)


 Free energy of the ion-electron system (eV)
  ---------------------------------------------------
  alpha Z        PSCENC =       103.09047734
  Ewald energy   TEWEN  =     40810.83209001
  -Hartree energ DENC   =    -50256.52130094
  -exchange      EXHF   =       579.23707052
  -V(xc)+E(xc)   XCENC  =       662.58886592
  PAW double counting   =     27901.22077776   -28040.25494410
  entropy T*S    EENTRO =        -0.02423831
  eigenvalues    EBANDS =     -3298.03371803
  atomic energy  EATOM  =     10935.05270585
  ---------------------------------------------------
  free energy    TOTEN  =      -602.81399595 eV

  energy without entropy =     -602.78975764  energy(sigma->0) =     -602.80187679
  exchange ACFDT corr.  =        -0.04284724  see jH, gK, PRB 81, 115126


--------------------------------------------------------------------------------------------------------




--------------------------------------- Iteration      1(   8)  ---------------------------------------


    POTLOK:  cpu time    0.8547: real time    0.8572
    SETDIJ:  cpu time    1.0063: real time    1.0089
    TRIAL :  cpu time  166.7456: real time  167.3112
    CORREC:  cpu time    0.0016: real time    0.0016
    CHARGE:  cpu time    0.7503: real time    0.7523
    --------------------------------------------
      LOOP:  cpu time  169.3597: real time  169.9359

 eigenvalue-minimisations  :     0
 total energy-change (2. order) :-0.3533485E-01  (-0.2862249E-01)
 number of electron     250.0000007 magnetization       1.7721978
 augmentation part       17.2937766 magnetization       1.0355195

 DIPCOR: dipole corrections for dipol
 direction  3 min pos     1,
 dipolmoment           0.000000     -0.000000      0.000491 electrons x Angstroem
 Tr[quadrupol]     -6785.521518

 energy correction for charged system         0.000000 eV
 dipol+quadrupol energy correction            0.000000 eV
 added-field ion interaction          0.000000 eV  (added to PSCEN)


 Free energy of the ion-electron system (eV)
  ---------------------------------------------------
  alpha Z        PSCENC =       103.09047735
  Ewald energy   TEWEN  =     40810.83209001
  -Hartree energ DENC   =    -50258.53543270
  -exchange      EXHF   =       579.40354082
  -V(xc)+E(xc)   XCENC  =       662.65908431
  PAW double counting   =     27922.24045407   -28061.22003520
  entropy T*S    EENTRO =        -0.02238280
  eigenvalues    EBANDS =     -3296.34797700
  atomic energy  EATOM  =     10935.05270585
  ---------------------------------------------------
  free energy    TOTEN  =      -602.84933080 eV

  energy without entropy =     -602.82694800  energy(sigma->0) =     -602.83813940
  exchange ACFDT corr.  =        -0.04132063  see jH, gK, PRB 81, 115126


--------------------------------------------------------------------------------------------------------




--------------------------------------- Iteration      1(   9)  ---------------------------------------


    POTLOK:  cpu time    0.8542: real time    0.8568
    SETDIJ:  cpu time    0.9954: real time    0.9993
    TRIAL :  cpu time  166.9111: real time  167.4533
    CORREC:  cpu time    0.0014: real time    0.0014
    CHARGE:  cpu time    0.7486: real time    0.7507
    --------------------------------------------
      LOOP:  cpu time  169.5122: real time  170.0670

 eigenvalue-minimisations  :     0
 total energy-change (2. order) :-0.2528312E-01  (-0.2037752E-01)
 number of electron     250.0000007 magnetization       1.8027730
 augmentation part       17.2982157 magnetization       1.0340393

 DIPCOR: dipole corrections for dipol
 direction  3 min pos     1,
 dipolmoment           0.000000     -0.000000      0.000518 electrons x Angstroem
 Tr[quadrupol]     -6785.538709

 energy correction for charged system         0.000000 eV
 dipol+quadrupol energy correction            0.000000 eV
 added-field ion interaction          0.000000 eV  (added to PSCEN)


 Free energy of the ion-electron system (eV)
  ---------------------------------------------------
  alpha Z        PSCENC =       103.09047735
  Ewald energy   TEWEN  =     40810.83209001
  -Hartree energ DENC   =    -50260.08070227
  -exchange      EXHF   =       579.52290693
  -V(xc)+E(xc)   XCENC  =       662.71332149
  PAW double counting   =     27933.04267466   -28072.21882162
  entropy T*S    EENTRO =        -0.02043636
  eigenvalues    EBANDS =     -3294.80688352
  atomic energy  EATOM  =     10935.05270585
  ---------------------------------------------------
  free energy    TOTEN  =      -602.87461392 eV

  energy without entropy =     -602.85417757  energy(sigma->0) =     -602.86439575
  exchange ACFDT corr.  =        -0.03975229  see jH, gK, PRB 81, 115126


--------------------------------------------------------------------------------------------------------




--------------------------------------- Iteration      1(  10)  ---------------------------------------


    POTLOK:  cpu time    0.8532: real time    0.8557
    SETDIJ:  cpu time    0.9947: real time    0.9974
    TRIAL :  cpu time  167.3837: real time  167.9577
    CORREC:  cpu time    0.0016: real time    0.0016
    CHARGE:  cpu time    0.7489: real time    0.7508
    --------------------------------------------
      LOOP:  cpu time  169.9836: real time  170.5685

 eigenvalue-minimisations  :     0
 total energy-change (2. order) :-0.1825575E-01  (-0.1507750E-01)
 number of electron     250.0000007 magnetization       1.8309958
 augmentation part       17.2978275 magnetization       1.0324791

 DIPCOR: dipole corrections for dipol
 direction  3 min pos     1,
 dipolmoment           0.000000     -0.000000      0.000549 electrons x Angstroem
 Tr[quadrupol]     -6785.545477

 energy correction for charged system         0.000000 eV
 dipol+quadrupol energy correction            0.000000 eV
 added-field ion interaction          0.000000 eV  (added to PSCEN)


 Free energy of the ion-electron system (eV)
  ---------------------------------------------------
  alpha Z        PSCENC =       103.09047735
  Ewald energy   TEWEN  =     40810.83209001
  -Hartree energ DENC   =    -50260.70208211
  -exchange      EXHF   =       579.60000353
  -V(xc)+E(xc)   XCENC  =       662.74057249
  PAW double counting   =     27937.74108161   -28077.06515647
  entropy T*S    EENTRO =        -0.01845359
  eigenvalues    EBANDS =     -3294.16212556
  atomic energy  EATOM  =     10935.05270585
  ---------------------------------------------------
  free energy    TOTEN  =      -602.89286967 eV

  energy without entropy =     -602.87441608  energy(sigma->0) =     -602.88364288
  exchange ACFDT corr.  =        -0.01730057  see jH, gK, PRB 81, 115126


--------------------------------------------------------------------------------------------------------




--------------------------------------- Iteration      1(  11)  ---------------------------------------


    POTLOK:  cpu time    0.8486: real time    0.8514
    SETDIJ:  cpu time    1.0040: real time    1.0066
    TRIAL :  cpu time  167.3092: real time  167.8696
    CORREC:  cpu time    0.0015: real time    0.0015
    CHARGE:  cpu time    0.7484: real time    0.7506
    --------------------------------------------
      LOOP:  cpu time  169.9128: real time  170.4844

 eigenvalue-minimisations  :     0
 total energy-change (2. order) :-0.1369540E-01  (-0.1136283E-01)
 number of electron     250.0000007 magnetization       1.8562442
 augmentation part       17.2966024 magnetization       1.0309400

 DIPCOR: dipole corrections for dipol
 direction  3 min pos     1,
 dipolmoment           0.000000     -0.000000      0.000590 electrons x Angstroem
 Tr[quadrupol]     -6785.546904

 energy correction for charged system         0.000000 eV
 dipol+quadrupol energy correction            0.000000 eV
 added-field ion interaction          0.000000 eV  (added to PSCEN)


 Free energy of the ion-electron system (eV)
  ---------------------------------------------------
  alpha Z        PSCENC =       103.09047735
  Ewald energy   TEWEN  =     40810.83209001
  -Hartree energ DENC   =    -50260.56202015
  -exchange      EXHF   =       579.64729808
  -V(xc)+E(xc)   XCENC  =       662.74502582
  PAW double counting   =     27939.22109253   -28078.54441535
  entropy T*S    EENTRO =        -0.01650966
  eigenvalues    EBANDS =     -3294.37036562
  atomic energy  EATOM  =     10935.05270585
  ---------------------------------------------------
  free energy    TOTEN  =      -602.90656508 eV

  energy without entropy =     -602.89005541  energy(sigma->0) =     -602.89831024
  exchange ACFDT corr.  =        -0.01511984  see jH, gK, PRB 81, 115126


--------------------------------------------------------------------------------------------------------




--------------------------------------- Iteration      1(  12)  ---------------------------------------


    POTLOK:  cpu time    0.8465: real time    0.8493
    SETDIJ:  cpu time    1.0057: real time    1.0082
    TRIAL :  cpu time  166.6553: real time  167.2040
    CORREC:  cpu time    0.0016: real time    0.0016
    CHARGE:  cpu time    0.7492: real time    0.7511
    --------------------------------------------
      LOOP:  cpu time  169.2597: real time  169.8190

 eigenvalue-minimisations  :     0
 total energy-change (2. order) :-0.1039260E-01  (-0.8665212E-02)
 number of electron     250.0000007 magnetization       1.8783692
 augmentation part       17.2973319 magnetization       1.0294888

 DIPCOR: dipole corrections for dipol
 direction  3 min pos     1,
 dipolmoment           0.000000     -0.000000      0.000633 electrons x Angstroem
 Tr[quadrupol]     -6785.547823

 energy correction for charged system         0.000000 eV
 dipol+quadrupol energy correction            0.000000 eV
 added-field ion interaction          0.000000 eV  (added to PSCEN)


 Free energy of the ion-electron system (eV)
  ---------------------------------------------------
  alpha Z        PSCENC =       103.09047735
  Ewald energy   TEWEN  =     40810.83209001
  -Hartree energ DENC   =    -50260.32580420
  -exchange      EXHF   =       579.68304125
  -V(xc)+E(xc)   XCENC  =       662.74437094
  PAW double counting   =     27939.63795457   -28078.93008585
  entropy T*S    EENTRO =        -0.01465700
  eigenvalues    EBANDS =     -3294.68519794
  atomic energy  EATOM  =     10935.05270585
  ---------------------------------------------------
  free energy    TOTEN  =      -602.91695768 eV

  energy without entropy =     -602.90230068  energy(sigma->0) =     -602.90962918
  exchange ACFDT corr.  =        -0.01308032  see jH, gK, PRB 81, 115126


--------------------------------------------------------------------------------------------------------




--------------------------------------- Iteration      1(  13)  ---------------------------------------


    POTLOK:  cpu time    0.8498: real time    0.8550
    SETDIJ:  cpu time    1.0107: real time    1.0154
    TRIAL :  cpu time  166.9992: real time  167.5588
    CORREC:  cpu time    0.0015: real time    0.0015
    CHARGE:  cpu time    0.7478: real time    0.7499
    --------------------------------------------
      LOOP:  cpu time  169.6103: real time  170.1853

 eigenvalue-minimisations  :     0
 total energy-change (2. order) :-0.8015595E-02  (-0.6752198E-02)
 number of electron     250.0000007 magnetization       1.8975270
 augmentation part       17.2988455 magnetization       1.0279776

 DIPCOR: dipole corrections for dipol
 direction  3 min pos     1,
 dipolmoment           0.000000     -0.000000      0.000667 electrons x Angstroem
 Tr[quadrupol]     -6785.550555

 energy correction for charged system         0.000000 eV
 dipol+quadrupol energy correction            0.000000 eV
 added-field ion interaction          0.000000 eV  (added to PSCEN)


 Free energy of the ion-electron system (eV)
  ---------------------------------------------------
  alpha Z        PSCENC =       103.09047735
  Ewald energy   TEWEN  =     40810.83209001
  -Hartree energ DENC   =    -50260.39837578
  -exchange      EXHF   =       579.71818453
  -V(xc)+E(xc)   XCENC  =       662.74982872
  PAW double counting   =     27940.21533184   -28079.54018046
  entropy T*S    EENTRO =        -0.01292478
  eigenvalues    EBANDS =     -3294.63037835
  atomic energy  EATOM  =     10935.05270585
  ---------------------------------------------------
  free energy    TOTEN  =      -602.92497327 eV

  energy without entropy =     -602.91204850  energy(sigma->0) =     -602.91851088
  exchange ACFDT corr.  =        -0.01122444  see jH, gK, PRB 81, 115126


--------------------------------------------------------------------------------------------------------




--------------------------------------- Iteration      1(  14)  ---------------------------------------


    POTLOK:  cpu time    0.8455: real time    0.8486
    SETDIJ:  cpu time    1.0013: real time    1.0039
    TRIAL :  cpu time  167.0557: real time  167.6137
    CORREC:  cpu time    0.0014: real time    0.0014
    CHARGE:  cpu time    0.7480: real time    0.7500
    --------------------------------------------
      LOOP:  cpu time  169.6531: real time  170.2219

 eigenvalue-minimisations  :     0
 total energy-change (2. order) :-0.6282241E-02  (-0.5337879E-02)
 number of electron     250.0000007 magnetization       1.9139237
 augmentation part       17.2997291 magnetization       1.0263141

 DIPCOR: dipole corrections for dipol
 direction  3 min pos     1,
 dipolmoment           0.000000     -0.000000      0.000692 electrons x Angstroem
 Tr[quadrupol]     -6785.554310

 energy correction for charged system         0.000000 eV
 dipol+quadrupol energy correction            0.000000 eV
 added-field ion interaction          0.000000 eV  (added to PSCEN)


 Free energy of the ion-electron system (eV)
  ---------------------------------------------------
  alpha Z        PSCENC =       103.09047735
  Ewald energy   TEWEN  =     40810.83209001
  -Hartree energ DENC   =    -50260.62542274
  -exchange      EXHF   =       579.75139290
  -V(xc)+E(xc)   XCENC  =       662.75788129
  PAW double counting   =     27941.23413546   -28080.61405817
  entropy T*S    EENTRO =        -0.01133441
  eigenvalues    EBANDS =     -3294.39753269
  atomic energy  EATOM  =     10935.05270585
  ---------------------------------------------------
  free energy    TOTEN  =      -602.93125551 eV

  energy without entropy =     -602.91992111  energy(sigma->0) =     -602.92558831
  exchange ACFDT corr.  =        -0.00956696  see jH, gK, PRB 81, 115126


--------------------------------------------------------------------------------------------------------




--------------------------------------- Iteration      1(  15)  ---------------------------------------


    POTLOK:  cpu time    0.8437: real time    0.8467
    SETDIJ:  cpu time    1.0025: real time    1.0051
    TRIAL :  cpu time  166.7874: real time  167.3348
    CORREC:  cpu time    0.0016: real time    0.0016
    CHARGE:  cpu time    0.7482: real time    0.7502
    --------------------------------------------
      LOOP:  cpu time  169.3847: real time  169.9434

 eigenvalue-minimisations  :     0
 total energy-change (2. order) :-0.4997481E-02  (-0.4304477E-02)
 number of electron     250.0000007 magnetization       1.9277554
 augmentation part       17.2999052 magnetization       1.0244905

 DIPCOR: dipole corrections for dipol
 direction  3 min pos     1,
 dipolmoment           0.000000     -0.000000      0.000712 electrons x Angstroem
 Tr[quadrupol]     -6785.557905

 energy correction for charged system         0.000000 eV
 dipol+quadrupol energy correction            0.000000 eV
 added-field ion interaction          0.000000 eV  (added to PSCEN)


 Free energy of the ion-electron system (eV)
  ---------------------------------------------------
  alpha Z        PSCENC =       103.09047735
  Ewald energy   TEWEN  =     40810.83209001
  -Hartree energ DENC   =    -50260.80665316
  -exchange      EXHF   =       579.77981422
  -V(xc)+E(xc)   XCENC  =       662.76375656
  PAW double counting   =     27942.60778144   -28082.01786717
  entropy T*S    EENTRO =        -0.00990416
  eigenvalues    EBANDS =     -3294.22702370
  atomic energy  EATOM  =     10935.05270585
  ---------------------------------------------------
  free energy    TOTEN  =      -602.93625299 eV

  energy without entropy =     -602.92634884  energy(sigma->0) =     -602.93130092
  exchange ACFDT corr.  =        -0.00811212  see jH, gK, PRB 81, 115126


--------------------------------------------------------------------------------------------------------




--------------------------------------- Iteration      1(  16)  ---------------------------------------


    POTLOK:  cpu time    0.8416: real time    0.8444
    SETDIJ:  cpu time    1.0027: real time    1.0054
    TRIAL :  cpu time  167.5380: real time  168.8502
    CORREC:  cpu time    0.0015: real time    0.0015
    CHARGE:  cpu time    0.7481: real time    0.7502
    --------------------------------------------
      LOOP:  cpu time  170.1334: real time  171.4571

 eigenvalue-minimisations  :     0
 total energy-change (2. order) :-0.4048117E-02  (-0.3516987E-02)
 number of electron     250.0000007 magnetization       1.9392520
 augmentation part       17.3000139 magnetization       1.0225587

 DIPCOR: dipole corrections for dipol
 direction  3 min pos     1,
 dipolmoment           0.000000     -0.000000      0.000728 electrons x Angstroem
 Tr[quadrupol]     -6785.560916

 energy correction for charged system         0.000000 eV
 dipol+quadrupol energy correction            0.000000 eV
 added-field ion interaction          0.000000 eV  (added to PSCEN)


 Free energy of the ion-electron system (eV)
  ---------------------------------------------------
  alpha Z        PSCENC =       103.09047735
  Ewald energy   TEWEN  =     40810.83209001
  -Hartree energ DENC   =    -50260.91184969
  -exchange      EXHF   =       579.80350873
  -V(xc)+E(xc)   XCENC  =       662.76699712
  PAW double counting   =     27944.15299193   -28083.56869350
  entropy T*S    EENTRO =        -0.00864443
  eigenvalues    EBANDS =     -3294.14862476
  atomic energy  EATOM  =     10935.05270585
  ---------------------------------------------------
  free energy    TOTEN  =      -602.94030111 eV

  energy without entropy =     -602.93165668  energy(sigma->0) =     -602.93597890
  exchange ACFDT corr.  =        -0.00685939  see jH, gK, PRB 81, 115126


--------------------------------------------------------------------------------------------------------




--------------------------------------- Iteration      1(  17)  ---------------------------------------


    POTLOK:  cpu time    0.8390: real time    0.8424
    SETDIJ:  cpu time    1.0007: real time    1.0033
    TRIAL :  cpu time  166.7993: real time  167.3490
    CORREC:  cpu time    0.0013: real time    0.0013
    CHARGE:  cpu time    0.7493: real time    0.7512
    --------------------------------------------
      LOOP:  cpu time  169.3909: real time  169.9522

 eigenvalue-minimisations  :     0
 total energy-change (2. order) :-0.3321534E-02  (-0.2907385E-02)
 number of electron     250.0000007 magnetization       1.9487005
 augmentation part       17.3003623 magnetization       1.0205758

 DIPCOR: dipole corrections for dipol
 direction  3 min pos     1,
 dipolmoment           0.000000     -0.000000      0.000742 electrons x Angstroem
 Tr[quadrupol]     -6785.563447

 energy correction for charged system         0.000000 eV
 dipol+quadrupol energy correction            0.000000 eV
 added-field ion interaction          0.000000 eV  (added to PSCEN)


 Free energy of the ion-electron system (eV)
  ---------------------------------------------------
  alpha Z        PSCENC =       103.09047736
  Ewald energy   TEWEN  =     40810.83209001
  -Hartree energ DENC   =    -50261.00300343
  -exchange      EXHF   =       579.82410225
  -V(xc)+E(xc)   XCENC  =       662.76942154
  PAW double counting   =     27945.71427719   -28085.13418486
  entropy T*S    EENTRO =        -0.00755370
  eigenvalues    EBANDS =     -3294.08086411
  atomic energy  EATOM  =     10935.05270585
  ---------------------------------------------------
  free energy    TOTEN  =      -602.94362265 eV

  energy without entropy =     -602.93606895  energy(sigma->0) =     -602.93984580
  exchange ACFDT corr.  =        -0.00580076  see jH, gK, PRB 81, 115126


--------------------------------------------------------------------------------------------------------




[...]
  augment   103.79648   104.44064   115.07629    -0.09699    -0.02261    -0.01188
  Kinetic  3733.13461  3705.95604  4251.06985    -3.49937     0.00223     0.03685
  Fock     -412.43958  -412.88558  -397.32023     0.60165     0.03113     0.02623
  -------------------------------------------------------------------------------------
  Total     -44.95229   -43.44633    -0.58746    -0.20264     0.00811     0.01114
  in kB     -22.67063   -21.91113    -0.29627    -0.10220     0.00409     0.00562
  external pressure =      -14.96 kB  Pullay stress =        0.00 kB


 VOLUME and BASIS-vectors are now :
 -----------------------------------------------------------------------------
  energy-cutoff  :      500.00
  volume of cell :     3176.87
      direct lattice vectors                 reciprocal lattice vectors
    13.009100000  0.000000000  0.000000000     0.076869268 -0.000067215 -0.000022542
     0.010717904 12.257295314  0.000000000     0.000000000  0.081584067  0.000003865
     0.005841758 -0.000943962 19.923099121     0.000000000  0.000000000  0.050192994

  length of vectors
    13.009100000 12.257300000 19.923100000     0.076869301  0.081584067  0.050192994


 FORCES acting on ions:
    Electron-Ion                     Ewald-Force                    Non-Local-Force
 -----------------------------------------------------------------------------------------------
   0.350E+01 0.404E+01 -.182E+00   -.334E+01 -.401E+01 0.185E+00   -.120E+00 -.229E-01 -.605E-02
   0.595E+01 0.122E+02 -.663E+00   -.587E+01 -.125E+02 0.664E+00   -.116E+00 0.295E+00 -.324E-02
   -.682E+01 0.170E+01 -.417E+00   0.689E+01 -.175E+01 0.412E+00   -.125E+00 -.598E-02 0.694E-03
   0.115E+02 0.211E+02 0.794E+00   -.116E+02 -.212E+02 -.800E+00   0.101E+00 0.187E-01 0.794E-02
   0.229E+02 0.628E+02 0.934E+00   -.243E+02 -.660E+02 -.908E+00   0.135E+01 0.342E+01 -.203E-01
   0.169E+02 0.165E+02 -.115E+01   -.172E+02 -.167E+02 0.115E+01   0.240E+00 0.192E+00 0.386E-02
   0.821E+01 0.185E+02 -.359E+00   -.839E+01 -.188E+02 0.360E+00   0.141E+00 0.306E+00 -.184E-02
   0.522E+02 -.162E+02 0.603E-01   -.541E+02 0.191E+02 -.398E-01   0.166E+01 -.323E+01 -.199E-01
   0.142E+02 -.188E+01 -.268E+01   -.144E+02 0.188E+01 0.269E+01   0.122E+00 0.150E-01 -.119E-01
   0.286E+02 0.128E-01 -.187E+01   -.289E+02 0.316E+00 0.188E+01   0.458E+00 -.310E+00 -.142E-01
   0.664E+02 -.708E+01 0.256E+00   -.666E+02 0.721E+01 -.266E+00   0.113E+01 0.182E+00 -.109E-02
   0.406E+02 0.102E+01 -.118E+01   -.423E+02 -.402E+01 0.120E+01   0.163E+01 0.324E+01 -.163E-01
   0.131E+02 -.180E+02 -.124E+01   -.134E+02 0.182E+02 0.124E+01   0.271E+00 -.209E+00 0.177E-03
   0.260E+02 -.408E+01 -.228E+01   -.265E+02 0.381E+01 0.228E+01   0.463E+00 0.274E+00 -.104E-01
   0.121E+02 -.507E+02 -.372E+00   -.135E+02 0.540E+02 0.380E+00   0.133E+01 -.334E+01 -.100E-01
   0.461E+01 -.833E+01 -.569E+00   -.447E+01 0.866E+01 0.571E+00   -.114E+00 -.271E+00 -.321E-02
   0.347E+01 -.163E+02 -.693E+00   -.361E+01 0.166E+02 0.691E+00   0.146E+00 -.262E+00 0.185E-02
   0.774E+01 -.113E+02 -.325E+00   -.796E+01 0.113E+02 0.321E+00   0.126E+00 -.928E-02 -.424E-03
   -.325E+01 0.402E+01 -.159E+01   0.330E+01 -.397E+01 0.158E+01   -.117E+00 -.523E-01 0.945E-03
   0.328E+02 0.451E+02 0.308E+00   -.352E+02 -.477E+02 -.298E+00   0.244E+01 0.265E+01 -.103E-01
   0.138E+02 0.562E+01 -.995E+00   -.141E+02 -.554E+01 0.997E+00   0.407E+00 -.333E-02 -.629E-02
   -.177E+02 0.142E+02 -.136E+01   0.185E+02 -.141E+02 0.137E+01   -.662E+00 -.754E-01 -.104E-01
   -.515E+02 0.234E+02 0.777E-01   0.548E+02 -.235E+02 -.621E-01   -.329E+01 0.338E-01 -.152E-01
   -.425E+02 0.321E+02 0.684E+00   0.445E+02 -.346E+02 -.662E+00   -.171E+01 0.254E+01 -.187E-01
   -.311E+02 -.138E+02 0.112E+01   0.343E+02 0.139E+02 -.108E+01   -.334E+01 -.552E-01 -.371E-01
   -.271E+02 -.255E+02 -.252E+00   0.290E+02 0.277E+02 0.266E+00   -.173E+01 -.242E+01 -.176E-01
   -.348E+02 -.137E+02 -.117E+01   0.378E+02 0.139E+02 0.118E+01   -.325E+01 -.412E-01 -.136E-01
   0.301E+02 -.269E+02 -.661E+00   -.324E+02 0.294E+02 0.653E+00   0.244E+01 -.272E+01 0.148E-02
   -.137E+02 -.824E+01 -.184E+01   0.144E+02 0.819E+01 0.185E+01   -.666E+00 -.191E-02 -.137E-01
   -.597E+00 0.121E+01 -.619E+00   0.644E+00 -.122E+01 0.618E+00   -.896E-01 0.994E-02 0.349E-02
   -.542E+01 0.810E+01 -.136E+01   0.585E+01 -.809E+01 0.136E+01   -.374E+00 0.281E-01 -.531E-05
   -.108E+02 0.871E+00 -.106E+01   0.110E+02 -.867E+00 0.106E+01   -.104E+00 -.113E-01 -.114E-02
   -.764E+01 0.334E+01 -.896E+00   0.776E+01 -.339E+01 0.898E+00   -.975E-01 0.389E-01 -.209E-02
   0.299E+00 0.998E+01 -.124E+01   -.243E+00 -.100E+02 0.124E+01   -.361E-01 0.931E-01 0.882E-03
   -.214E+02 0.117E+02 -.808E+00   0.215E+02 -.122E+02 0.809E+00   -.299E+00 0.396E+00 -.573E-02
   -.120E+02 0.216E+01 -.136E+01   0.121E+02 -.255E+01 0.136E+01   -.135E+00 0.285E+00 -.505E-02
   0.318E+01 0.219E+01 -.148E+01   -.334E+01 -.227E+01 0.148E+01   0.216E+00 0.195E-01 -.195E-02
   -.150E+00 0.510E+01 -.163E+01   0.260E+00 -.517E+01 0.163E+01   -.178E+00 0.116E+00 -.232E-02
   -.163E+02 -.334E+01 -.645E+00   0.170E+02 0.340E+01 0.653E+00   -.459E+00 -.291E-01 -.120E-01
   -.139E+02 -.122E+00 -.954E+00   0.142E+02 0.860E-01 0.948E+00   -.263E+00 0.104E+00 0.415E-02
   0.754E+01 -.897E+00 -.199E+01   -.746E+01 0.875E+00 0.199E+01   -.727E-01 0.160E-02 -.374E-03
   -.435E+00 -.679E+01 -.122E+01   0.610E+00 0.690E+01 0.123E+01   -.167E+00 -.114E+00 -.182E-03
   -.161E+02 -.111E+02 -.609E+00   0.163E+02 0.115E+02 0.607E+00   -.396E+00 -.364E+00 -.974E-03
   -.111E+02 -.223E+01 -.765E+00   0.115E+02 0.220E+01 0.763E+00   -.341E+00 -.104E+00 -.229E-04
   0.291E+01 -.262E+01 -.788E+00   -.304E+01 0.268E+01 0.788E+00   0.170E+00 -.445E-01 0.424E-02
   0.574E+00 -.912E+01 -.337E+00   -.519E+00 0.923E+01 0.336E+00   -.635E-01 -.870E-01 0.515E-02
   -.363E+01 -.515E+01 -.115E+01   0.408E+01 0.517E+01 0.114E+01   -.385E+00 -.409E-01 0.431E-02
   -.101E+02 -.105E+01 -.693E+00   0.103E+02 0.144E+01 0.695E+00   -.150E+00 -.293E+00 -.599E-03
   -.864E+01 -.237E+01 -.405E+00   0.874E+01 0.239E+01 0.407E+00   -.112E+00 -.280E-01 0.635E-03
   0.183E+02 0.562E+02 0.361E+01   0.303E+01 -.552E+02 -.384E+01   -.202E+02 -.101E+01 0.230E+00
   -.200E+02 -.518E+02 0.792E+00   0.398E+02 0.504E+02 -.939E+00   -.189E+02 0.131E+01 0.141E+00
   0.233E+02 0.453E+02 0.176E+01   -.343E+02 -.272E+02 -.192E+01   0.104E+02 -.170E+02 0.148E+00
   -.203E+02 -.285E+02 0.423E+01   -.111E+01 0.281E+02 -.447E+01   0.202E+02 0.409E+00 0.251E+00
   -.598E+02 -.364E+02 0.547E+01   0.804E+02 0.358E+02 -.570E+01   -.200E+02 -.336E+00 0.214E+00
   0.139E+02 0.709E+01 0.252E+01   -.340E+02 -.695E+01 -.267E+01   0.193E+02 -.376E+00 0.150E+00
   0.346E+02 -.416E+01 -.440E+00   -.449E+02 -.132E+02 0.365E+00   0.992E+01 0.166E+02 0.669E-01
   -.255E+02 0.257E+02 0.127E+02   0.239E+02 -.217E+02 -.127E+02   0.162E+01 -.381E+01 -.614E-01
   -.259E+02 -.520E+02 0.601E+01   0.246E+02 0.501E+02 -.597E+01   0.126E+01 0.282E+01 -.291E-01
 -----------------------------------------------------------------------------------------------
   0.723E+00 0.145E+01 -.950E+00   -.210E-12 -.192E-12 0.213E-13   -.553E+00 -.130E+01 0.855E+00
 
 
 POSITION                                       TOTAL-FORCE (eV/Angst)
 -----------------------------------------------------------------------------------
      2.98169     12.25243      9.95746         0.028828      0.005790     -0.003200
      0.75821      1.21579      9.96124        -0.034892      0.061626     -0.003080
      1.52045     12.25256      9.96017        -0.070026     -0.057014     -0.003433
      3.67969      1.27415      9.95287        -0.014696     -0.054857      0.002433
      2.89670      2.51023      9.95138        -0.000670      0.406679      0.004566
      0.66943      3.65824      9.96260        -0.034366      0.011526     -0.001191
      1.44658      2.45643      9.95870        -0.038953     -0.045017     -0.000422
      2.73819      4.88848      9.95279        -0.118250     -0.532303     -0.000516
      0.63120      6.12451      9.96715        -0.025331      0.022737     -0.008379
      1.33810      4.89706      9.96266         0.157466     -0.005384     -0.007577
      3.43897      6.12678      9.95016         0.992006      0.334368     -0.011591
      2.73280      7.35407      9.95795        -0.000963      0.411031     -0.002239
      0.67646      8.59340      9.96396        -0.037394     -0.031540     -0.000153
      1.34030      7.35301      9.96495         0.038988      0.026838     -0.006098
      2.91518      9.73492      9.95803         0.000461     -0.310969     -0.002408
      0.77281     11.03207      9.96168         0.022309      0.039145     -0.001338
      1.46548      9.78910      9.96144         0.005553      0.006072     -0.000145
      3.69095     10.97021      9.95797        -0.086131      0.020382     -0.004414
      7.27607     12.25594      9.96252        -0.066616     -0.010062     -0.007842
      5.14087      1.27185      9.95313         0.208100      0.172808     -0.000871
      5.84120     12.24808      9.95916         0.074566      0.074403     -0.005250
      7.99507      1.22384      9.96133         0.025150      0.074088     -0.005649
      7.26511      2.44318      9.95358        -0.214726     -0.148211     -0.000371
      7.98442      3.70655      9.95148         0.191120      0.201312      0.002401
      7.92865      6.12943      9.94938        -0.258075      0.096767      0.002867
      7.99651      8.55986      9.95643         0.043525     -0.315446     -0.004532
      7.28377      9.81241      9.95992        -0.351728      0.205916     -0.007679
      5.15026     10.97466      9.95837         0.284680     -0.369759     -0.006517
      8.00665     11.03202      9.96395         0.035937     -0.059838     -0.006765
     11.60564     12.25457      9.96333        -0.037430      0.006185      0.003136
      9.42761      1.21823      9.96390         0.043975      0.045994     -0.002529
     10.16820     12.25617      9.96425         0.028278     -0.008531      0.001878
     12.31918      1.21904      9.96357         0.009898     -0.012981     -0.000254
     11.56612      2.43379      9.96471         0.024340      0.041041     -0.001399
      9.40164      3.66819      9.95972        -0.206139     -0.072643     -0.005763
     10.13418      2.43914      9.96380        -0.015215     -0.095174     -0.004032
     12.25592      3.66448      9.96518         0.063493     -0.073278     -0.000501
     11.52589      4.89555      9.96556        -0.076075      0.060152     -0.000937
      9.37694      6.13240      9.95847         0.169539      0.032853     -0.004627
     10.10305      4.90417      9.96156         0.083831      0.068356     -0.002458
     12.23161      6.12618      9.96694         0.004838     -0.020593     -0.001847
     11.53110      7.35951      9.96465        -0.000339     -0.019425      0.001387
      9.41075      8.59014      9.96047        -0.175084      0.089921     -0.002848
     10.11117      7.35463      9.96145        -0.010601     -0.127763     -0.002903
     12.26556      8.58933      9.96376         0.051387      0.024031      0.003969
     11.57667      9.82065      9.96252        -0.004961      0.004472      0.004618
      9.43878     11.03824      9.96397         0.046522     -0.030727     -0.000186
     10.14491      9.81726      9.96262        -0.000353      0.085078      0.001514
     12.33218     11.03198      9.96243        -0.037986     -0.004490      0.002482
      3.49022      3.74487      9.94473        -0.675654     -0.086569      0.020616
      3.52190      8.48722      9.95364        -0.725429     -0.017259      0.005834
      5.88806      2.43845      9.94822         0.265413     -0.405733      0.005008
      7.27956      4.91102      9.94267         0.530144      0.046632      0.023045
      4.77261      6.18798      9.93896        -1.215209     -1.051718     -0.000130
      7.25770      7.36402      9.94795         0.870055     -0.270636      0.012741
      5.89597      9.79347      9.95658         0.438896      0.722903     -0.001415
      5.36996      4.35422      9.93632        -0.005875      0.099399      0.017878
      5.37775      7.90757      9.94390        -0.200133      0.739416      0.017116
 -----------------------------------------------------------------------------------
    total drift:                                0.001413     -0.002945     -0.002623


--------------------------------------------------------------------------------------------------------



  FREE ENERGIE OF THE ION-ELECTRON SYSTEM (eV)
  ---------------------------------------------------
  free  energy   TOTEN  =      -602.96706305 eV

  energy  without entropy=     -602.96571528  energy(sigma->0) =     -602.96638917
 


--------------------------------------------------------------------------------------------------------


    POTLOK:  cpu time    1.8185: real time    1.8395


--------------------------------------------------------------------------------------------------------


 stress matrix after NEB project (eV)
    -44.95229     -0.20301      0.01114
     -0.20264    -43.44633      0.00807
      0.01121      0.00811     -0.58746
  FORCES: max atom, RMS     1.607122    0.396688
  FORCE total and by dimension    3.021083    1.215209
  Stress total and by dimension   62.519755   44.952293
 writing wavefunctions
     LOOP+:  cpu time10038.3762: real time10079.8405
    4ORBIT:  cpu time    0.0000: real time    0.0000
 


 total charge     
 
# of ion       s       p       d       tot
------------------------------------------
    1        0.850   1.687   0.000   2.537
    2        0.864   1.755   0.000   2.618
    3        0.856   1.750   0.000   2.606
    4        0.842   1.730   0.000   2.572
    5        0.853   1.698   0.000   2.551
    6        0.872   1.777   0.000   2.649
    7        0.863   1.770   0.000   2.633
    8        0.873   1.780   0.000   2.653
    9        0.870   1.806   0.000   2.676
   10        0.877   1.818   0.000   2.695
   11        0.883   1.794   0.000   2.677
   12        0.875   1.783   0.000   2.658
   13        0.872   1.780   0.000   2.652
   14        0.878   1.822   0.000   2.700
   15        0.850   1.693   0.000   2.543
   16        0.863   1.752   0.000   2.615
   17        0.861   1.765   0.000   2.626
   18        0.843   1.731   0.000   2.573
   19        0.869   1.754   0.000   2.623
   20        0.848   1.683   0.000   2.532
   21        0.857   1.748   0.000   2.605
   22        0.866   1.782   0.000   2.648
   23        0.860   1.733   0.000   2.593
   24        0.854   1.728   0.000   2.583
   25        0.841   1.664   0.000   2.505
   26        0.857   1.732   0.000   2.589
   27        0.862   1.736   0.000   2.598
   28        0.848   1.684   0.000   2.531
   29        0.866   1.785   0.000   2.652
   30        0.868   1.770   0.000   2.638
   31        0.868   1.786   0.000   2.654
   32        0.866   1.775   0.000   2.641
   33        0.863   1.764   0.000   2.627
   34        0.869   1.774   0.000   2.643
   35        0.869   1.782   0.000   2.651
   36        0.866   1.781   0.000   2.647
   37        0.868   1.789   0.000   2.657
   38        0.867   1.782   0.000   2.649
   39        0.863   1.769   0.000   2.633
   40        0.869   1.776   0.000   2.645
   41        0.874   1.790   0.000   2.664
   42        0.867   1.782   0.000   2.650
   43        0.869   1.786   0.000   2.655
   44        0.870   1.779   0.000   2.649
   45        0.868   1.790   0.000   2.658
   46        0.869   1.776   0.000   2.645
   47        0.868   1.787   0.000   2.656
   48        0.866   1.782   0.000   2.648
   49        0.863   1.763   0.000   2.626
   50        1.234   2.671   0.000   3.905
   51        1.232   2.659   0.000   3.891
   52        1.227   2.660   0.000   3.888
   53        1.222   2.659   0.000   3.881
   54        1.254   2.584   0.000   3.838
   55        1.221   2.645   0.000   3.866
   56        1.227   2.653   0.000   3.881
   57        0.426   0.466   9.080   9.972
   58        0.454   0.623   6.246   7.322
--------------------------------------------------
tot         51.822 105.923  15.326 173.071
 


 magnetization (x)
 
# of ion       s       p       d       tot
------------------------------------------
    1       -0.000  -0.002   0.000  -0.002
    2       -0.001  -0.005   0.000  -0.006
    3        0.002   0.024   0.000   0.026
    4        0.001   0.006   0.000   0.006
    5       -0.001  -0.006   0.000  -0.007
    6       -0.000   0.002   0.000   0.002
    7       -0.001   0.005   0.000   0.004
    8        0.002   0.034   0.000   0.036
    9        0.002   0.027   0.000   0.029
   10       -0.001  -0.008   0.000  -0.009
   11       -0.001  -0.004   0.000  -0.005
   12        0.001   0.030   0.000   0.031
   13       -0.000  -0.004   0.000  -0.004
   14       -0.001  -0.006   0.000  -0.007
   15       -0.001  -0.015   0.000  -0.017
   16       -0.001  -0.004   0.000  -0.005
   17        0.001   0.013   0.000   0.014
   18        0.001   0.007   0.000   0.008
   19        0.000   0.009   0.000   0.009
   20       -0.001  -0.004   0.000  -0.005
   21       -0.001   0.005   0.000   0.005
   22       -0.000  -0.001   0.000  -0.001
   23        0.001   0.003   0.000   0.004
   24        0.002   0.015   0.000   0.017
   25       -0.000   0.001   0.000   0.001
   26        0.001   0.016   0.000   0.017
   27        0.000   0.008   0.000   0.008
   28       -0.001  -0.005   0.000  -0.006
   29       -0.000  -0.001   0.000  -0.001
   30       -0.000  -0.003   0.000  -0.003
   31       -0.000  -0.004   0.000  -0.004
   32        0.001   0.010   0.000   0.010
   33        0.000   0.005   0.000   0.005
   34       -0.000  -0.004   0.000  -0.004
   35       -0.001  -0.003   0.000  -0.004
   36        0.000   0.004   0.000   0.004
   37        0.001   0.012   0.000   0.012
   38        0.000   0.006   0.000   0.006
   39       -0.001   0.008   0.000   0.007
   40        0.000   0.008   0.000   0.008
   41       -0.001  -0.004   0.000  -0.004
   42        0.000   0.006   0.000   0.007
   43       -0.001  -0.003   0.000  -0.004
   44        0.000   0.008   0.000   0.008
   45        0.001   0.012   0.000   0.013
   46       -0.001  -0.005   0.000  -0.006
   47       -0.000  -0.003   0.000  -0.003
   48        0.000   0.004   0.000   0.004
   49        0.000   0.005   0.000   0.005
   50       -0.014  -0.034   0.000  -0.048
   51       -0.004   0.004   0.000   0.001
   52       -0.011  -0.037   0.000  -0.048
   53       -0.013  -0.041   0.000  -0.055
   54       -0.012   0.035   0.000   0.023
   55       -0.003  -0.000   0.000  -0.004
   56       -0.003  -0.006   0.000  -0.009
   57        0.008   0.014  -0.649  -0.627
   58        0.037   0.021   2.054   2.112
--------------------------------------------------
tot         -0.015   0.157   1.406   1.548
 

 total amount of memory used by VASP MPI-rank0   153557. kBytes
=======================================================================

   base      :      30000. kBytes
   nonl-proj :       4264. kBytes
   fftplans  :      11188. kBytes
   grid      :      29312. kBytes
   one-center:         62. kBytes
   HF        :         23. kBytes
   nonlr-proj:      15333. kBytes
   wavefun   :      63375. kBytes
 
  
  
 General timing and accounting informations for this job:
 ========================================================
  
                  Total CPU time used (sec):    10072.002
                            User time (sec):    10037.295
                          System time (sec):       34.707
                         Elapsed time (sec):    10120.466
  
                   Maximum memory used (kb):      387148.
                   Average memory used (kb):           0.
  
                          Minor page faults:       911022
                          Major page faults:          186
                 Voluntary context switches:       160454
