 vasp.5.4.4.18Apr17-6-g9f103f2a35 (build Feb 25 2019 10:51:38) complex          
  
 executed on             LinuxIFC date 2022.01.30  04:36:10
 running on   32 total cores
 distrk:  each k-point on   32 cores,    1 groups
 distr:  one band on NCORES_PER_BAND=  32 cores,    1 groups


--------------------------------------------------------------------------------------------------------


 INCAR:
 POTCAR:    PAW_PBE C 08Apr2002                   
 POTCAR:    PAW_PBE N 08Apr2002                   
 POTCAR:    PAW_PBE Zn 06Sep2000                  
 POTCAR:    PAW_PBE Fe 06Sep2000                  

 ----------------------------------------------------------------------------- 
|                                                                             |
|           W    W    AA    RRRRR   N    N  II  N    N   GGGG   !!!           |
|           W    W   A  A   R    R  NN   N  II  NN   N  G    G  !!!           |
|           W    W  A    A  R    R  N N  N  II  N N  N  G       !!!           |
|           W WW W  AAAAAA  RRRRR   N  N N  II  N  N N  G  GGG   !            |
|           WW  WW  A    A  R   R   N   NN  II  N   NN  G    G                |
|           W    W  A    A  R    R  N    N  II  N    N   GGGG   !!!           |
|                                                                             |
|      For optimal performance we recommend to set                            |
|        NCORE= 4 - approx SQRT( number of cores)                             |
|      NCORE specifies how many cores store one orbital (NPAR=cpu/NCORE).     |
|      This setting can  greatly improve the performance of VASP for DFT.     |
|      The default,   NCORE=1            might be grossly inefficient         |
|      on modern multi-core architectures or massively parallel machines.     |
|      Do your own testing !!!!                                               |
|      Unfortunately you need to use the default for GW and RPA calculations. |
|      (for HF NCORE is supported but not extensively tested yet)             |
|                                                                             |
 ----------------------------------------------------------------------------- 

 POTCAR:    PAW_PBE C 08Apr2002                   
   VRHFIN =C: s2p2                                                              
   LEXCH  = PE                                                                  
   EATOM  =   147.1560 eV,   10.8157 Ry                                         
                                                                                
   TITEL  = PAW_PBE C 08Apr2002                                                 
   LULTRA =        F    use ultrasoft PP ?                                      
   IUNSCR =        1    unscreen: 0-lin 1-nonlin 2-no                           
   RPACOR =    1.200    partial core radius                                     
   POMASS =   12.011; ZVAL   =    4.000    mass and valenz                      
   RCORE  =    1.500    outmost cutoff radius                                   
   RWIGS  =    1.630; RWIGS  =    0.863    wigner-seitz radius (au A)           
   ENMAX  =  400.000; ENMIN  =  300.000 eV                                      
   ICORE  =        2    local potential                                         
   LCOR   =        T    correct aug charges                                     
   LPAW   =        T    paw PP                                                  
   EAUG   =  644.873                                                            
   DEXC   =    0.000                                                            
   RMAX   =    1.529    core radius for proj-oper                               
   RAUG   =    1.300    factor for augmentation sphere                          
   RDEP   =    1.501    radius for radial grids                                 
   RDEPT  =    1.300    core radius for aug-charge                              
                                                                                
   Atomic configuration                                                         
    4 entries                                                                   
     n  l   j            E        occ.                                          
     1  0  0.50      -273.3789   2.0000                                         
     2  0  0.50       -13.7508   2.0000                                         
     2  1  0.50        -5.2854   2.0000                                         
     3  2  1.50        -5.4423   0.0000                                         
   Description                                                                  
     l       E           TYP  RCUT    TYP  RCUT                                 
     0    -13.7508458     23  1.200                                             
     0     -8.2022199     23  1.200                                             
     1     -5.2854383     23  1.500                                             
     1     34.0145650     23  1.500                                             
     2     -5.4423304      7  1.500                                             
  local pseudopotential read in
  partial core-charges read in
  partial kinetic energy density read in
  atomic valenz-charges read in
  non local Contribution for L=           0  read in
    real space projection operators read in
  non local Contribution for L=           0  read in
    real space projection operators read in
  non local Contribution for L=           1  read in
    real space projection operators read in
  non local Contribution for L=           1  read in
    real space projection operators read in
    PAW grid and wavefunctions read in
 
   number of l-projection  operators is LMAX  =           4
   number of lm-projection operators is LMMAX =           8
 
 POTCAR:    PAW_PBE N 08Apr2002                   
   VRHFIN =N: s2p3                                                              
   LEXCH  = PE                                                                  
   EATOM  =   264.5486 eV,   19.4438 Ry                                         
                                                                                
   TITEL  = PAW_PBE N 08Apr2002                                                 
   LULTRA =        F    use ultrasoft PP ?                                      
   IUNSCR =        1    unscreen: 0-lin 1-nonlin 2-no                           
   RPACOR =    1.200    partial core radius                                     
   POMASS =   14.001; ZVAL   =    5.000    mass and valenz                      
   RCORE  =    1.500    outmost cutoff radius                                   
   RWIGS  =    1.400; RWIGS  =    0.741    wigner-seitz radius (au A)           
   ENMAX  =  400.000; ENMIN  =  300.000 eV                                      
   ICORE  =        2    local potential                                         
   LCOR   =        T    correct aug charges                                     
   LPAW   =        T    paw PP                                                  
   EAUG   =  627.112                                                            
   DEXC   =    0.000                                                            
   RMAX   =    1.529    core radius for proj-oper                               
   RAUG   =    1.300    factor for augmentation sphere                          
   RDEP   =    1.514    radius for radial grids                                 
   RDEPT  =    1.338    core radius for aug-charge                              
                                                                                
   Atomic configuration                                                         
    4 entries                                                                   
     n  l   j            E        occ.                                          
     1  0  0.50      -384.7179   2.0000                                         
     2  0  0.50       -18.5828   2.0000                                         
     2  1  0.50        -7.0898   3.0000                                         
     3  2  1.50        -6.8029   0.0000                                         
   Description                                                                  
     l       E           TYP  RCUT    TYP  RCUT                                 
     0    -18.5828119     23  1.200                                             
     0    -13.5018863     23  1.200                                             
     1     -7.0897853     23  1.500                                             
     1      9.5240782     23  1.500                                             
     2     -6.8029130      7  1.500                                             
  local pseudopotential read in
  partial core-charges read in
  partial kinetic energy density read in
  atomic valenz-charges read in
  non local Contribution for L=           0  read in
    real space projection operators read in
  non local Contribution for L=           0  read in
    real space projection operators read in
  non local Contribution for L=           1  read in
    real space projection operators read in
  non local Contribution for L=           1  read in
    real space projection operators read in
    PAW grid and wavefunctions read in
 
   number of l-projection  operators is LMAX  =           4
   number of lm-projection operators is LMMAX =           8
 
 POTCAR:    PAW_PBE Zn 06Sep2000                  
   VRHFIN =Zn: d10 p2                                                           
   LEXCH  = PE                                                                  
   EATOM  =  1748.8345 eV,  128.5357 Ry                                         
                                                                                
   TITEL  = PAW_PBE Zn 06Sep2000                                                
   LULTRA =        F    use ultrasoft PP ?                                      
   IUNSCR =        1    unscreen: 0-lin 1-nonlin 2-no                           
   RPACOR =    2.000    partial core radius                                     
   POMASS =   65.390; ZVAL   =   12.000    mass and valenz                      
   RCORE  =    2.300    outmost cutoff radius                                   
   RWIGS  =    2.400; RWIGS  =    1.270    wigner-seitz radius (au A)           
   ENMAX  =  276.723; ENMIN  =  207.542 eV                                      
   RCLOC  =    1.828    cutoff for local pot                                    
   LCOR   =        T    correct aug charges                                     
   LPAW   =        T    paw PP                                                  
   EAUG   =  575.892                                                            
   DEXC   =    0.000                                                            
   RMAX   =    2.347    core radius for proj-oper                               
   RAUG   =    1.300    factor for augmentation sphere                          
   RDEP   =    2.324    radius for radial grids                                 
   RDEPT  =    1.788    core radius for aug-charge                              
                                                                                
   Atomic configuration                                                         
    9 entries                                                                   
     n  l   j            E        occ.                                          
     1  0  0.50     -9524.6913   2.0000                                         
     2  0  0.50     -1158.1882   2.0000                                         
     2  1  1.50     -1003.8506   6.0000                                         
     3  0  0.50      -129.2194   2.0000                                         
     3  1  1.50       -83.3890   6.0000                                         
     3  2  2.50       -10.1410  10.0000                                         
     4  0  0.50        -5.9785   2.0000                                         
     4  1  0.50        -4.0817   0.0000                                         
     4  3  2.50        -1.3606   0.0000                                         
   Description                                                                  
     l       E           TYP  RCUT    TYP  RCUT                                 
     2    -10.1410010     23  2.300                                             
     2    -11.5015836     23  2.300                                             
     0     -5.9785163     23  2.300                                             
     0      1.1858015     23  2.300                                             
     1     -2.7211652     23  2.300                                             
     1     13.2444212     23  2.300                                             
  local pseudopotential read in
  partial core-charges read in
  partial kinetic energy density read in
  atomic valenz-charges read in
  non local Contribution for L=           2  read in
    real space projection operators read in
  non local Contribution for L=           2  read in
    real space projection operators read in
  non local Contribution for L=           0  read in
    real space projection operators read in
  non local Contribution for L=           0  read in
    real space projection operators read in
  non local Contribution for L=           1  read in
    real space projection operators read in
  non local Contribution for L=           1  read in
    real space projection operators read in
    PAW grid and wavefunctions read in
 
   number of l-projection  operators is LMAX  =           6
   number of lm-projection operators is LMMAX =          18
 
 POTCAR:    PAW_PBE Fe 06Sep2000                  
   VRHFIN =Fe:  d7 s1                                                           
   LEXCH  = PE                                                                  
   EATOM  =   594.3153 eV,   43.6809 Ry                                         
                                                                                
   TITEL  = PAW_PBE Fe 06Sep2000                                                
   LULTRA =        F    use ultrasoft PP ?                                      
   IUNSCR =        1    unscreen: 0-lin 1-nonlin 2-no                           
   RPACOR =    2.000    partial core radius                                     
   POMASS =   55.847; ZVAL   =    8.000    mass and valenz                      
   RCORE  =    2.300    outmost cutoff radius                                   
   RWIGS  =    2.460; RWIGS  =    1.302    wigner-seitz radius (au A)           
   ENMAX  =  267.882; ENMIN  =  200.911 eV                                      
   RCLOC  =    1.701    cutoff for local pot                                    
   LCOR   =        T    correct aug charges                                     
   LPAW   =        T    paw PP                                                  
   EAUG   =  511.368                                                            
   DEXC   =    0.000                                                            
   RMAX   =    2.356    core radius for proj-oper                               
   RAUG   =    1.300    factor for augmentation sphere                          
   RDEP   =    2.442    radius for radial grids                                 
   RDEPT  =    1.890    core radius for aug-charge                              
                                                                                
   Atomic configuration                                                         
    9 entries                                                                   
     n  l   j            E        occ.                                          
     1  0  0.50     -6993.8440   2.0000                                         
     2  0  0.50      -814.6047   2.0000                                         
     2  1  1.50      -693.3689   6.0000                                         
     3  0  0.50       -89.4732   2.0000                                         
     3  1  1.50       -55.6373   6.0000                                         
     3  2  2.50        -3.8151   7.0000                                         
     4  0  0.50        -4.2551   1.0000                                         
     4  1  1.50        -3.4015   0.0000                                         
     4  3  2.50        -1.3606   0.0000                                         
   Description                                                                  
     l       E           TYP  RCUT    TYP  RCUT                                 
     2     -3.8151135     23  2.300                                             
     2     -5.1756961     23  2.300                                             
     0     -4.2550963     23  2.300                                             
     0      7.2035603     23  2.300                                             
     1     -2.7211652     23  2.300                                             
     1     18.4316424     23  2.300                                             
  local pseudopotential read in
  partial core-charges read in
  partial kinetic energy density read in
  atomic valenz-charges read in
  non local Contribution for L=           2  read in
    real space projection operators read in
  non local Contribution for L=           2  read in
    real space projection operators read in
  non local Contribution for L=           0  read in
    real space projection operators read in
  non local Contribution for L=           0  read in
    real space projection operators read in
  non local Contribution for L=           1  read in
    real space projection operators read in
  non local Contribution for L=           1  read in
    real space projection operators read in
    PAW grid and wavefunctions read in
 
   number of l-projection  operators is LMAX  =           6
   number of lm-projection operators is LMMAX =          18
 

 ----------------------------------------------------------------------------- 
|                                                                             |
|  ADVICE TO THIS USER RUNNING 'VASP/VAMP'   (HEAR YOUR MASTER'S VOICE ...):  |
|                                                                             |
|      You have a (more or less) 'large supercell' and for larger cells       |
|      it might be more efficient to use real space projection opertators     |
|      So try LREAL= Auto  in the INCAR   file.                               |
|      Mind:          For very  accurate calculation you might also keep the  |
|      reciprocal projection scheme          (i.e. LREAL=.FALSE.)             |
|                                                                             |
 ----------------------------------------------------------------------------- 

  PAW_PBE C 08Apr2002                   :
 energy of atom  1       EATOM= -147.1560
 kinetic energy error for atom=    0.0076 (will be added to EATOM!!)
  PAW_PBE N 08Apr2002                   :
 energy of atom  2       EATOM= -264.5486
 kinetic energy error for atom=    0.0138 (will be added to EATOM!!)
  PAW_PBE Zn 06Sep2000                  :
 energy of atom  3       EATOM=-1748.8345
 kinetic energy error for atom=    0.0029 (will be added to EATOM!!)
  PAW_PBE Fe 06Sep2000                  :
 energy of atom  4       EATOM= -594.3153
 kinetic energy error for atom=    0.0026 (will be added to EATOM!!)
 
 
 POSCAR:  C  N Zn Fe                             
  positions in cartesian coordinates
  No initial velocities read in
 exchange correlation table for  LEXCH =        8
   RHO(1)=    0.500       N(1)  =     2000
   RHO(2)=  100.500       N(2)  =     4000

 VTST: version 3.2, (02/03/18)

 CHAIN: initializing optimizer
 
 OPT: Using VASP Conjugate-Gradient optimizer
 CHAIN: Read ICHAIN            0
 
 POSCAR:  C  N Zn Fe                             
  positions in cartesian coordinates
  No initial velocities read in
 


--------------------------------------------------------------------------------------------------------


 ion  position               nearest neighbor table
   1  0.222  0.998  0.500-  17 1.42   4 1.42   3 1.43
   2  0.055  0.099  0.499-  34 1.42   7 1.44   3 1.44
   3  0.110  0.999  0.500-   1 1.43  15 1.43   2 1.44
   4  0.278  0.096  0.499-   5 1.42   1 1.42  19 1.42
   5  0.222  0.194  0.498-   4 1.42   8 1.43   7 1.43
   6  0.056  0.299  0.497-  38 1.44   7 1.45  10 1.45
   7  0.111  0.198  0.498-   5 1.43   2 1.44   6 1.45
   8  0.280  0.291  0.494-  51 1.41   5 1.43  53 1.45
   9  0.058  0.499  0.500-  42 1.44  12 1.47  10 1.47
  10  0.115  0.397  0.496-  51 1.42   6 1.45   9 1.47
  11  0.056  0.700  0.503-  46 1.42  16 1.44  12 1.45
  12  0.113  0.601  0.506-  52 1.41  11 1.45   9 1.47
  13  0.277  0.705  0.507-  52 1.40  14 1.42  25 1.46
  14  0.222  0.803  0.503-  13 1.42  16 1.42  17 1.42
  15  0.055  0.900  0.501-  50 1.42   3 1.43  16 1.43
  16  0.111  0.800  0.503-  14 1.42  15 1.43  11 1.44
  17  0.277  0.900  0.501-   1 1.42  14 1.42  28 1.43
  18  0.556  0.998  0.500-  30 1.42  20 1.43  21 1.43
  19  0.389  0.096  0.499-  20 1.42   4 1.42  23 1.43
  20  0.445  0.997  0.500-  28 1.42  19 1.42  18 1.43
  21  0.612  0.096  0.499-  22 1.41  32 1.42  18 1.43
  22  0.558  0.194  0.498-  55 1.38  21 1.41  23 1.44
  23  0.445  0.194  0.497-  53 1.41  19 1.43  22 1.44
  24  0.558  0.606  0.503-  56 1.39  54 1.42  26 1.42
  25  0.391  0.702  0.506-  54 1.43  29 1.43  13 1.46
  26  0.613  0.704  0.502-  44 1.42  27 1.42  24 1.42
  27  0.557  0.802  0.502-  29 1.42  26 1.42  30 1.43
  28  0.389  0.899  0.502-  20 1.42  17 1.43  29 1.43
  29  0.446  0.801  0.503-  27 1.42  25 1.43  28 1.43
  30  0.612  0.900  0.500-  18 1.42  48 1.42  27 1.43
  31  0.889  1.000  0.500-  33 1.42  50 1.44  34 1.44
  32  0.723  0.099  0.499-  21 1.42  33 1.43  37 1.44
  33  0.779  1.000  0.500-  31 1.42  32 1.43  48 1.43
  34  0.943  0.100  0.499-   2 1.42  31 1.44  35 1.45
  35  0.888  0.200  0.499-  37 1.43  38 1.44  34 1.45
  36  0.716  0.298  0.498-  55 1.40  37 1.45  41 1.47
  37  0.775  0.200  0.499-  35 1.43  32 1.44  36 1.45
  38  0.943  0.300  0.498-  35 1.44   6 1.44  39 1.45
  39  0.885  0.400  0.499-  38 1.45  41 1.45  42 1.47
  40  0.718  0.504  0.500-  56 1.36  45 1.45  41 1.47
  41  0.772  0.400  0.499-  39 1.45  36 1.47  40 1.47
  42  0.946  0.499  0.500-   9 1.44  43 1.45  39 1.47
  43  0.890  0.600  0.501-  45 1.43  46 1.44  42 1.45
  44  0.724  0.702  0.501-  26 1.42  49 1.43  45 1.44
  45  0.778  0.601  0.500-  43 1.43  44 1.44  40 1.45
  46  0.945  0.700  0.501-  11 1.42  47 1.44  43 1.44
  47  0.890  0.800  0.500-  49 1.42  50 1.44  46 1.44
  48  0.724  0.900  0.500-  30 1.42  33 1.43  49 1.43
  49  0.779  0.801  0.500-  47 1.42  44 1.43  48 1.43
  50  0.945  0.900  0.500-  15 1.42  31 1.44  47 1.44
  51  0.225  0.389  0.491-   8 1.41  10 1.42  57 1.93
  52  0.223  0.609  0.513-  13 1.40  12 1.41  57 1.95
  53  0.394  0.293  0.494-  23 1.41   8 1.45  58 1.98
  54  0.447  0.603  0.505-  24 1.42  25 1.43  57 2.00  58 2.57
  55  0.606  0.291  0.496-  22 1.38  36 1.40  58 1.97
  56  0.612  0.510  0.501-  40 1.36  24 1.39  58 1.94
  57  0.329  0.499  0.502-  51 1.93  52 1.95  54 2.00  58 2.48
  58  0.501  0.406  0.494-  56 1.94  55 1.97  53 1.98  57 2.48  54 2.57
 
  LATTYP: Found a triclinic cell.
 ALAT       =    12.7787296156
 B/A-ratio  =     0.9830960829
 C/A-ratio  =     1.5486107871
 COS(alpha) =     0.0000537113
 COS(beta)  =     0.0014900887
 COS(gamma) =     0.0030635011
  
  Lattice vectors:
  
 A1 = ( -12.7787247946,  -0.0083805447,   0.0072785912)
 A2 = (  -0.0302474781, -12.5626825946,  -0.0007363197)
 A3 = (  -0.0182146579,  -0.0021789369,  19.7892700253)


Analysis of symmetry for initial positions (statically):
=====================================================================
 Subroutine PRICEL returns:
 Original cell was already a primitive cell.
 

 Routine SETGRP: Setting up the symmetry group for a 
 triclinic supercell.


 Subroutine GETGRP returns: Found  1 space group operations
 (whereof  1 operations were pure point group operations)
 out of a pool of  2 trial point group operations.


The static configuration has the point symmetry C_1 .


Analysis of symmetry for dynamics (positions and initial velocities):
=====================================================================
 Subroutine PRICEL returns:
 Original cell was already a primitive cell.
 

 Routine SETGRP: Setting up the symmetry group for a 
 triclinic supercell.


 Subroutine GETGRP returns: Found  1 space group operations
 (whereof  1 operations were pure point group operations)
 out of a pool of  2 trial point group operations.


The dynamic configuration has the point symmetry C_1 .


Analysis of structural, dynamic, and magnetic symmetry:
=====================================================================
 Subroutine PRICEL returns:
 Original cell was already a primitive cell.
 

 Routine SETGRP: Setting up the symmetry group for a 
 triclinic supercell.


 Subroutine GETGRP returns: Found  1 space group operations
 (whereof  1 operations were pure point group operations)
 out of a pool of  2 trial point group operations.


The magnetic configuration has the point symmetry C_1 .


 Subroutine INISYM returns: Found  1 space group operations
 (whereof  1 operations are pure point group operations),
 and found     1 'primitive' translations

 
 
 KPOINTS: KPOINTS created by Atomic Simulation Env

Automatic generation of k-mesh.
Space group operators:
 irot       det(A)        alpha          n_x          n_y          n_z        tau_x        tau_y        tau_z
    1     1.000000     0.000001     1.000000     0.000000     0.000000     0.000000     0.000000     0.000000
 
 Subroutine IBZKPT returns following result:
 ===========================================
 
 Found      1 irreducible k-points:
 
 Following reciprocal coordinates:
            Coordinates               Weight
  0.000000  0.000000  0.000000      1.000000
 
 Following cartesian coordinates:
            Coordinates               Weight
  0.000000  0.000000  0.000000      1.000000
 
 
 Subroutine IBZKPT_HF returns following result:
 ==============================================
 
 Found      1 k-points in 1st BZ
 the following      1 k-points will be used (e.g. in the exchange kernel)
 Following reciprocal coordinates:   # in IRBZ
  0.000000  0.000000  0.000000    1.00000000   1 t-inv F


--------------------------------------------------------------------------------------------------------




 Dimension of arrays:
   k-points           NKPTS =      1   k-points in BZ     NKDIM =      1   number of bands    NBANDS=    157
   number of dos      NEDOS =    301   number of ions     NIONS =     58
   non local maximal  LDIM  =      6   non local SUM 2l+1 LMDIM =     18
   total plane-waves  NPLWV = ******
   max r-space proj   IRMAX =      1   max aug-charges    IRDMAX=  15079
   dimension x,y,z NGX =    96 NGY =   96 NGZ =  144
   dimension x,y,z NGXF=   192 NGYF=  192 NGZF=  288
   support grid    NGXF=   192 NGYF=  192 NGZF=  288
   ions per type =              54   2   1   1
   NGX,Y,Z   is equivalent  to a cutoff of  12.49, 12.70, 12.10 a.u.
   NGXF,Y,Z  is equivalent  to a cutoff of  24.98, 25.41, 24.19 a.u.

 SYSTEM =  unknown system                          
 POSCAR =   C  N Zn Fe                             

 Startparameter for this run:
   NWRITE =      2    write-flag & timer
   PREC   = accura    normal or accurate (medium, high low for compatibility)
   ISTART =      1    job   : 0-new  1-cont  2-samecut
   ICHARG =      0    charge: 1-file 2-atom 10-const
   ISPIN  =      2    spin polarized calculation?
   LNONCOLLINEAR =      F non collinear calculations
   LSORBIT =      F    spin-orbit coupling
   INIWAV =      1    electr: 0-lowe 1-rand  2-diag
   LASPH  =      T    aspherical Exc in radial PAW
   METAGGA=      F    non-selfconsistent MetaGGA calc.

 Electronic Relaxation 1
   ENCUT  =  500.0 eV  36.75 Ry    6.06 a.u.  23.30 22.90 36.08*2*pi/ulx,y,z
   ENINI  =  500.0     initial cutoff
   ENAUG  =  644.9 eV  augmentation charge cutoff
   NELM   =    250;   NELMIN=  2; NELMDL=  0     # of ELM steps 
   EDIFF  = 0.1E-03   stopping-criterion for ELM
   LREAL  =      F    real-space projection
   NLSPLINE    = F    spline interpolate recip. space projectors
   LCOMPAT=      F    compatible to vasp.4.4
   GGA_COMPAT  = T    GGA compatible to vasp.4.4-vasp.4.6
   LMAXPAW     = -100 max onsite density
   LMAXMIX     =    2 max onsite mixed and CHGCAR
   VOSKOWN=      0    Vosko Wilk Nusair interpolation
   ROPT   =    0.00000   0.00000   0.00000   0.00000
 Ionic relaxation
   EDIFFG = -.3E-01   stopping-criterion for IOM
   NSW    =      0    number of steps for IOM
   NBLOCK =      1;   KBLOCK =      1    inner block; outer block 
   IBRION =     -1    ionic relax: 0-MD 1-quasi-New 2-CG
   NFREE  =      1    steps in history (QN), initial steepest desc. (CG)
   ISIF   =      2    stress and relaxation
   IWAVPR =     10    prediction:  0-non 1-charg 2-wave 3-comb
   ISYM   =      3    0-nonsym 1-usesym 2-fastsym
   LCORR  =      T    Harris-Foulkes like correction to forces

   POTIM  = 0.5000    time-step for ionic-motion
   TEIN   =    0.0    initial temperature
   TEBEG  =    0.0;   TEEND  =   0.0 temperature during run
   SMASS  =  -3.00    Nose mass-parameter (am)
   estimated Nose-frequenzy (Omega)   =  0.10E-29 period in steps =****** mass=  -0.373E-26a.u.
   SCALEE = 1.0000    scale energy and forces
   NPACO  =    256;   APACO  = 16.0  distance and # of slots for P.C.
   PSTRESS=    0.0 pullay stress

  Mass of Ions in am
   POMASS =  12.01 14.00 65.39 55.85
  Ionic Valenz
   ZVAL   =   4.00  5.00 12.00  8.00
  Atomic Wigner-Seitz radii
   RWIGS  =  -1.00 -1.00 -1.00 -1.00
  virtual crystal weights 
   VCA    =   1.00  1.00  1.00  1.00
   NELECT =     246.0000    total number of electrons
   NUPDOWN=      -1.0000    fix difference up-down

 DOS related values:
   EMIN   =  10.00;   EMAX   =-10.00  energy-range for DOS
   EFERMI =   0.00
   ISMEAR =     0;   SIGMA  =   0.10  broadening in eV -4-tet -1-fermi 0-gaus

 Electronic relaxation 2 (details)
   IALGO  =     53    algorithm
   LDIAG  =      T    sub-space diagonalisation (order eigenvalues)
   LSUBROT=      F    optimize rotation matrix (better conditioning)
   TURBO    =      0    0=normal 1=particle mesh
   IRESTART =      0    0=no restart 2=restart with 2 vectors
   NREBOOT  =      0    no. of reboots
   NMIN     =      0    reboot dimension
   EREF     =   0.00    reference energy to select bands
   IMIX   =      4    mixing-type and parameters
     AMIX     =   0.40;   BMIX     =  1.00
     AMIX_MAG =   1.60;   BMIX_MAG =  1.00
     AMIN     =   0.10
     WC   =   100.;   INIMIX=   1;  MIXPRE=   1;  MAXMIX= -45

 Intra band minimization:
   WEIMIN = 0.0000     energy-eigenvalue tresh-hold
   EBREAK =  0.16E-06  absolut break condition
   DEPER  =   0.30     relativ break condition  

   TIME   =   0.20     timestep for ELM

  volume/ion in A,a.u.               =      54.77       369.63
  Fermi-wavevector in a.u.,A,eV,Ry     =   0.697783  1.318618  6.624689  0.486901
  Thomas-Fermi vector in A             =   1.781206
 
 Write flags
   LWAVE        =      T    write WAVECAR
   LDOWNSAMPLE  =      F    k-point downsampling of WAVECAR
   LCHARG       =      T    write CHGCAR
   LVTOT        =      F    write LOCPOT, total local potential
   LVHAR        =      F    write LOCPOT, Hartree potential only
   LELF         =      F    write electronic localiz. function (ELF)
   LORBIT       =     11    0 simple, 1 ext, 2 COOP (PROOUT), +10 PAW based schemes


 Dipole corrections
   LMONO  =      F    monopole corrections only (constant potential shift)
   LDIPOL =      T    correct potential (dipole corrections)
   IDIPOL =      3    1-x, 2-y, 3-z, 4-all directions 
   EPSILON=  1.0000000 bulk dielectric constant

 Exchange correlation treatment:
   GGA     =    PE    GGA type
   LEXCH   =     8    internal setting for exchange type
   VOSKOWN=      0    Vosko Wilk Nusair interpolation
   EXXOEP  =     0    0=HF, 1=EXX-LHF (local Hartree Fock) 2=EXX OEP
   LHFCALC =     T    Hartree Fock is set to
   LSYMGRAD=     F    symmetrize gradient (conserves proper symmetry)
   PRECFOCK=normal    Normal, Fast or Accurate (Low or Medium for compatibility)
   LRHFCALC=     F    long range Hartree Fock
   LRSCOR  =     F    long range correlation only (use DFT for short range part)
   LTHOMAS =     F    Thomas Fermi screening in HF
   LMODELHF=     F    short range full HF, long range fraction AEXX
   ENCUT4O =  -1.0   cutoff for four orbital integrals eV
   LMAXFOCK=     4    L truncation for augmentation on plane wave grid
   LMAXFOCKAE=  -1    L truncation for all-electron charge restoration on plane wave grid
   NMAXFOCKAE=   1    number of basis functions for all-electron charge restoration
   LFOCKAEDFT=     F  apply the AE augmentation even for DFT
   NKREDX  =     1    reduce k-point grid by
   NKREDY  =     1    reduce k-point grid by
   NKREDZ  =     1    reduce k-point grid by
   SHIFTRED=     F    shift reduced grid of Gamma
   HFKIDENT=     F    idential grid for each k-point
   ODDONLY =     F    use only odd q-grid points
   EVENONLY=     F    use only even q-grid points
   HFALPHA =   -1.0000 decay constant for conv. correction
   MCALPHA =    0.0000 extent of test-charge in conv. correction in multipole expansion
   AEXX    =    0.2500 exact exchange contribution
   HFSCREEN=    0.2000 screening length (either q_TF or 0.3 A-1)
   HFSCREENC=   0.2000 screening length for correlation (either q_TF or 0.3 A-1)
   HFRCUT  =    0.0000 spherical cutoff for potential kernel
   ALDAX   =    0.7500 LDA exchange part
   AGGAX   =    0.7500 GGA exchange part
   ALDAC   =    1.0000 LDA correlation
   AGGAC   =    1.0000 GGA correlation
   ENCUTFOCK=  -1.0 apply spherical cutoff to Coloumb kernel
   NBANDSGWLOW=     1    first orbital included in HF term
   NBLOCK_FOCK=    64    blocking factor in FOCK_ACC
 Linear response parameters
   LEPSILON=     F    determine dielectric tensor
   LRPA    =     F    only Hartree local field effects (RPA)
   LNABLA  =     F    use nabla operator in PAW spheres
   LVEL    =     F    velocity operator in full k-point grid
   LINTERFAST=   F  fast interpolation
   KINTER  =     0    interpolate to denser k-point grid
   CSHIFT  =0.1000    complex shift for real part using Kramers Kronig
   OMEGAMAX=  -1.0    maximum frequency
   DEG_THRESHOLD= 0.2000000E-02 threshold for treating states as degnerate
   RTIME   =   -0.100 relaxation time in fs
  (WPLASMAI=    0.000 imaginary part of plasma frequency in eV, 0.658/RTIME)
   DFIELD  = 0.0000000 0.0000000 0.0000000 field for delta impulse in time
 
 Orbital magnetization related:
   ORBITALMAG=     F  switch on orbital magnetization
   LCHIMAG   =     F  perturbation theory with respect to B field
   DQ        =  0.001000  dq finite difference perturbation B field
   LLRAUG    =     F  two centre corrections for induced B field



--------------------------------------------------------------------------------------------------------


 Static calculation
 charge density and potential will be updated during run
 spin polarized calculation
 Conjugate gradient for all bands (Freysoldt, et al. PRB 79, 241103 (2009))
 perform sub-space diagonalisation
    before iterative eigenvector-optimisation
 modified Broyden-mixing scheme, WC =      100.0
 initial mixing is a Kerker type mixing with AMIX =  0.4000 and BMIX =      1.0000
 Hartree-type preconditioning will be used
 using additional bands           34
 reciprocal scheme for non local part
 use partial core corrections
 no Harris-corrections to forces 
 use gradient corrections 
 use of overlap-Matrix (Vanderbilt PP)
 Gauss-broadening in eV      SIGMA  =   0.10


--------------------------------------------------------------------------------------------------------


  energy-cutoff  :      500.00
  volume of cell :     3176.87
      direct lattice vectors                 reciprocal lattice vectors
    12.778724795  0.008380545 -0.007278591     0.078255234 -0.000188421  0.000072008
     0.030247478 12.562682595  0.000736320    -0.000052199  0.079600958  0.000008717
    -0.018214658 -0.002178937 19.789270025     0.000028785 -0.000003031  0.050532461

  length of vectors
    12.778729616 12.562719030 19.789278528     0.078255494  0.079600976  0.050532469


 
 old parameters found on file WAVECAR:
  energy-cutoff  :      500.00
  volume of cell :     3176.87
      direct lattice vectors                 reciprocal lattice vectors
    12.661700000  0.000000000  0.000000000     0.078978336 -0.000138533  0.000045640
     0.021991991 12.537780712  0.000000000     0.000000000  0.079758932 -0.000008016
    -0.011560896  0.002011131 20.011796560     0.000000000  0.000000000  0.049970526

  length of vectors

 
 k-points in units of 2pi/SCALE and weight: KPOINTS created by Atomic Simulation Env
   0.00000000  0.00000000  0.00000000       1.000
 
 k-points in reciprocal lattice and weights: KPOINTS created by Atomic Simulation Env
   0.00000000  0.00000000  0.00000000       1.000
 
 position of ions in fractional coordinates (direct lattice) 
   0.22180044  0.99839052  0.50022071
   0.05472574  0.09917382  0.49906746
   0.11023856  0.99938336  0.50004390
   0.27765338  0.09609149  0.49922201
   0.22231245  0.19428233  0.49754424
   0.05553382  0.29880277  0.49723558
   0.11056488  0.19814080  0.49779611
   0.28027630  0.29106153  0.49388424
   0.05799381  0.49885674  0.50048170
   0.11510553  0.39708144  0.49590398
   0.05586576  0.70036191  0.50287565
   0.11320233  0.60112317  0.50557499
   0.27709067  0.70466486  0.50746657
   0.22190234  0.80257075  0.50312664
   0.05540738  0.90004705  0.50080616
   0.11064541  0.80047668  0.50252464
   0.27749553  0.90043950  0.50137994
   0.55626218  0.99807555  0.50013707
   0.38914977  0.09566573  0.49908915
   0.44473101  0.99740757  0.50037454
   0.61238177  0.09643299  0.49924858
   0.55756480  0.19385758  0.49770173
   0.44507722  0.19389782  0.49708258
   0.55779434  0.60643821  0.50307509
   0.39144941  0.70196786  0.50567985
   0.61322581  0.70434525  0.50176372
   0.55694135  0.80203164  0.50156060
   0.38920443  0.89947156  0.50164296
   0.44583061  0.80108866  0.50285406
   0.61234293  0.90049137  0.50042196
   0.88944582  0.99991891  0.49956282
   0.72314558  0.09864223  0.49908590
   0.77859503  0.99964263  0.49950707
   0.94337095  0.10003244  0.49924878
   0.88752182  0.20035776  0.49884754
   0.71551992  0.29807966  0.49773430
   0.77543810  0.19983582  0.49859596
   0.94285874  0.29985415  0.49830337
   0.88531351  0.39958636  0.49852552
   0.71785627  0.50363719  0.49999448
   0.77153497  0.39989460  0.49853337
   0.94552723  0.49891011  0.49980650
   0.88972771  0.59978809  0.50057599
   0.72416222  0.70194074  0.50068650
   0.77817069  0.60127275  0.50042786
   0.94462243  0.69998825  0.50083433
   0.88990547  0.80029782  0.50008571
   0.72352419  0.90042346  0.49997109
   0.77908429  0.80102495  0.50014555
   0.94459244  0.90015626  0.50004995
   0.22547191  0.38869766  0.49054250
   0.22271305  0.60858506  0.51282462
   0.39350221  0.29313569  0.49392430
   0.44697313  0.60323090  0.50511714
   0.60639043  0.29141426  0.49612589
   0.61154237  0.51019556  0.50146266
   0.32945148  0.49865392  0.50178167
   0.50058805  0.40626225  0.49444221
 
 position of ions in cartesian coordinates  (Angst):
   2.85541422 12.54323200  9.89812350
   0.69323457  1.24526044  9.87585541
   1.42982893 12.55477027  9.89543727
   3.54186945  1.20840595  9.87728907
   2.83768356  2.44148622  9.84456226
   0.70963250  3.75314626  9.83974503
   1.40980424  2.48902193  9.85036270
   3.58138159  3.65778636  9.77178281
   0.74706001  6.26637444  9.90411262
   1.47387989  4.98829219  9.81303235
   0.72591768  8.79779677  9.95165116
   1.45555503  7.55156668 10.00457868
   3.55293643  8.85369741 10.04089509
   2.85074038 10.08320494  9.95548472
   0.72613786 11.30637856  9.91084778
   1.42896636 10.05596675  9.94437986
   3.56414257 11.31316875  9.92058625
   7.12940079 12.54207837  9.89403358
   4.96664078  1.20399197  9.87384790
   5.70415006 12.53275147  9.89954428
   7.81928133  1.21550136  9.87537865
   7.12176541  2.43895951  9.84523829
   5.68432999  2.43852366  9.83380472
   7.13708019  7.62206919  9.95187540
   5.01424624  8.82077809 10.00470275
   7.84840906  8.85251161  9.92559297
   7.13212396 10.07924358  9.92205501
   4.99160583 11.30194440  9.92497743
   5.71221831 10.06646324  9.94845969
   7.84308441 11.31662867  9.89919142
  11.38712895 12.56802947  9.88024586
   9.23477132  1.24418392  9.87135485
   9.97058995 12.56362972  9.87994936
  12.04900984  1.26349387  9.87297619
  11.33837107  2.52338188  9.86551622
   9.14338230  3.74959208  9.84480994
   9.90607280  2.51588615  9.86135317
  12.04852578  3.77378842  9.85441795
  11.31618374  5.02620977  9.85930649
   9.17941426  6.33196077  9.88967156
   9.86224820  5.02912857  9.86029026
  12.08861923  6.27448440  9.88429101
  11.37860980  7.54131310  9.89999910
   9.26598186  8.82323667  9.90346641
   9.95310098  7.55902977  9.89788084
  12.08312041  8.80055538  9.90478564
  11.38695523 10.06025576  9.89044308
   9.26384524 11.31670819  9.88945963
   9.97082278 10.06846152  9.89243453
  12.08880601 11.31520404  9.88941090
   2.88406558  4.88390608  9.70612307
   2.85505605  7.64620993 10.14725200
   5.02832646  3.68479214  9.77175314
   5.72079235  7.58084362  9.99309040
   7.74867415  3.66494576  9.81377014
   7.82102976  6.41345729  9.91950441
   4.21591308  6.26609853  9.92786214
   6.40015920  5.10686150  9.78130604
 


--------------------------------------------------------------------------------------------------------


 k-point  1 :   0.0000 0.0000 0.0000  plane waves:   80621

 maximum and minimum number of plane-waves per node :      2526     2512

 maximum number of plane-waves:     80621
 maximum index in each direction: 
   IXMAX=   23   IYMAX=   22   IZMAX=   36
   IXMIN=  -23   IYMIN=  -22   IZMIN=  -36


 parallel 3D FFT for wavefunctions:
    minimum data exchange during FFTs selected (reduces bandwidth)
 parallel 3D FFT for charge:
    minimum data exchange during FFTs selected (reduces bandwidth)


 FFT grid for exact exchange (Hartree Fock) 
  NGX = 70; NGY = 70; NGZ =112

 
 Radii for the augmentation spheres in the non-local exchange
 for species   1 augmentation radius   0.874 (default was   0.699)
       energy cutoff for augmentation   2000.0
 for species   2 augmentation radius   0.886 (default was   0.709)
       energy cutoff for augmentation   2000.0
 for species   3 augmentation radius   1.190 (default was   0.952)
       energy cutoff for augmentation   2000.0
 for species   4 augmentation radius   1.263 (default was   1.010)
       energy cutoff for augmentation   2000.0

 real space projection operators:
  total allocation   :       2416.41 KBytes
  max/ min on nodes  :        108.86         39.87

 Maximum index for augmentation-charges in exchange          125
  SETUP_FOCK is finished

 total amount of memory used by VASP MPI-rank0   122916. kBytes
=======================================================================

   base      :      30000. kBytes
   nonl-proj :       3785. kBytes
   fftplans  :      13738. kBytes
   grid      :      35361. kBytes
   one-center:         62. kBytes
   HF        :         23. kBytes
   nonlr-proj:       1619. kBytes
   wavefun   :      38328. kBytes
 
     INWAV:  cpu time    1.7770: real time    1.8101
 Broyden mixing: mesh for mixing (old mesh)
   NGX = 47   NGY = 45   NGZ = 73
  (NGX  =192   NGY  =192   NGZ  =288)
  gives a total of 154395 points

 charge density for first step will be calculated from the start-wavefunctions


--------------------------------------------------------------------------------------------------------


 Maximum index for augmentation-charges          712 (set IRDMAX)


--------------------------------------------------------------------------------------------------------


 initial charge from wavefunction
 First call to EWALD:  gamma=   0.121
 Maximum number of real-space cells 3x 3x 2
 Maximum number of reciprocal cells 2x 2x 4

    FEWALD:  cpu time    0.0040: real time    0.0040


--------------------------------------- Iteration      1(   1)  ---------------------------------------


    POTLOK:  cpu time    1.3266: real time    1.3298
    SETDIJ:  cpu time    2.0889: real time    2.0901
    TRIAL :  cpu time   62.8150: real time   62.8364
    CORREC:  cpu time    0.0011: real time    0.0013
    CHARGE:  cpu time    0.1806: real time    0.1806
    --------------------------------------------
      LOOP:  cpu time   66.4202: real time   66.4493

 eigenvalue-minimisations  :     0
 total energy-change (2. order) :-0.5688112E+03  (-0.8052752E+01)
 number of electron     246.0000018 magnetization       2.0016689
 augmentation part       17.5711207 magnetization       1.5626419

 DIPCOR: dipole corrections for dipol
 direction  3 min pos     1,
 dipolmoment          -0.000010     -0.000001      0.011051 electrons x Angstroem
 Tr[quadrupol]     -6756.332727

 energy correction for charged system         0.000000 eV
 dipol+quadrupol energy correction           -0.000003 eV
 added-field ion interaction          0.000003 eV  (added to PSCEN)


 Free energy of the ion-electron system (eV)
  ---------------------------------------------------
  alpha Z        PSCENC =       106.11429316
  Ewald energy   TEWEN  =     38646.31229175
  -Hartree energ DENC   =    -47871.14747184
  -exchange      EXHF   =       559.44450733
  -V(xc)+E(xc)   XCENC  =       645.23717502
  PAW double counting   =     28401.50159232   -28604.21392544
  entropy T*S    EENTRO =        -0.00076230
  eigenvalues    EBANDS =     -3162.76770852
  atomic energy  EATOM  =     10710.71333969
  ---------------------------------------------------
  free energy    TOTEN  =      -568.81120082 eV

  energy without entropy =     -568.81043852  energy(sigma->0) =     -568.81081967
  exchange ACFDT corr.  =        -0.01700663  see jH, gK, PRB 81, 115126


--------------------------------------------------------------------------------------------------------




--------------------------------------- Iteration      1(   2)  ---------------------------------------


    POTLOK:  cpu time    1.3545: real time    1.3547
    SETDIJ:  cpu time    2.1083: real time    2.1085
    TRIAL :  cpu time   62.8885: real time   62.8941
    CORREC:  cpu time    0.0010: real time    0.0012
    CHARGE:  cpu time    0.1796: real time    0.1797
    --------------------------------------------
      LOOP:  cpu time   66.5355: real time   66.5421

 eigenvalue-minimisations  :     0
 total energy-change (2. order) :-0.7203012E+01  (-0.8859382E+01)
 number of electron     246.0000018 magnetization       2.0001431
 augmentation part       17.5568853 magnetization       1.5713609

 DIPCOR: dipole corrections for dipol
 direction  3 min pos     1,
 dipolmoment          -0.000005     -0.000001      0.005953 electrons x Angstroem
 Tr[quadrupol]     -6756.155560

 energy correction for charged system         0.000000 eV
 dipol+quadrupol energy correction           -0.000001 eV
 added-field ion interaction          0.000002 eV  (added to PSCEN)


 Free energy of the ion-electron system (eV)
  ---------------------------------------------------
  alpha Z        PSCENC =       106.11429409
  Ewald energy   TEWEN  =     38646.31229175
  -Hartree energ DENC   =    -47864.20098278
  -exchange      EXHF   =       559.41477761
  -V(xc)+E(xc)   XCENC  =       644.99231780
  PAW double counting   =     28123.42222039   -28328.68746086
  entropy T*S    EENTRO =        -0.00007203
  eigenvalues    EBANDS =     -3174.09424802
  atomic energy  EATOM  =     10710.71333969
  ---------------------------------------------------
  free energy    TOTEN  =      -576.01421265 eV

  energy without entropy =     -576.01414062  energy(sigma->0) =     -576.01417664
  exchange ACFDT corr.  =        -0.00207926  see jH, gK, PRB 81, 115126


--------------------------------------------------------------------------------------------------------




--------------------------------------- Iteration      1(   3)  ---------------------------------------


    POTLOK:  cpu time    1.3560: real time    1.3560
    SETDIJ:  cpu time    2.1104: real time    2.1105
    TRIAL :  cpu time   63.0320: real time   63.0382
    CORREC:  cpu time    0.0009: real time    0.0012
    CHARGE:  cpu time    0.1802: real time    0.1802
    --------------------------------------------
      LOOP:  cpu time   66.6817: real time   66.6882

 eigenvalue-minimisations  :     0
 total energy-change (2. order) :-0.7568744E+01  (-0.6479444E+01)
 number of electron     246.0000018 magnetization       2.0000094
 augmentation part       17.5252738 magnetization       1.5766400

 DIPCOR: dipole corrections for dipol
 direction  3 min pos     1,
 dipolmoment          -0.000010     -0.000001      0.010388 electrons x Angstroem
 Tr[quadrupol]     -6755.924174

 energy correction for charged system         0.000000 eV
 dipol+quadrupol energy correction           -0.000003 eV
 added-field ion interaction          0.000003 eV  (added to PSCEN)


 Free energy of the ion-electron system (eV)
  ---------------------------------------------------
  alpha Z        PSCENC =       106.11429336
  Ewald energy   TEWEN  =     38646.31229175
  -Hartree energ DENC   =    -47847.81248635
  -exchange      EXHF   =       559.26831308
  -V(xc)+E(xc)   XCENC  =       644.57480338
  PAW double counting   =     27784.56786588   -27990.13229107
  entropy T*S    EENTRO =        -0.00000504
  eigenvalues    EBANDS =     -3197.18901407
  atomic energy  EATOM  =     10710.71333969
  ---------------------------------------------------
  free energy    TOTEN  =      -583.58295637 eV

  energy without entropy =     -583.58295133  energy(sigma->0) =     -583.58295385
  exchange ACFDT corr.  =        -0.00013615  see jH, gK, PRB 81, 115126


--------------------------------------------------------------------------------------------------------




--------------------------------------- Iteration      1(   4)  ---------------------------------------


    POTLOK:  cpu time    1.3598: real time    1.3599
    SETDIJ:  cpu time    2.1054: real time    2.1055
    TRIAL :  cpu time   63.0341: real time   63.0454
    CORREC:  cpu time    0.0009: real time    0.0011
    CHARGE:  cpu time    0.1798: real time    0.1798
    --------------------------------------------
      LOOP:  cpu time   66.6819: real time   66.6937

 eigenvalue-minimisations  :     0
 total energy-change (2. order) :-0.5377854E+01  (-0.3976511E+01)
 number of electron     246.0000018 magnetization       2.0000007
 augmentation part       17.5261536 magnetization       1.5778472

 DIPCOR: dipole corrections for dipol
 direction  3 min pos     1,
 dipolmoment          -0.000013     -0.000002      0.014323 electrons x Angstroem
 Tr[quadrupol]     -6755.825678

 energy correction for charged system         0.000000 eV
 dipol+quadrupol energy correction           -0.000006 eV
 added-field ion interaction          0.000004 eV  (added to PSCEN)


 Free energy of the ion-electron system (eV)
  ---------------------------------------------------
  alpha Z        PSCENC =       106.11429178
  Ewald energy   TEWEN  =     38646.31229175
  -Hartree energ DENC   =    -47837.45149928
  -exchange      EXHF   =       559.27002830
  -V(xc)+E(xc)   XCENC  =       644.31003967
  PAW double counting   =     27519.83531760   -27723.97215209
  entropy T*S    EENTRO =        -0.00000026
  eigenvalues    EBANDS =     -3214.09246321
  atomic energy  EATOM  =     10710.71333969
  ---------------------------------------------------
  free energy    TOTEN  =      -588.96081082 eV

  energy without entropy =     -588.96081056  energy(sigma->0) =     -588.96081069
  exchange ACFDT corr.  =        -0.00000733  see jH, gK, PRB 81, 115126


--------------------------------------------------------------------------------------------------------




--------------------------------------- Iteration      1(   5)  ---------------------------------------


    POTLOK:  cpu time    1.3584: real time    1.3586
    SETDIJ:  cpu time    2.1028: real time    2.1029
    TRIAL :  cpu time   62.9843: real time   62.9922
    CORREC:  cpu time    0.0007: real time    0.0007
    CHARGE:  cpu time    0.1798: real time    0.1801
    --------------------------------------------
      LOOP:  cpu time   66.6283: real time   66.6367

 eigenvalue-minimisations  :     0
 total energy-change (2. order) :-0.3268364E+01  (-0.2296593E+01)
 number of electron     246.0000018 magnetization       2.0000003
 augmentation part       17.5464572 magnetization       1.5752586

 DIPCOR: dipole corrections for dipol
 direction  3 min pos     1,
 dipolmoment          -0.000014     -0.000002      0.015191 electrons x Angstroem
 Tr[quadrupol]     -6755.886867

 energy correction for charged system         0.000000 eV
 dipol+quadrupol energy correction           -0.000007 eV
 added-field ion interaction          0.000005 eV  (added to PSCEN)


 Free energy of the ion-electron system (eV)
  ---------------------------------------------------
  alpha Z        PSCENC =       106.11429131
  Ewald energy   TEWEN  =     38646.31229175
  -Hartree energ DENC   =    -47839.50294627
  -exchange      EXHF   =       559.52375836
  -V(xc)+E(xc)   XCENC  =       644.35086503
  PAW double counting   =     27367.05093257   -27570.20167557
  entropy T*S    EENTRO =        -0.00000002
  eigenvalues    EBANDS =     -3216.59003174
  atomic energy  EATOM  =     10710.71333969
  ---------------------------------------------------
  free energy    TOTEN  =      -592.22917512 eV

  energy without entropy =     -592.22917511  energy(sigma->0) =     -592.22917512
  exchange ACFDT corr.  =        -0.00000030  see jH, gK, PRB 81, 115126


--------------------------------------------------------------------------------------------------------




--------------------------------------- Iteration      1(   6)  ---------------------------------------


    POTLOK:  cpu time    1.3570: real time    1.3570
    SETDIJ:  cpu time    2.1138: real time    2.1140
    TRIAL :  cpu time   63.0218: real time   63.0372
    CORREC:  cpu time    0.0007: real time    0.0009
    CHARGE:  cpu time    0.1800: real time    0.1800
    --------------------------------------------
      LOOP:  cpu time   66.6757: real time   66.6916

 eigenvalue-minimisations  :     0
 total energy-change (2. order) :-0.1899447E+01  (-0.1343303E+01)
 number of electron     246.0000018 magnetization       2.0000003
 augmentation part       17.5627983 magnetization       1.5697867

 DIPCOR: dipole corrections for dipol
 direction  3 min pos     1,
 dipolmoment          -0.000014     -0.000002      0.015660 electrons x Angstroem
 Tr[quadrupol]     -6756.005607

 energy correction for charged system         0.000000 eV
 dipol+quadrupol energy correction           -0.000007 eV
 added-field ion interaction          0.000005 eV  (added to PSCEN)


 Free energy of the ion-electron system (eV)
  ---------------------------------------------------
  alpha Z        PSCENC =       106.11429104
  Ewald energy   TEWEN  =     38646.31229175
  -Hartree energ DENC   =    -47848.04297122
  -exchange      EXHF   =       559.88934141
  -V(xc)+E(xc)   XCENC  =       644.57020368
  PAW double counting   =     27302.64669146   -27505.96087217
  entropy T*S    EENTRO =        -0.00000000
  eigenvalues    EBANDS =     -3210.37093752
  atomic energy  EATOM  =     10710.71333969
  ---------------------------------------------------
  free energy    TOTEN  =      -594.12862189 eV

  energy without entropy =     -594.12862189  energy(sigma->0) =     -594.12862189
  exchange ACFDT corr.  =        -0.00000001  see jH, gK, PRB 81, 115126


--------------------------------------------------------------------------------------------------------




--------------------------------------- Iteration      1(   7)  ---------------------------------------


    POTLOK:  cpu time    1.3561: real time    1.3563
    SETDIJ:  cpu time    2.1021: real time    2.1023
    TRIAL :  cpu time   63.0192: real time   63.0277
    CORREC:  cpu time    0.0005: real time    0.0005
    CHARGE:  cpu time    0.1799: real time    0.1802
    --------------------------------------------
      LOOP:  cpu time   66.6603: real time   66.6694

 eigenvalue-minimisations  :     0
 total energy-change (2. order) :-0.1123340E+01  (-0.8090137E+00)
 number of electron     246.0000018 magnetization       2.0000003
 augmentation part       17.5721732 magnetization       1.5642173

 DIPCOR: dipole corrections for dipol
 direction  3 min pos     1,
 dipolmoment          -0.000015     -0.000002      0.016533 electrons x Angstroem
 Tr[quadrupol]     -6756.093264

 energy correction for charged system         0.000000 eV
 dipol+quadrupol energy correction           -0.000008 eV
 added-field ion interaction          0.000005 eV  (added to PSCEN)


 Free energy of the ion-electron system (eV)
  ---------------------------------------------------
  alpha Z        PSCENC =       106.11429051
  Ewald energy   TEWEN  =     38646.31229175
  -Hartree energ DENC   =    -47855.30411843
  -exchange      EXHF   =       560.19069976
  -V(xc)+E(xc)   XCENC  =       644.77308658
  PAW double counting   =     27286.66443701   -27490.47666356
  entropy T*S    EENTRO =        -0.00000000
  eigenvalues    EBANDS =     -3204.23932538
  atomic energy  EATOM  =     10710.71333969
  ---------------------------------------------------
  free energy    TOTEN  =      -595.25196208 eV

  energy without entropy =     -595.25196208  energy(sigma->0) =     -595.25196208
  exchange ACFDT corr.  =        -0.00000000  see jH, gK, PRB 81, 115126


--------------------------------------------------------------------------------------------------------




--------------------------------------- Iteration      1(   8)  ---------------------------------------


    POTLOK:  cpu time    1.3565: real time    1.3569
    SETDIJ:  cpu time    2.1104: real time    2.1106
    TRIAL :  cpu time   62.4771: real time   62.4881
    CORREC:  cpu time    0.0005: real time    0.0005
    CHARGE:  cpu time    0.1800: real time    0.1802
    --------------------------------------------
      LOOP:  cpu time   66.1264: real time   66.1382

 eigenvalue-minimisations  :     0
 total energy-change (2. order) :-0.6833340E+00  (-0.4987037E+00)
 number of electron     246.0000018 magnetization       2.0000003
 augmentation part       17.5779715 magnetization       1.5601970

 DIPCOR: dipole corrections for dipol
 direction  3 min pos     1,
 dipolmoment          -0.000016     -0.000002      0.017047 electrons x Angstroem
 Tr[quadrupol]     -6756.126454

 energy correction for charged system         0.000000 eV
 dipol+quadrupol energy correction           -0.000008 eV
 added-field ion interaction          0.000005 eV  (added to PSCEN)


 Free energy of the ion-electron system (eV)
  ---------------------------------------------------
  alpha Z        PSCENC =       106.11429017
  Ewald energy   TEWEN  =     38646.31229175
  -Hartree energ DENC   =    -47858.44404961
  -exchange      EXHF   =       560.36301297
  -V(xc)+E(xc)   XCENC  =       644.87622326
  PAW double counting   =     27291.02229193   -27495.05022709
  entropy T*S    EENTRO =        -0.00000000
  eigenvalues    EBANDS =     -3201.84246916
  atomic energy  EATOM  =     10710.71333969
  ---------------------------------------------------
  free energy    TOTEN  =      -595.93529610 eV

  energy without entropy =     -595.93529610  energy(sigma->0) =     -595.93529610
  exchange ACFDT corr.  =        -0.00000000  see jH, gK, PRB 81, 115126


--------------------------------------------------------------------------------------------------------




--------------------------------------- Iteration      1(   9)  ---------------------------------------


    POTLOK:  cpu time    1.3566: real time    1.3567
    SETDIJ:  cpu time    2.1148: real time    2.1149
    TRIAL :  cpu time   62.4103: real time   62.4204
    CORREC:  cpu time    0.0005: real time    0.0008
    CHARGE:  cpu time    0.1798: real time    0.1798
    --------------------------------------------
      LOOP:  cpu time   66.0638: real time   66.0744

 eigenvalue-minimisations  :     0
 total energy-change (2. order) :-0.4235334E+00  (-0.3073611E+00)
 number of electron     246.0000018 magnetization       2.0000003
 augmentation part       17.5823473 magnetization       1.5568838

 DIPCOR: dipole corrections for dipol
 direction  3 min pos     1,
 dipolmoment          -0.000016     -0.000002      0.017007 electrons x Angstroem
 Tr[quadrupol]     -6756.124409

 energy correction for charged system         0.000000 eV
 dipol+quadrupol energy correction           -0.000008 eV
 added-field ion interaction          0.000005 eV  (added to PSCEN)


 Free energy of the ion-electron system (eV)
  ---------------------------------------------------
  alpha Z        PSCENC =       106.11429019
  Ewald energy   TEWEN  =     38646.31229175
  -Hartree energ DENC   =    -47858.46275984
  -exchange      EXHF   =       560.43190276
  -V(xc)+E(xc)   XCENC  =       644.89520750
  PAW double counting   =     27302.06701528   -27505.97740762
  entropy T*S    EENTRO =        -0.00000000
  eigenvalues    EBANDS =     -3202.45270923
  atomic energy  EATOM  =     10710.71333969
  ---------------------------------------------------
  free energy    TOTEN  =      -596.35882952 eV

  energy without entropy =     -596.35882952  energy(sigma->0) =     -596.35882952
  exchange ACFDT corr.  =        -0.00000000  see jH, gK, PRB 81, 115126


--------------------------------------------------------------------------------------------------------




--------------------------------------- Iteration      1(  10)  ---------------------------------------


    POTLOK:  cpu time    1.3547: real time    1.3549
    SETDIJ:  cpu time    2.1051: real time    2.1052
    TRIAL :  cpu time   62.4632: real time   62.4690
    CORREC:  cpu time    0.0005: real time    0.0008
    CHARGE:  cpu time    0.1797: real time    0.1797
    --------------------------------------------
      LOOP:  cpu time   66.1054: real time   66.1117

 eigenvalue-minimisations  :     0
 total energy-change (2. order) :-0.2617882E+00  (-0.1881752E+00)
 number of electron     246.0000018 magnetization       2.0000003
 augmentation part       17.5863584 magnetization       1.5533240

 DIPCOR: dipole corrections for dipol
 direction  3 min pos     1,
 dipolmoment          -0.000016     -0.000002      0.016997 electrons x Angstroem
 Tr[quadrupol]     -6756.115461

 energy correction for charged system         0.000000 eV
 dipol+quadrupol energy correction           -0.000008 eV
 added-field ion interaction          0.000005 eV  (added to PSCEN)


 Free energy of the ion-electron system (eV)
  ---------------------------------------------------
  alpha Z        PSCENC =       106.11429020
  Ewald energy   TEWEN  =     38646.31229175
  -Hartree energ DENC   =    -47857.71308316
  -exchange      EXHF   =       560.45808753
  -V(xc)+E(xc)   XCENC  =       644.88676033
  PAW double counting   =     27314.36170033   -27518.15337944
  entropy T*S    EENTRO =        -0.00000000
  eigenvalues    EBANDS =     -3203.60062497
  atomic energy  EATOM  =     10710.71333969
  ---------------------------------------------------
  free energy    TOTEN  =      -596.62061775 eV

  energy without entropy =     -596.62061775  energy(sigma->0) =     -596.62061775
  exchange ACFDT corr.  =        -0.00000000  see jH, gK, PRB 81, 115126


--------------------------------------------------------------------------------------------------------




--------------------------------------- Iteration      1(  11)  ---------------------------------------


    POTLOK:  cpu time    1.3523: real time    1.3524
    SETDIJ:  cpu time    2.1078: real time    2.1079
    TRIAL :  cpu time   62.4395: real time   62.4452
    CORREC:  cpu time    0.0005: real time    0.0005
    CHARGE:  cpu time    0.1799: real time    0.1802
    --------------------------------------------
      LOOP:  cpu time   66.0824: real time   66.0885

 eigenvalue-minimisations  :     0
 total energy-change (2. order) :-0.1613433E+00  (-0.1155947E+00)
 number of electron     246.0000018 magnetization       2.0000003
 augmentation part       17.5896722 magnetization       1.5496696

 DIPCOR: dipole corrections for dipol
 direction  3 min pos     1,
 dipolmoment          -0.000016     -0.000002      0.017242 electrons x Angstroem
 Tr[quadrupol]     -6756.114558

 energy correction for charged system         0.000000 eV
 dipol+quadrupol energy correction           -0.000009 eV
 added-field ion interaction          0.000005 eV  (added to PSCEN)


 Free energy of the ion-electron system (eV)
  ---------------------------------------------------
  alpha Z        PSCENC =       106.11429004
  Ewald energy   TEWEN  =     38646.31229175
  -Hartree energ DENC   =    -47857.60564480
  -exchange      EXHF   =       560.48239918
  -V(xc)+E(xc)   XCENC  =       644.88746311
  PAW double counting   =     27325.81051689   -27529.66946348
  entropy T*S    EENTRO =        -0.00000000
  eigenvalues    EBANDS =     -3203.82715343
  atomic energy  EATOM  =     10710.71333969
  ---------------------------------------------------
  free energy    TOTEN  =      -596.78196106 eV

  energy without entropy =     -596.78196106  energy(sigma->0) =     -596.78196106
  exchange ACFDT corr.  =        -0.00000000  see jH, gK, PRB 81, 115126


--------------------------------------------------------------------------------------------------------




--------------------------------------- Iteration      1(  12)  ---------------------------------------


    POTLOK:  cpu time    1.3537: real time    1.3538
    SETDIJ:  cpu time    2.1073: real time    2.1075
    TRIAL :  cpu time   62.4630: real time   62.4692
    CORREC:  cpu time    0.0005: real time    0.0005
    CHARGE:  cpu time    0.1800: real time    0.1803
    --------------------------------------------
      LOOP:  cpu time   66.1068: real time   66.1135

 eigenvalue-minimisations  :     0
 total energy-change (2. order) :-0.9974764E-01  (-0.7153775E-01)
 number of electron     246.0000018 magnetization       2.0000003
 augmentation part       17.5920727 magnetization       1.5463568

 DIPCOR: dipole corrections for dipol
 direction  3 min pos     1,
 dipolmoment          -0.000016     -0.000002      0.017428 electrons x Angstroem
 Tr[quadrupol]     -6756.120545

 energy correction for charged system         0.000000 eV
 dipol+quadrupol energy correction           -0.000009 eV
 added-field ion interaction          0.000005 eV  (added to PSCEN)


 Free energy of the ion-electron system (eV)
  ---------------------------------------------------
  alpha Z        PSCENC =       106.11428991
  Ewald energy   TEWEN  =     38646.31229175
  -Hartree energ DENC   =    -47857.98668665
  -exchange      EXHF   =       560.50867423
  -V(xc)+E(xc)   XCENC  =       644.89519694
  PAW double counting   =     27335.23636651   -27539.20834215
  entropy T*S    EENTRO =        -0.00000000
  eigenvalues    EBANDS =     -3203.46683893
  atomic energy  EATOM  =     10710.71333969
  ---------------------------------------------------
  free energy    TOTEN  =      -596.88170871 eV

  energy without entropy =     -596.88170871  energy(sigma->0) =     -596.88170871
  exchange ACFDT corr.  =        -0.00000000  see jH, gK, PRB 81, 115126


--------------------------------------------------------------------------------------------------------




--------------------------------------- Iteration      1(  13)  ---------------------------------------


    POTLOK:  cpu time    1.3500: real time    1.3502
    SETDIJ:  cpu time    2.1062: real time    2.1063
    TRIAL :  cpu time   62.4557: real time   62.4653
    CORREC:  cpu time    0.0005: real time    0.0005
    CHARGE:  cpu time    0.1798: real time    0.1801
    --------------------------------------------
      LOOP:  cpu time   66.0947: real time   66.1047

 eigenvalue-minimisations  :     0
 total energy-change (2. order) :-0.6225339E-01  (-0.4507042E-01)
 number of electron     246.0000018 magnetization       2.0000003
 augmentation part       17.5929226 magnetization       1.5432221

 DIPCOR: dipole corrections for dipol
 direction  3 min pos     1,
 dipolmoment          -0.000016     -0.000002      0.017382 electrons x Angstroem
 Tr[quadrupol]     -6756.127914

 energy correction for charged system         0.000000 eV
 dipol+quadrupol energy correction           -0.000009 eV
 added-field ion interaction          0.000005 eV  (added to PSCEN)


 Free energy of the ion-electron system (eV)
  ---------------------------------------------------
  alpha Z        PSCENC =       106.11428994
  Ewald energy   TEWEN  =     38646.31229175
  -Hartree energ DENC   =    -47858.38664286
  -exchange      EXHF   =       560.53131390
  -V(xc)+E(xc)   XCENC  =       644.90057855
  PAW double counting   =     27342.40256627   -27546.41119685
  entropy T*S    EENTRO =        -0.00000000
  eigenvalues    EBANDS =     -3203.12050248
  atomic energy  EATOM  =     10710.71333969
  ---------------------------------------------------
  free energy    TOTEN  =      -596.94396209 eV

  energy without entropy =     -596.94396209  energy(sigma->0) =     -596.94396209
  exchange ACFDT corr.  =        -0.00000000  see jH, gK, PRB 81, 115126


--------------------------------------------------------------------------------------------------------




--------------------------------------- Iteration      1(  14)  ---------------------------------------


    POTLOK:  cpu time    1.3452: real time    1.3452
    SETDIJ:  cpu time    2.1066: real time    2.1067
    TRIAL :  cpu time   62.4069: real time   62.4120
    CORREC:  cpu time    0.0005: real time    0.0005
    CHARGE:  cpu time    0.1796: real time    0.1799
    --------------------------------------------
      LOOP:  cpu time   66.0411: real time   66.0466

 eigenvalue-minimisations  :     0
 total energy-change (2. order) :-0.3956336E-01  (-0.2898128E-01)
 number of electron     246.0000018 magnetization       2.0000003
 augmentation part       17.5931015 magnetization       1.5400482

 DIPCOR: dipole corrections for dipol
 direction  3 min pos     1,
 dipolmoment          -0.000016     -0.000002      0.017293 electrons x Angstroem
 Tr[quadrupol]     -6756.133037

 energy correction for charged system         0.000000 eV
 dipol+quadrupol energy correction           -0.000009 eV
 added-field ion interaction          0.000005 eV  (added to PSCEN)


 Free energy of the ion-electron system (eV)
  ---------------------------------------------------
  alpha Z        PSCENC =       106.11429000
  Ewald energy   TEWEN  =     38646.31229175
  -Hartree energ DENC   =    -47858.58115820
  -exchange      EXHF   =       560.54838269
  -V(xc)+E(xc)   XCENC  =       644.90051024
  PAW double counting   =     27347.21329654   -27551.18325824
  entropy T*S    EENTRO =        -0.00000000
  eigenvalues    EBANDS =     -3203.02121991
  atomic energy  EATOM  =     10710.71333969
  ---------------------------------------------------
  free energy    TOTEN  =      -596.98352545 eV

  energy without entropy =     -596.98352545  energy(sigma->0) =     -596.98352545
  exchange ACFDT corr.  =        -0.00000000  see jH, gK, PRB 81, 115126


--------------------------------------------------------------------------------------------------------




--------------------------------------- Iteration      1(  15)  ---------------------------------------


    POTLOK:  cpu time    1.3435: real time    1.3436
    SETDIJ:  cpu time    2.1092: real time    2.1093
    TRIAL :  cpu time   62.4532: real time   62.4658
    CORREC:  cpu time    0.0005: real time    0.0005
    CHARGE:  cpu time    0.1799: real time    0.1801
    --------------------------------------------
      LOOP:  cpu time   66.0894: real time   66.1024

 eigenvalue-minimisations  :     0
 total energy-change (2. order) :-0.2570581E-01  (-0.1911567E-01)
 number of electron     246.0000018 magnetization       2.0000003
 augmentation part       17.5934874 magnetization       1.5370256

 DIPCOR: dipole corrections for dipol
 direction  3 min pos     1,
 dipolmoment          -0.000016     -0.000002      0.017313 electrons x Angstroem
 Tr[quadrupol]     -6756.135966

 energy correction for charged system         0.000000 eV
 dipol+quadrupol energy correction           -0.000009 eV
 added-field ion interaction          0.000005 eV  (added to PSCEN)


 Free energy of the ion-electron system (eV)
  ---------------------------------------------------
  alpha Z        PSCENC =       106.11428999
  Ewald energy   TEWEN  =     38646.31229175
  -Hartree energ DENC   =    -47858.71667462
  -exchange      EXHF   =       560.56374981
  -V(xc)+E(xc)   XCENC  =       644.90019610
  PAW double counting   =     27349.94359274   -27553.89522357
  entropy T*S    EENTRO =        -0.00000000
  eigenvalues    EBANDS =     -3202.94479315
  atomic energy  EATOM  =     10710.71333969
  ---------------------------------------------------
  free energy    TOTEN  =      -597.00923126 eV

  energy without entropy =     -597.00923126  energy(sigma->0) =     -597.00923126
  exchange ACFDT corr.  =        -0.00000000  see jH, gK, PRB 81, 115126


--------------------------------------------------------------------------------------------------------




--------------------------------------- Iteration      1(  16)  ---------------------------------------


    POTLOK:  cpu time    1.3375: real time    1.3383
    SETDIJ:  cpu time    2.1072: real time    2.1074
    TRIAL :  cpu time   62.4719: real time   62.4774
    CORREC:  cpu time    0.0005: real time    0.0008
    CHARGE:  cpu time    0.1788: real time    0.1788
    --------------------------------------------
      LOOP:  cpu time   66.0986: real time   66.1053

 eigenvalue-minimisations  :     0
 total energy-change (2. order) :-0.1712217E-01  (-0.1289955E-01)
 number of electron     246.0000018 magnetization       2.0000003
 augmentation part       17.5940082 magnetization       1.5343348

 DIPCOR: dipole corrections for dipol
 direction  3 min pos     1,
 dipolmoment          -0.000016     -0.000002      0.017373 electrons x Angstroem
 Tr[quadrupol]     -6756.137923

 energy correction for charged system         0.000000 eV
 dipol+quadrupol energy correction           -0.000009 eV
 added-field ion interaction          0.000005 eV  (added to PSCEN)


 Free energy of the ion-electron system (eV)
  ---------------------------------------------------
  alpha Z        PSCENC =       106.11428995
  Ewald energy   TEWEN  =     38646.31229175
  -Hartree energ DENC   =    -47858.88858763
  -exchange      EXHF   =       560.57915220
  -V(xc)+E(xc)   XCENC  =       644.90207862
  PAW double counting   =     27351.16165785   -27555.13558280
  entropy T*S    EENTRO =        -0.00000000
  eigenvalues    EBANDS =     -3202.78499307
  atomic energy  EATOM  =     10710.71333969
  ---------------------------------------------------
  free energy    TOTEN  =      -597.02635344 eV

  energy without entropy =     -597.02635344  energy(sigma->0) =     -597.02635344
  exchange ACFDT corr.  =        -0.00000000  see jH, gK, PRB 81, 115126


--------------------------------------------------------------------------------------------------------




--------------------------------------- Iteration      1(  17)  ---------------------------------------


    POTLOK:  cpu time    1.3386: real time    1.3386
    SETDIJ:  cpu time    2.1100: real time    2.1101
    TRIAL :  cpu time   62.5315: real time   62.5402
    CORREC:  cpu time    0.0005: real time    0.0008
    CHARGE:  cpu time    0.1787: real time    0.1787
    --------------------------------------------
      LOOP:  cpu time   66.1619: real time   66.1710

 eigenvalue-minimisations  :     0
 total energy-change (2. order) :-0.1164988E-01  (-0.8886064E-02)
 number of electron     246.0000018 magnetization       2.0000003
 augmentation part       17.5941641 magnetization       1.5318522

 DIPCOR: dipole corrections for dipol
 direction  3 min pos     1,
 dipolmoment          -0.000016     -0.000002      0.017391 electrons x Angstroem
 Tr[quadrupol]     -6756.139414

 energy correction for charged system         0.000000 eV
 dipol+quadrupol energy correction           -0.000009 eV
 added-field ion interaction          0.000005 eV  (added to PSCEN)


 Free energy of the ion-electron system (eV)
  ---------------------------------------------------
  alpha Z        PSCENC =       106.11428993
  Ewald energy   TEWEN  =     38646.31229175
  -Hartree energ DENC   =    -47859.04474129
  -exchange      EXHF   =       560.59320215
  -V(xc)+E(xc)   XCENC  =       644.90437099
  PAW double counting   =     27351.46249152   -27555.45975015
  entropy T*S    EENTRO =        -0.00000000
  eigenvalues    EBANDS =     -3202.63349792
  atomic energy  EATOM  =     10710.71333969
  ---------------------------------------------------
  free energy    TOTEN  =      -597.03800331 eV

  energy without entropy =     -597.03800331  energy(sigma->0) =     -597.03800331
  exchange ACFDT corr.  =        -0.00000000  see jH, gK, PRB 81, 115126


--------------------------------------------------------------------------------------------------------




--------------------------------------- Iteration      1(  18)  ---------------------------------------


    POTLOK:  cpu time    1.3288: real time    1.3289
    SETDIJ:  cpu time    2.1087: real time    2.1088
    TRIAL :  cpu time   62.5752: real time   62.5808
    CORREC:  cpu time    0.0005: real time    0.0008
    CHARGE:  cpu time    0.1787: real time    0.1787
    --------------------------------------------
      LOOP:  cpu time   66.1936: real time   66.1998

 eigenvalue-minimisations  :     0
 total energy-change (2. order) :-0.8074581E-02  (-0.6214140E-02)
 number of electron     246.0000018 magnetization       2.0000003
 augmentation part       17.5940290 magnetization       1.5294781

 DIPCOR: dipole corrections for dipol
 direction  3 min pos     1,
 dipolmoment          -0.000016     -0.000002      0.017375 electrons x Angstroem
 Tr[quadrupol]     -6756.140430

 energy correction for charged system         0.000000 eV
 dipol+quadrupol energy correction           -0.000009 eV
 added-field ion interaction          0.000005 eV  (added to PSCEN)


 Free energy of the ion-electron system (eV)
  ---------------------------------------------------
  alpha Z        PSCENC =       106.11428995
  Ewald energy   TEWEN  =     38646.31229175
  -Hartree energ DENC   =    -47859.12620857
  -exchange      EXHF   =       560.60448630
  -V(xc)+E(xc)   XCENC  =       644.90516804
  PAW double counting   =     27351.24989410   -27555.24649940
  entropy T*S    EENTRO =        -0.00000000
  eigenvalues    EBANDS =     -3202.57283974
  atomic energy  EATOM  =     10710.71333969
  ---------------------------------------------------
  free energy    TOTEN  =      -597.04607789 eV

  energy without entropy =     -597.04607789  energy(sigma->0) =     -597.04607789
  exchange ACFDT corr.  =        -0.00000000  see jH, gK, PRB 81, 115126


[...]
  augment    43.71711    44.53959    45.40293    -0.29287     0.54212    -0.72072
  Kinetic  3527.23417  3554.70518  3995.12883     5.20456     0.86049    -0.44592
  Fock     -378.02013  -378.07817  -354.49546     1.17103     0.44248     0.65887
  -------------------------------------------------------------------------------------
  Total     -38.98916   -44.45561    -0.30472     2.83566     0.41581    -0.09826
  in kB     -19.66327   -22.42015    -0.15368     1.43010     0.20970    -0.04955
  external pressure =      -14.08 kB  Pullay stress =        0.00 kB


 VOLUME and BASIS-vectors are now :
 -----------------------------------------------------------------------------
  energy-cutoff  :      500.00
  volume of cell :     3176.87
      direct lattice vectors                 reciprocal lattice vectors
    12.778724795  0.008380545 -0.007278591     0.078255234 -0.000188421  0.000072008
     0.030247478 12.562682595  0.000736320    -0.000052199  0.079600958  0.000008717
    -0.018214658 -0.002178937 19.789270025     0.000028785 -0.000003031  0.050532461

  length of vectors
    12.778729616 12.562719030 19.789278528     0.078255494  0.079600976  0.050532469


 FORCES acting on ions:
    Electron-Ion                     Ewald-Force                    Non-Local-Force
 -----------------------------------------------------------------------------------------------
   0.642E+01 -.112E+01 -.448E+00   -.608E+01 0.898E+00 0.454E+00   0.152E-02 0.179E-01 0.146E-01
   0.146E+01 -.982E+00 0.118E+01   -.115E+01 0.105E+01 -.118E+01   -.189E+00 -.276E+00 -.726E-02
   0.712E+01 -.260E+01 -.976E-01   -.730E+01 0.278E+01 0.907E-01   -.131E+00 -.310E-01 0.476E-03
   0.438E+01 0.283E+01 -.172E+01   -.462E+01 -.244E+01 0.176E+01   0.961E-01 -.274E+00 -.262E-01
   0.107E+02 0.551E+01 0.221E+01   -.102E+02 -.473E+01 -.224E+01   -.313E+00 -.868E+00 0.576E-02
   0.930E+01 -.252E+01 0.813E+01   -.860E+01 0.314E+01 -.796E+01   -.524E+00 -.800E+00 -.144E+00
   0.114E+02 -.174E+01 0.492E+01   -.112E+02 0.227E+01 -.496E+01   -.266E+00 -.327E+00 0.346E-01
   0.441E+01 0.241E+02 0.259E+02   -.430E+01 -.228E+02 -.263E+02   -.569E+00 -.111E+01 0.367E+00
   0.363E+01 0.353E+01 -.127E+01   -.233E+01 -.343E+01 0.138E+01   -.102E+01 -.576E-01 -.111E+00
   0.249E+02 -.816E+01 0.190E+02   -.235E+02 0.838E+01 -.188E+02   -.149E+01 -.278E+00 -.164E+00
   0.602E+01 0.117E+01 -.659E+01   -.519E+01 -.213E+01 0.636E+01   -.615E+00 0.817E+00 0.228E+00
   0.268E+02 0.128E+02 -.231E+02   -.254E+02 -.129E+02 0.229E+02   -.162E+01 0.315E+00 0.132E+00
   0.220E+01 -.299E+02 -.298E+02   -.381E+01 0.285E+02 0.302E+02   0.736E+00 0.142E+01 -.374E+00
   0.725E+01 -.103E+02 -.302E+01   -.670E+01 0.949E+01 0.290E+01   -.247E+00 0.609E+00 0.112E+00
   0.469E-02 -.133E+01 -.689E+00   0.359E+00 0.114E+01 0.710E+00   -.201E+00 0.140E+00 -.719E-02
   0.119E+02 -.126E+01 -.554E+01   -.117E+02 0.880E+00 0.564E+01   -.289E+00 0.418E+00 -.980E-01
   0.177E+01 -.340E+01 0.131E+00   -.234E+01 0.329E+01 -.235E+00   0.218E+00 0.269E+00 0.744E-01
   -.162E+01 -.809E-01 -.191E+01   0.136E+01 -.207E+00 0.194E+01   0.573E+00 0.203E+00 -.341E-01
   0.320E+01 0.343E+01 -.742E+00   -.309E+01 -.305E+01 0.750E+00   0.750E-01 -.514E+00 -.229E-01
   -.528E+00 0.167E+01 -.232E+01   -.404E+00 -.152E+01 0.230E+01   0.479E+00 -.768E-01 0.151E-01
   -.380E+01 0.143E+02 -.182E+01   0.384E+01 -.148E+02 0.188E+01   -.107E+00 0.461E+00 -.460E-01
   0.957E+01 0.318E+02 0.301E+01   -.121E+02 -.344E+02 -.295E+01   0.281E+01 0.291E+01 -.875E-01
   0.591E+01 0.159E+02 0.611E+01   -.805E+01 -.141E+02 -.626E+01   0.156E+01 -.147E+01 0.169E+00
   0.423E+00 -.329E+02 -.151E+02   -.332E+01 0.360E+02 0.153E+02   0.302E+01 -.322E+01 -.268E+00
   -.129E+01 -.272E+02 -.217E+02   0.903E+00 0.259E+02 0.225E+02   0.864E+00 0.955E+00 -.714E+00
   -.885E+01 -.138E+02 -.403E+01   0.838E+01 0.142E+02 0.409E+01   0.277E+00 -.213E+00 -.469E-01
   -.484E+01 -.848E+01 -.184E+01   0.449E+01 0.847E+01 0.182E+01   0.509E+00 -.126E+00 0.292E-01
   0.158E+01 -.155E+01 -.350E+01   -.175E+01 0.147E+01 0.355E+01   0.395E+00 0.731E-01 -.429E-01
   0.104E+01 -.987E+01 -.630E+01   -.159E+01 0.952E+01 0.631E+01   0.424E+00 0.396E+00 0.379E-02
   -.427E+01 -.561E+00 0.456E+00   0.391E+01 0.505E+00 -.478E+00   0.124E+00 0.144E+00 0.190E-01
   -.663E+01 -.149E+01 0.124E+01   0.715E+01 0.136E+01 -.124E+01   -.314E+00 -.519E-01 0.711E-02
   -.149E+02 0.226E+01 0.886E+00   0.153E+02 -.239E+01 -.909E+00   -.313E+00 0.704E-01 0.177E-01
   -.195E+01 0.776E+00 0.129E+01   0.217E+01 -.762E+00 -.129E+01   -.371E+00 0.848E-01 0.247E-02
   0.415E+01 -.445E+01 0.106E+00   -.386E+01 0.469E+01 -.902E-01   -.346E+00 -.884E-01 -.225E-01
   -.551E+01 -.219E+01 0.291E+00   0.613E+01 0.238E+01 -.306E+00   -.473E+00 -.281E+00 0.868E-02
   -.407E+02 -.138E+02 0.538E+01   0.443E+02 0.140E+02 -.525E+01   -.351E+01 -.405E+00 -.121E+00
   -.124E+02 -.341E+01 0.172E+01   0.129E+02 0.353E+01 -.168E+01   -.594E+00 -.184E-01 -.296E-01
   0.148E+01 -.548E+01 0.300E+01   -.111E+01 0.581E+01 -.302E+01   -.549E+00 -.161E+00 -.149E-01
   -.286E+01 -.335E+01 0.544E+01   0.329E+01 0.328E+01 -.554E+01   -.197E+00 -.546E-01 0.951E-01
   -.532E+02 0.159E+02 0.430E+00   0.567E+02 -.163E+02 -.600E+00   -.369E+01 0.274E+00 0.177E+00
   -.986E+01 0.182E+01 0.473E+01   0.101E+02 -.170E+01 -.474E+01   -.417E+00 -.257E-01 0.915E-03
   0.382E+01 0.647E+01 0.130E+01   -.300E+01 -.668E+01 -.128E+01   -.895E+00 0.177E+00 -.165E-01
   -.878E+01 0.633E+01 -.141E+01   0.946E+01 -.658E+01 0.154E+01   -.534E+00 0.223E+00 -.129E+00
   -.161E+02 -.373E+01 0.337E-01   0.163E+02 0.364E+01 -.631E-01   -.179E+00 -.575E-01 0.373E-01
   -.146E+02 0.319E+01 -.550E+00   0.153E+02 -.316E+01 0.532E+00   -.733E+00 0.743E-01 0.224E-01
   0.483E+01 0.365E+01 0.182E+01   -.441E+01 -.367E+01 -.181E+01   -.590E+00 0.142E+00 0.182E-01
   -.717E+01 0.702E+00 0.361E+01   0.760E+01 -.882E+00 -.361E+01   -.335E+00 0.470E-01 0.916E-02
   -.814E+01 -.665E+00 0.136E+01   0.825E+01 0.648E+00 -.135E+01   0.345E-01 -.144E-01 -.669E-02
   -.201E+01 -.209E+01 0.196E+01   0.242E+01 0.225E+01 -.197E+01   -.402E+00 -.557E-01 0.865E-02
   0.487E+01 -.234E+00 0.193E+01   -.464E+01 0.299E+00 -.193E+01   -.364E+00 0.771E-01 0.226E-02
   0.451E+02 0.739E+01 0.708E+02   -.406E+02 -.119E+01 -.726E+02   -.404E+01 -.638E+01 0.173E+01
   0.472E+02 -.122E+01 -.894E+02   -.422E+02 -.684E+01 0.918E+02   -.453E+01 0.815E+01 -.233E+01
   0.114E+00 -.992E+01 0.283E+02   0.359E+01 0.176E+02 -.295E+02   -.352E+01 -.806E+01 0.113E+01
   -.196E+02 -.266E+01 -.271E+02   0.168E+02 -.932E+00 0.276E+02   0.268E+01 0.367E+01 -.608E+00
   -.120E+02 -.354E+02 0.200E+02   0.117E+01 0.524E+02 -.213E+02   0.102E+02 -.163E+02 0.124E+01
   -.155E+02 0.358E+02 -.164E+02   0.465E+01 -.523E+02 0.171E+02   0.102E+02 0.159E+02 -.678E+00
   0.521E+01 0.336E+02 -.247E+02   -.138E+02 -.332E+02 0.242E+02   0.741E+01 -.254E+00 0.628E+00
   -.106E+02 0.116E+02 0.646E+02   0.113E+02 -.166E+02 -.642E+02   -.502E-01 0.507E+01 -.396E+00
 -----------------------------------------------------------------------------------------------
   -.955E+01 -.142E+01 0.140E+00   0.220E-12 -.156E-12 -.284E-13   0.818E+01 0.130E+01 -.207E+00
 
 
 POSITION                                       TOTAL-FORCE (eV/Angst)
 -----------------------------------------------------------------------------------
      2.85541     12.54323      9.89812         0.344288     -0.202351      0.021088
      0.69323      1.24526      9.87586         0.110501     -0.215761     -0.012835
      1.42983     12.55477      9.89544        -0.318808      0.144795     -0.006471
      3.54187      1.20841      9.87729        -0.142196      0.103689      0.018848
      2.83768      2.44149      9.84456         0.187652     -0.129199     -0.018337
      0.70963      3.75315      9.83975         0.153466     -0.214934      0.017900
      1.40980      2.48902      9.85036        -0.123913      0.182786     -0.002181
      3.58138      3.65779      9.77178        -0.501589      0.108631     -0.047209
      0.74706      6.26637      9.90411         0.217543      0.039604     -0.004922
      1.47388      4.98829      9.81303        -0.160775     -0.080551      0.043750
      0.72592      8.79780      9.95165         0.179367     -0.100490      0.004232
      1.45556      7.55157     10.00458        -0.301506      0.255602     -0.056955
      3.55294      8.85370     10.04090        -0.860227      0.087752      0.000892
      2.85074     10.08320      9.95548         0.290852     -0.130933      0.000522
      0.72614     11.30638      9.91085         0.145121     -0.041039      0.014060
      1.42897     10.05597      9.94438        -0.124828      0.062035      0.000109
      3.56414     11.31317      9.92059        -0.341115      0.170519     -0.024958
      7.12940     12.54208      9.89403         0.345840     -0.079165     -0.006854
      4.96664      1.20399      9.87385         0.191382     -0.158856     -0.016419
      5.70415     12.53275      9.89954        -0.430812      0.077583     -0.002212
      7.81928      1.21550      9.87538        -0.068138     -0.025397      0.004879
      7.12177      2.43896      9.84524         0.447061      0.497813     -0.033335
      5.68433      2.43852      9.83380        -0.501115      0.222513      0.023796
      7.13708      7.62207      9.95188         0.288480     -0.293444     -0.005965
      5.01425      8.82078     10.00470         0.526708     -0.283282      0.019868
      7.84841      8.85251      9.92559        -0.180578      0.169386      0.014057
      7.13212     10.07924      9.92206         0.181442     -0.141926      0.010909
      4.99161     11.30194      9.92498         0.247707     -0.003340     -0.001506
      5.71222     10.06646      9.94846        -0.102056      0.057662      0.013898
      7.84308     11.31663      9.89919        -0.224929      0.098340     -0.002347
     11.38713     12.56803      9.88025         0.174994     -0.183993      0.003048
      9.23477      1.24418      9.87135         0.089237     -0.059472     -0.004158
      9.97059     12.56363      9.87995        -0.161461      0.105407     -0.000673
     12.04901      1.26349      9.87298        -0.063424      0.139092     -0.008329
     11.33837      2.52338      9.86552         0.123503     -0.102421     -0.006095
      9.14338      3.74959      9.84481        -0.082471     -0.165351      0.003282
      9.90607      2.51589      9.86135        -0.103397      0.105031      0.003111
     12.04853      3.77379      9.85442        -0.201320      0.156317     -0.033346
     11.31618      5.02621      9.85931         0.224547     -0.122893      0.002137
      9.17941      6.33196      9.88967        -0.327614     -0.105117      0.016657
      9.86225      5.02913      9.86029        -0.141246      0.095094     -0.004080
     12.08862      6.27448      9.88429        -0.115820     -0.019130      0.004871
     11.37861      7.54131      9.90000         0.109622     -0.010439      0.000683
      9.26598      8.82324      9.90347         0.093536     -0.148175      0.010017
      9.95310      7.55903      9.89788        -0.099662      0.108077      0.005767
     12.08312      8.80056      9.90479        -0.187635      0.133359      0.035041
     11.38696     10.06026      9.89044         0.069211     -0.130915      0.009888
      9.26385     11.31671      9.88946         0.133959     -0.031208      0.000357
      9.97082     10.06846      9.89243        -0.007248      0.095015     -0.002887
     12.08881     11.31520      9.88941        -0.141309      0.147166      0.004774
      2.88407      4.88391      9.70612         0.245460     -0.512704     -0.010759
      2.85506      7.64621     10.14725         0.255005      0.517052     -0.006489
      5.02833      3.68479      9.77175         0.000167     -0.803206     -0.032245
      5.72079      7.58084      9.99309         0.110439      0.283894     -0.066166
      7.74867      3.66495      9.81377         0.179180     -0.647199      0.010985
      7.82103      6.41346      9.91950         0.290802      0.721706     -0.073799
      4.21591      6.26610      9.92786        -0.523323      0.345302      0.111154
      6.40016      5.10686      9.78131         0.581444     -0.088329      0.060950
 -----------------------------------------------------------------------------------
    total drift:                               -0.004159     -0.002813      0.001577


--------------------------------------------------------------------------------------------------------



  FREE ENERGIE OF THE ION-ELECTRON SYSTEM (eV)
  ---------------------------------------------------
  free  energy   TOTEN  =      -597.07687609 eV

  energy  without entropy=     -597.07687609  energy(sigma->0) =     -597.07687609
 


--------------------------------------------------------------------------------------------------------


    POTLOK:  cpu time    3.4066: real time    3.4068


--------------------------------------------------------------------------------------------------------


 stress matrix after NEB project (eV)
    -38.98916      2.83485     -0.09826
      2.83566    -44.45561      0.41822
     -0.10003      0.41581     -0.30472
  FORCES: max atom, RMS     0.864691    0.370992
  FORCE total and by dimension    2.825392    0.860227
  Stress total and by dimension   59.270517   44.455615
 writing wavefunctions
     LOOP+:  cpu time 5131.5105: real time 5132.8850
    4ORBIT:  cpu time    0.0000: real time    0.0000
 


 total charge     
 
# of ion       s       p       d       tot
------------------------------------------
    1        0.871   1.776   0.000   2.647
    2        0.865   1.756   0.000   2.621
    3        0.863   1.767   0.000   2.629
    4        0.870   1.783   0.000   2.652
    5        0.872   1.772   0.000   2.644
    6        0.861   1.727   0.000   2.588
    7        0.861   1.758   0.000   2.619
    8        0.875   1.751   0.000   2.626
    9        0.855   1.697   0.000   2.552
   10        0.856   1.726   0.000   2.581
   11        0.866   1.746   0.000   2.613
   12        0.858   1.737   0.000   2.595
   13        0.873   1.771   0.000   2.644
   14        0.873   1.779   0.000   2.652
   15        0.868   1.763   0.000   2.631
   16        0.863   1.766   0.000   2.629
   17        0.867   1.788   0.000   2.655
   18        0.870   1.768   0.000   2.638
   19        0.869   1.772   0.000   2.642
   20        0.868   1.783   0.000   2.652
   21        0.872   1.800   0.000   2.672
   22        0.874   1.731   0.000   2.605
   23        0.873   1.787   0.000   2.660
   24        0.870   1.724   0.000   2.594
   25        0.873   1.723   0.000   2.596
   26        0.872   1.796   0.000   2.667
   27        0.869   1.780   0.000   2.649
   28        0.869   1.766   0.000   2.635
   29        0.869   1.774   0.000   2.643
   30        0.869   1.786   0.000   2.655
   31        0.868   1.758   0.000   2.626
   32        0.868   1.763   0.000   2.631
   33        0.866   1.780   0.000   2.646
   34        0.861   1.763   0.000   2.624
   35        0.862   1.741   0.000   2.603
   36        0.847   1.679   0.000   2.526
   37        0.859   1.755   0.000   2.614
   38        0.857   1.745   0.000   2.602
   39        0.852   1.706   0.000   2.558
   40        0.854   1.702   0.000   2.555
   41        0.844   1.719   0.000   2.563
   42        0.853   1.726   0.000   2.579
   43        0.862   1.738   0.000   2.599
   44        0.869   1.753   0.000   2.623
   45        0.860   1.763   0.000   2.622
   46        0.862   1.760   0.000   2.622
   47        0.866   1.757   0.000   2.624
   48        0.868   1.757   0.000   2.625
   49        0.866   1.778   0.000   2.644
   50        0.863   1.775   0.000   2.638
   51        0.879   1.672   0.000   2.551
   52        0.884   1.696   0.000   2.580
   53        0.884   1.636   0.000   2.520
   54        0.851   1.672   0.000   2.524
   55        1.230   2.647   0.000   3.877
   56        1.234   2.685   0.000   3.919
   57        0.646   0.678   9.784  11.108
   58        0.419   0.498   6.259   7.176
--------------------------------------------------
tot         50.268 100.952  16.042 167.262
 


 magnetization (x)
 
# of ion       s       p       d       tot
------------------------------------------
    1       -0.000  -0.003   0.000  -0.004
    2       -0.000  -0.002   0.000  -0.003
    3        0.000   0.002   0.000   0.002
    4        0.001   0.008   0.000   0.009
    5       -0.000  -0.004   0.000  -0.005
    6       -0.000  -0.004   0.000  -0.004
    7        0.000   0.003   0.000   0.003
    8        0.001   0.005   0.000   0.005
    9       -0.001  -0.007   0.000  -0.007
   10        0.000   0.004   0.000   0.004
   11       -0.000  -0.003   0.000  -0.004
   12        0.000   0.005   0.000   0.006
   13        0.001   0.003   0.000   0.003
   14       -0.000  -0.004   0.000  -0.004
   15       -0.000  -0.003   0.000  -0.003
   16        0.000   0.004   0.000   0.004
   17        0.001   0.008   0.000   0.008
   18       -0.000  -0.005   0.000  -0.005
   19       -0.001  -0.007   0.000  -0.008
   20        0.000   0.004   0.000   0.004
   21        0.000   0.003   0.000   0.003
   22       -0.001  -0.011   0.000  -0.012
   23        0.001   0.015   0.000   0.017
   24        0.000   0.000   0.000   0.000
   25        0.001  -0.003   0.000  -0.002
   26       -0.000   0.001   0.000   0.001
   27       -0.000  -0.002   0.000  -0.002
   28       -0.000  -0.004   0.000  -0.005
   29        0.000   0.003   0.000   0.003
   30        0.000   0.003   0.000   0.004
   31       -0.000  -0.002   0.000  -0.002
   32       -0.000  -0.004   0.000  -0.005
   33        0.000   0.003   0.000   0.003
   34        0.000   0.003   0.000   0.003
   35       -0.000  -0.003   0.000  -0.003
   36       -0.000  -0.005   0.000  -0.005
   37        0.000   0.003   0.000   0.004
   38        0.000   0.003   0.000   0.003
   39       -0.000  -0.003   0.000  -0.004
   40       -0.000  -0.004   0.000  -0.004
   41        0.000   0.004   0.000   0.005
   42        0.000   0.004   0.000   0.004
   43       -0.000  -0.005   0.000  -0.005
   44       -0.000  -0.000   0.000  -0.001
   45        0.000   0.002   0.000   0.002
   46        0.000   0.002   0.000   0.002
   47       -0.000  -0.004   0.000  -0.004
   48       -0.000  -0.003   0.000  -0.003
   49        0.000   0.003   0.000   0.003
   50        0.000   0.003   0.000   0.004
   51       -0.004  -0.019   0.000  -0.023
   52       -0.004  -0.023   0.000  -0.028
   53       -0.012  -0.049   0.000  -0.060
   54       -0.003  -0.012   0.000  -0.015
   55       -0.004  -0.013   0.000  -0.017
   56       -0.003  -0.010   0.000  -0.013
   57        0.002   0.006  -0.021  -0.013
   58        0.039   0.016   2.026   2.081
--------------------------------------------------
tot          0.011  -0.097   2.005   1.918
 

 total amount of memory used by VASP MPI-rank0   136290. kBytes
=======================================================================

   base      :      30000. kBytes
   nonl-proj :       3785. kBytes
   fftplans  :      13738. kBytes
   grid      :      35361. kBytes
   one-center:         62. kBytes
   HF        :         23. kBytes
   nonlr-proj:      14993. kBytes
   wavefun   :      38328. kBytes
 
  
  
 General timing and accounting informations for this job:
 ========================================================
  
                  Total CPU time used (sec):     5180.007
                            User time (sec):     5165.246
                          System time (sec):       14.761
                         Elapsed time (sec):     5182.362
  
                   Maximum memory used (kb):      374380.
                   Average memory used (kb):           0.
  
                          Minor page faults:       362613
                          Major page faults:            0
                 Voluntary context switches:         1169
