 vasp.5.4.4.18Apr17-6-g9f103f2a35 (build Feb 25 2019 10:51:38) complex          
  
 executed on             LinuxIFC date 2021.08.06  10:52:24
 running on   32 total cores
 distrk:  each k-point on   32 cores,    1 groups
 distr:  one band on NCORES_PER_BAND=  32 cores,    1 groups


--------------------------------------------------------------------------------------------------------


 INCAR:
 POTCAR:    PAW_PBE C 08Apr2002                   
 POTCAR:    PAW_PBE N 08Apr2002                   
 POTCAR:    PAW_PBE Ni 02Aug2007                  
 POTCAR:    PAW_PBE Fe 06Sep2000                  

 ----------------------------------------------------------------------------- 
|                                                                             |
|           W    W    AA    RRRRR   N    N  II  N    N   GGGG   !!!           |
|           W    W   A  A   R    R  NN   N  II  NN   N  G    G  !!!           |
|           W    W  A    A  R    R  N N  N  II  N N  N  G       !!!           |
|           W WW W  AAAAAA  RRRRR   N  N N  II  N  N N  G  GGG   !            |
|           WW  WW  A    A  R   R   N   NN  II  N   NN  G    G                |
|           W    W  A    A  R    R  N    N  II  N    N   GGGG   !!!           |
|                                                                             |
|      For optimal performance we recommend to set                            |
|        NCORE= 4 - approx SQRT( number of cores)                             |
|      NCORE specifies how many cores store one orbital (NPAR=cpu/NCORE).     |
|      This setting can  greatly improve the performance of VASP for DFT.     |
|      The default,   NCORE=1            might be grossly inefficient         |
|      on modern multi-core architectures or massively parallel machines.     |
|      Do your own testing !!!!                                               |
|      Unfortunately you need to use the default for GW and RPA calculations. |
|      (for HF NCORE is supported but not extensively tested yet)             |
|                                                                             |
 ----------------------------------------------------------------------------- 

 POTCAR:    PAW_PBE C 08Apr2002                   
   VRHFIN =C: s2p2                                                              
   LEXCH  = PE                                                                  
   EATOM  =   147.1560 eV,   10.8157 Ry                                         
                                                                                
   TITEL  = PAW_PBE C 08Apr2002                                                 
   LULTRA =        F    use ultrasoft PP ?                                      
   IUNSCR =        1    unscreen: 0-lin 1-nonlin 2-no                           
   RPACOR =    1.200    partial core radius                                     
   POMASS =   12.011; ZVAL   =    4.000    mass and valenz                      
   RCORE  =    1.500    outmost cutoff radius                                   
   RWIGS  =    1.630; RWIGS  =    0.863    wigner-seitz radius (au A)           
   ENMAX  =  400.000; ENMIN  =  300.000 eV                                      
   ICORE  =        2    local potential                                         
   LCOR   =        T    correct aug charges                                     
   LPAW   =        T    paw PP                                                  
   EAUG   =  644.873                                                            
   DEXC   =    0.000                                                            
   RMAX   =    1.529    core radius for proj-oper                               
   RAUG   =    1.300    factor for augmentation sphere                          
   RDEP   =    1.501    radius for radial grids                                 
   RDEPT  =    1.300    core radius for aug-charge                              
                                                                                
   Atomic configuration                                                         
    4 entries                                                                   
     n  l   j            E        occ.                                          
     1  0  0.50      -273.3789   2.0000                                         
     2  0  0.50       -13.7508   2.0000                                         
     2  1  0.50        -5.2854   2.0000                                         
     3  2  1.50        -5.4423   0.0000                                         
   Description                                                                  
     l       E           TYP  RCUT    TYP  RCUT                                 
     0    -13.7508458     23  1.200                                             
     0     -8.2022199     23  1.200                                             
     1     -5.2854383     23  1.500                                             
     1     34.0145650     23  1.500                                             
     2     -5.4423304      7  1.500                                             
  local pseudopotential read in
  partial core-charges read in
  partial kinetic energy density read in
  atomic valenz-charges read in
  non local Contribution for L=           0  read in
    real space projection operators read in
  non local Contribution for L=           0  read in
    real space projection operators read in
  non local Contribution for L=           1  read in
    real space projection operators read in
  non local Contribution for L=           1  read in
    real space projection operators read in
    PAW grid and wavefunctions read in
 
   number of l-projection  operators is LMAX  =           4
   number of lm-projection operators is LMMAX =           8
 
 POTCAR:    PAW_PBE N 08Apr2002                   
   VRHFIN =N: s2p3                                                              
   LEXCH  = PE                                                                  
   EATOM  =   264.5486 eV,   19.4438 Ry                                         
                                                                                
   TITEL  = PAW_PBE N 08Apr2002                                                 
   LULTRA =        F    use ultrasoft PP ?                                      
   IUNSCR =        1    unscreen: 0-lin 1-nonlin 2-no                           
   RPACOR =    1.200    partial core radius                                     
   POMASS =   14.001; ZVAL   =    5.000    mass and valenz                      
   RCORE  =    1.500    outmost cutoff radius                                   
   RWIGS  =    1.400; RWIGS  =    0.741    wigner-seitz radius (au A)           
   ENMAX  =  400.000; ENMIN  =  300.000 eV                                      
   ICORE  =        2    local potential                                         
   LCOR   =        T    correct aug charges                                     
   LPAW   =        T    paw PP                                                  
   EAUG   =  627.112                                                            
   DEXC   =    0.000                                                            
   RMAX   =    1.529    core radius for proj-oper                               
   RAUG   =    1.300    factor for augmentation sphere                          
   RDEP   =    1.514    radius for radial grids                                 
   RDEPT  =    1.338    core radius for aug-charge                              
                                                                                
   Atomic configuration                                                         
    4 entries                                                                   
     n  l   j            E        occ.                                          
     1  0  0.50      -384.7179   2.0000                                         
     2  0  0.50       -18.5828   2.0000                                         
     2  1  0.50        -7.0898   3.0000                                         
     3  2  1.50        -6.8029   0.0000                                         
   Description                                                                  
     l       E           TYP  RCUT    TYP  RCUT                                 
     0    -18.5828119     23  1.200                                             
     0    -13.5018863     23  1.200                                             
     1     -7.0897853     23  1.500                                             
     1      9.5240782     23  1.500                                             
     2     -6.8029130      7  1.500                                             
  local pseudopotential read in
  partial core-charges read in
  partial kinetic energy density read in
  atomic valenz-charges read in
  non local Contribution for L=           0  read in
    real space projection operators read in
  non local Contribution for L=           0  read in
    real space projection operators read in
  non local Contribution for L=           1  read in
    real space projection operators read in
  non local Contribution for L=           1  read in
    real space projection operators read in
    PAW grid and wavefunctions read in
 
   number of l-projection  operators is LMAX  =           4
   number of lm-projection operators is LMMAX =           8
 
 POTCAR:    PAW_PBE Ni 02Aug2007                  
   VRHFIN =Ni:                                                                  
   LEXCH  = PE                                                                  
   EATOM  =  1077.6739 eV,   79.2068 Ry                                         
                                                                                
   TITEL  = PAW_PBE Ni 02Aug2007                                                
   LULTRA =        F    use ultrasoft PP ?                                      
   IUNSCR =        1    unscreen: 0-lin 1-nonlin 2-no                           
   RPACOR =    2.000    partial core radius                                     
   POMASS =   58.690; ZVAL   =   10.000    mass and valenz                      
   RCORE  =    2.300    outmost cutoff radius                                   
   RWIGS  =    2.430; RWIGS  =    1.286    wigner-seitz radius (au A)           
   ENMAX  =  269.532; ENMIN  =  202.149 eV                                      
   RCLOC  =    1.201    cutoff for local pot                                    
   LCOR   =        T    correct aug charges                                     
   LPAW   =        T    paw PP                                                  
   EAUG   =  544.565                                                            
   DEXC   =    0.000                                                            
   RMAX   =    2.357    core radius for proj-oper                               
   RAUG   =    1.300    factor for augmentation sphere                          
   RDEP   =    2.390    radius for radial grids                                 
   RDEPT  =    1.838    core radius for aug-charge                              
                                                                                
   Atomic configuration                                                         
    9 entries                                                                   
     n  l   j            E        occ.                                          
     1  0  0.50     -8206.4253   2.0000                                         
     2  0  0.50      -976.1748   2.0000                                         
     2  1  1.50      -839.0571   6.0000                                         
     3  0  0.50      -105.9991   2.0000                                         
     3  1  1.50       -66.4603   6.0000                                         
     3  2  2.50        -4.6458   9.0000                                         
     4  0  0.50        -4.4926   1.0000                                         
     4  1  1.50        -4.0817   0.0000                                         
     4  3  2.50        -1.3606   0.0000                                         
   Description                                                                  
     l       E           TYP  RCUT    TYP  RCUT                                 
     2     -4.6457903     23  2.300                                             
     2     -6.0063729     23  2.300                                             
     0     -4.4925590     23  2.300                                             
     0      5.0102601     23  2.300                                             
     1     -2.7211652     23  2.300                                             
     1     16.5183231     23  2.300                                             
  local pseudopotential read in
  partial core-charges read in
  partial kinetic energy density read in
  atomic valenz-charges read in
  non local Contribution for L=           2  read in
    real space projection operators read in
  non local Contribution for L=           2  read in
    real space projection operators read in
  non local Contribution for L=           0  read in
    real space projection operators read in
  non local Contribution for L=           0  read in
    real space projection operators read in
  non local Contribution for L=           1  read in
    real space projection operators read in
  non local Contribution for L=           1  read in
    real space projection operators read in
    PAW grid and wavefunctions read in
 
   number of l-projection  operators is LMAX  =           6
   number of lm-projection operators is LMMAX =          18
 
 POTCAR:    PAW_PBE Fe 06Sep2000                  
   VRHFIN =Fe:  d7 s1                                                           
   LEXCH  = PE                                                                  
   EATOM  =   594.3153 eV,   43.6809 Ry                                         
                                                                                
   TITEL  = PAW_PBE Fe 06Sep2000                                                
   LULTRA =        F    use ultrasoft PP ?                                      
   IUNSCR =        1    unscreen: 0-lin 1-nonlin 2-no                           
   RPACOR =    2.000    partial core radius                                     
   POMASS =   55.847; ZVAL   =    8.000    mass and valenz                      
   RCORE  =    2.300    outmost cutoff radius                                   
   RWIGS  =    2.460; RWIGS  =    1.302    wigner-seitz radius (au A)           
   ENMAX  =  267.882; ENMIN  =  200.911 eV                                      
   RCLOC  =    1.701    cutoff for local pot                                    
   LCOR   =        T    correct aug charges                                     
   LPAW   =        T    paw PP                                                  
   EAUG   =  511.368                                                            
   DEXC   =    0.000                                                            
   RMAX   =    2.356    core radius for proj-oper                               
   RAUG   =    1.300    factor for augmentation sphere                          
   RDEP   =    2.442    radius for radial grids                                 
   RDEPT  =    1.890    core radius for aug-charge                              
                                                                                
   Atomic configuration                                                         
    9 entries                                                                   
     n  l   j            E        occ.                                          
     1  0  0.50     -6993.8440   2.0000                                         
     2  0  0.50      -814.6047   2.0000                                         
     2  1  1.50      -693.3689   6.0000                                         
     3  0  0.50       -89.4732   2.0000                                         
     3  1  1.50       -55.6373   6.0000                                         
     3  2  2.50        -3.8151   7.0000                                         
     4  0  0.50        -4.2551   1.0000                                         
     4  1  1.50        -3.4015   0.0000                                         
     4  3  2.50        -1.3606   0.0000                                         
   Description                                                                  
     l       E           TYP  RCUT    TYP  RCUT                                 
     2     -3.8151135     23  2.300                                             
     2     -5.1756961     23  2.300                                             
     0     -4.2550963     23  2.300                                             
     0      7.2035603     23  2.300                                             
     1     -2.7211652     23  2.300                                             
     1     18.4316424     23  2.300                                             
  local pseudopotential read in
  partial core-charges read in
  partial kinetic energy density read in
  atomic valenz-charges read in
  non local Contribution for L=           2  read in
    real space projection operators read in
  non local Contribution for L=           2  read in
    real space projection operators read in
  non local Contribution for L=           0  read in
    real space projection operators read in
  non local Contribution for L=           0  read in
    real space projection operators read in
  non local Contribution for L=           1  read in
    real space projection operators read in
  non local Contribution for L=           1  read in
    real space projection operators read in
    PAW grid and wavefunctions read in
 
   number of l-projection  operators is LMAX  =           6
   number of lm-projection operators is LMMAX =          18
 

 ----------------------------------------------------------------------------- 
|                                                                             |
|  ADVICE TO THIS USER RUNNING 'VASP/VAMP'   (HEAR YOUR MASTER'S VOICE ...):  |
|                                                                             |
|      You have a (more or less) 'large supercell' and for larger cells       |
|      it might be more efficient to use real space projection opertators     |
|      So try LREAL= Auto  in the INCAR   file.                               |
|      Mind:          For very  accurate calculation you might also keep the  |
|      reciprocal projection scheme          (i.e. LREAL=.FALSE.)             |
|                                                                             |
 ----------------------------------------------------------------------------- 

  PAW_PBE C 08Apr2002                   :
 energy of atom  1       EATOM= -147.1560
 kinetic energy error for atom=    0.0076 (will be added to EATOM!!)
  PAW_PBE N 08Apr2002                   :
 energy of atom  2       EATOM= -264.5486
 kinetic energy error for atom=    0.0138 (will be added to EATOM!!)
  PAW_PBE Ni 02Aug2007                  :
 energy of atom  3       EATOM=-1077.6739
 kinetic energy error for atom=    0.0030 (will be added to EATOM!!)
  PAW_PBE Fe 06Sep2000                  :
 energy of atom  4       EATOM= -594.3153
 kinetic energy error for atom=    0.0026 (will be added to EATOM!!)
 
 
 POSCAR:  C  N Ni Fe                             
  positions in cartesian coordinates
  No initial velocities read in
 exchange correlation table for  LEXCH =        8
   RHO(1)=    0.500       N(1)  =     2000
   RHO(2)=  100.500       N(2)  =     4000

 VTST: version 3.2, (02/03/18)

 CHAIN: initializing optimizer
 
 OPT: Using VASP Conjugate-Gradient optimizer
 CHAIN: Read ICHAIN            0
 
 POSCAR:  C  N Ni Fe                             
  positions in cartesian coordinates
  No initial velocities read in
 


--------------------------------------------------------------------------------------------------------


 ion  position               nearest neighbor table
   1  0.221  0.999  0.500-   3 1.41  20 1.43   4 1.43
   2  0.055  0.100  0.500-  34 1.42   3 1.43   7 1.44
   3  0.109  1.000  0.500-   1 1.41  18 1.43   2 1.43
   4  0.276  0.099  0.500-  22 1.41   5 1.42   1 1.43
   5  0.223  0.200  0.500-   4 1.42   7 1.43   8 1.44
   6  0.056  0.301  0.500-  38 1.43   7 1.43  11 1.44
   7  0.111  0.201  0.500-   5 1.43   6 1.43   2 1.44
   8  0.283  0.298  0.500-  53 1.38   5 1.44   9 1.45
   9  0.227  0.399  0.500-  11 1.43   8 1.45  12 1.46
  10  0.057  0.500  0.500-  42 1.44  15 1.44  11 1.45
  11  0.114  0.400  0.500-   9 1.43   6 1.44  10 1.45
  12  0.283  0.500  0.500-  54 1.33  13 1.45   9 1.46
  13  0.227  0.601  0.500-  15 1.44  16 1.44  12 1.45
  14  0.056  0.699  0.500-  19 1.43  46 1.43  15 1.44
  15  0.114  0.600  0.500-  14 1.44  13 1.44  10 1.44
  16  0.284  0.701  0.500-  55 1.39  13 1.44  17 1.44
  17  0.224  0.800  0.500-  20 1.42  19 1.43  16 1.44
  18  0.055  0.899  0.500-  50 1.42   3 1.43  19 1.44
  19  0.111  0.799  0.500-  17 1.43  14 1.43  18 1.44
  20  0.277  0.900  0.500-  28 1.42  17 1.42   1 1.43
  21  0.555  1.000  0.500-  23 1.41  30 1.42  24 1.42
  22  0.387  0.098  0.500-  26 1.41   4 1.41  23 1.42
  23  0.444  1.000  0.500-  21 1.41  28 1.42  22 1.42
  24  0.610  0.099  0.500-  32 1.42  25 1.42  21 1.42
  25  0.554  0.198  0.500-  51 1.42  24 1.42  26 1.43
  26  0.442  0.196  0.500-  53 1.37  22 1.41  25 1.43
  27  0.556  0.802  0.500-  56 1.39  30 1.42  29 1.42
  28  0.388  0.901  0.500-  29 1.41  23 1.42  20 1.42
  29  0.444  0.803  0.500-  55 1.38  28 1.41  27 1.42
  30  0.610  0.901  0.500-  27 1.42  48 1.42  21 1.42
  31  0.889  1.000  0.500-  33 1.42  50 1.43  34 1.44
  32  0.721  0.100  0.500-  24 1.42  37 1.43  33 1.43
  33  0.777  0.000  0.500-  31 1.42  48 1.43  32 1.43
  34  0.943  0.101  0.500-   2 1.42  31 1.44  35 1.44
  35  0.887  0.201  0.500-  37 1.43  38 1.43  34 1.44
  36  0.717  0.300  0.500-  51 1.42  41 1.44  37 1.45
  37  0.775  0.201  0.500-  32 1.43  35 1.43  36 1.45
  38  0.944  0.301  0.500-   6 1.43  35 1.43  39 1.44
  39  0.887  0.401  0.500-  41 1.42  38 1.44  42 1.44
  40  0.717  0.500  0.500-  52 1.38  41 1.45  45 1.45
  41  0.775  0.400  0.500-  39 1.42  36 1.44  40 1.45
  42  0.944  0.501  0.500-  10 1.44  43 1.44  39 1.44
  43  0.886  0.600  0.500-  46 1.44  45 1.44  42 1.44
  44  0.715  0.701  0.500-  56 1.40  45 1.44  49 1.44
  45  0.772  0.601  0.500-  44 1.44  43 1.44  40 1.45
  46  0.943  0.699  0.500-  47 1.43  14 1.43  43 1.44
  47  0.887  0.799  0.500-  49 1.43  46 1.43  50 1.44
  48  0.722  0.901  0.500-  30 1.42  49 1.43  33 1.43
  49  0.775  0.799  0.500-  48 1.43  47 1.43  44 1.44
  50  0.943  0.899  0.500-  18 1.42  31 1.43  47 1.44
  51  0.605  0.299  0.500-  25 1.42  36 1.42  57 1.92
  52  0.608  0.498  0.500-  40 1.38  58 1.81  57 1.84
  53  0.391  0.293  0.500-  26 1.37   8 1.38  57 1.93
  54  0.388  0.501  0.500-  12 1.33  58 1.77  57 1.81
  55  0.393  0.706  0.500-  29 1.38  16 1.39  58 1.96
  56  0.605  0.703  0.500-  27 1.39  44 1.40  58 1.98
  57  0.495  0.406  0.500-  54 1.81  52 1.84  51 1.92  53 1.93  58 2.29
  58  0.497  0.589  0.500-  54 1.77  52 1.81  55 1.96  56 1.98  57 2.29
 
  LATTYP: Found a triclinic cell.
 ALAT       =    12.7141762829
 B/A-ratio  =     1.4013610259
 C/A-ratio  =     1.5763827026
 COS(alpha) =     0.0000413677
 COS(beta)  =     0.0002405225
 COS(gamma) =     0.7144130639
  
  Lattice vectors:
  
 A1 = (  12.7141737414,   0.0080370549,   0.0001818192)
 A2 = (  12.7209221133,  12.4751358540,   0.0000604617)
 A3 = (   0.0045362720,  -0.0035386390,  20.0424067444)


Analysis of symmetry for initial positions (statically):
=====================================================================
 Subroutine PRICEL returns:
 Original cell was already a primitive cell.
 

 Routine SETGRP: Setting up the symmetry group for a 
 triclinic supercell.


 Subroutine GETGRP returns: Found  1 space group operations
 (whereof  1 operations were pure point group operations)
 out of a pool of  2 trial point group operations.


The static configuration has the point symmetry C_1 .


Analysis of symmetry for dynamics (positions and initial velocities):
=====================================================================
 Subroutine PRICEL returns:
 Original cell was already a primitive cell.
 

 Routine SETGRP: Setting up the symmetry group for a 
 triclinic supercell.


 Subroutine GETGRP returns: Found  1 space group operations
 (whereof  1 operations were pure point group operations)
 out of a pool of  2 trial point group operations.


The dynamic configuration has the point symmetry C_1 .


Analysis of structural, dynamic, and magnetic symmetry:
=====================================================================
 Subroutine PRICEL returns:
 Original cell was already a primitive cell.
 

 Routine SETGRP: Setting up the symmetry group for a 
 triclinic supercell.


 Subroutine GETGRP returns: Found  1 space group operations
 (whereof  1 operations were pure point group operations)
 out of a pool of  2 trial point group operations.


The magnetic configuration has the point symmetry C_1 .


 Subroutine INISYM returns: Found  1 space group operations
 (whereof  1 operations are pure point group operations),
 and found     1 'primitive' translations

 
 
 KPOINTS: KPOINTS created by Atomic Simulation Env

Automatic generation of k-mesh.
Space group operators:
 irot       det(A)        alpha          n_x          n_y          n_z        tau_x        tau_y        tau_z
    1     1.000000     0.000000     1.000000     0.000000     0.000000     0.000000     0.000000     0.000000
 
 Subroutine IBZKPT returns following result:
 ===========================================
 
 Found      2 irreducible k-points:
 
 Following reciprocal coordinates:
            Coordinates               Weight
  0.250000  0.250000  0.000000      2.000000
 -0.250000  0.250000  0.000000      2.000000
 
 Following cartesian coordinates:
            Coordinates               Weight
  0.019650  0.020042 -0.000001      2.000000
 -0.019676  0.020063  0.000008      2.000000
 
 
 Subroutine IBZKPT_HF returns following result:
 ==============================================
 
 Found      4 k-points in 1st BZ
 the following      4 k-points will be used (e.g. in the exchange kernel)
 Following reciprocal coordinates:   # in IRBZ
  0.250000  0.250000  0.000000    0.25000000   1 t-inv F
 -0.250000  0.250000  0.000000    0.25000000   2 t-inv F
 -0.250000 -0.250000  0.000000    0.25000000   1 t-inv T
  0.250000 -0.250000  0.000000    0.25000000   2 t-inv T


--------------------------------------------------------------------------------------------------------




 Dimension of arrays:
   k-points           NKPTS =      2   k-points in BZ     NKDIM =      4   number of bands    NBANDS=    157
   number of dos      NEDOS =    301   number of ions     NIONS =     58
   non local maximal  LDIM  =      6   non local SUM 2l+1 LMDIM =     18
   total plane-waves  NPLWV = ******
   max r-space proj   IRMAX =      1   max aug-charges    IRDMAX=  15698
   dimension x,y,z NGX =    96 NGY =   96 NGZ =  150
   dimension x,y,z NGXF=   192 NGYF=  192 NGZF=  300
   support grid    NGXF=   192 NGYF=  192 NGZF=  300
   ions per type =              52   4   1   1
   NGX,Y,Z   is equivalent  to a cutoff of  12.55, 12.80, 12.44 a.u.
   NGXF,Y,Z  is equivalent  to a cutoff of  25.11, 25.60, 24.88 a.u.

 SYSTEM =  unknown system                          
 POSCAR =   C  N Ni Fe                             

 Startparameter for this run:
   NWRITE =      2    write-flag & timer
   PREC   = accura    normal or accurate (medium, high low for compatibility)
   ISTART =      1    job   : 0-new  1-cont  2-samecut
   ICHARG =      0    charge: 1-file 2-atom 10-const
   ISPIN  =      2    spin polarized calculation?
   LNONCOLLINEAR =      F non collinear calculations
   LSORBIT =      F    spin-orbit coupling
   INIWAV =      1    electr: 0-lowe 1-rand  2-diag
   LASPH  =      T    aspherical Exc in radial PAW
   METAGGA=      F    non-selfconsistent MetaGGA calc.

 Electronic Relaxation 1
   ENCUT  =  500.0 eV  36.75 Ry    6.06 a.u.  23.18 22.73 36.54*2*pi/ulx,y,z
   ENINI  =  500.0     initial cutoff
   ENAUG  =  644.9 eV  augmentation charge cutoff
   NELM   =    250;   NELMIN=  2; NELMDL=  0     # of ELM steps 
   EDIFF  = 0.1E-03   stopping-criterion for ELM
   LREAL  =      F    real-space projection
   NLSPLINE    = F    spline interpolate recip. space projectors
   LCOMPAT=      F    compatible to vasp.4.4
   GGA_COMPAT  = T    GGA compatible to vasp.4.4-vasp.4.6
   LMAXPAW     = -100 max onsite density
   LMAXMIX     =    2 max onsite mixed and CHGCAR
   VOSKOWN=      0    Vosko Wilk Nusair interpolation
   ROPT   =    0.00000   0.00000   0.00000   0.00000
 Ionic relaxation
   EDIFFG = -.3E-01   stopping-criterion for IOM
   NSW    =      0    number of steps for IOM
   NBLOCK =      1;   KBLOCK =      1    inner block; outer block 
   IBRION =     -1    ionic relax: 0-MD 1-quasi-New 2-CG
   NFREE  =      1    steps in history (QN), initial steepest desc. (CG)
   ISIF   =      2    stress and relaxation
   IWAVPR =     10    prediction:  0-non 1-charg 2-wave 3-comb
   ISYM   =      3    0-nonsym 1-usesym 2-fastsym
   LCORR  =      T    Harris-Foulkes like correction to forces

   POTIM  = 0.5000    time-step for ionic-motion
   TEIN   =    0.0    initial temperature
   TEBEG  =    0.0;   TEEND  =   0.0 temperature during run
   SMASS  =  -3.00    Nose mass-parameter (am)
   estimated Nose-frequenzy (Omega)   =  0.10E-29 period in steps =****** mass=  -0.369E-26a.u.
   SCALEE = 1.0000    scale energy and forces
   NPACO  =    256;   APACO  = 16.0  distance and # of slots for P.C.
   PSTRESS=    0.0 pullay stress

  Mass of Ions in am
   POMASS =  12.01 14.00 58.69 55.85
  Ionic Valenz
   ZVAL   =   4.00  5.00 10.00  8.00
  Atomic Wigner-Seitz radii
   RWIGS  =  -1.00 -1.00 -1.00 -1.00
  virtual crystal weights 
   VCA    =   1.00  1.00  1.00  1.00
   NELECT =     246.0000    total number of electrons
   NUPDOWN=      -1.0000    fix difference up-down

 DOS related values:
   EMIN   =  10.00;   EMAX   =-10.00  energy-range for DOS
   EFERMI =   0.00
   ISMEAR =     0;   SIGMA  =   0.10  broadening in eV -4-tet -1-fermi 0-gaus

 Electronic relaxation 2 (details)
   IALGO  =     53    algorithm
   LDIAG  =      T    sub-space diagonalisation (order eigenvalues)
   LSUBROT=      F    optimize rotation matrix (better conditioning)
   TURBO    =      0    0=normal 1=particle mesh
   IRESTART =      0    0=no restart 2=restart with 2 vectors
   NREBOOT  =      0    no. of reboots
   NMIN     =      0    reboot dimension
   EREF     =   0.00    reference energy to select bands
   IMIX   =      4    mixing-type and parameters
     AMIX     =   0.40;   BMIX     =  1.00
     AMIX_MAG =   1.60;   BMIX_MAG =  1.00
     AMIN     =   0.10
     WC   =   100.;   INIMIX=   1;  MIXPRE=   1;  MAXMIX= -45

 Intra band minimization:
   WEIMIN = 0.0000     energy-eigenvalue tresh-hold
   EBREAK =  0.16E-06  absolut break condition
   DEPER  =   0.30     relativ break condition  

   TIME   =   0.20     timestep for ELM

  volume/ion in A,a.u.               =      54.77       369.63
  Fermi-wavevector in a.u.,A,eV,Ry     =   0.697780  1.318614  6.624643  0.486898
  Thomas-Fermi vector in A             =   1.781202
 
 Write flags
   LWAVE        =      T    write WAVECAR
   LDOWNSAMPLE  =      F    k-point downsampling of WAVECAR
   LCHARG       =      T    write CHGCAR
   LVTOT        =      F    write LOCPOT, total local potential
   LVHAR        =      F    write LOCPOT, Hartree potential only
   LELF         =      F    write electronic localiz. function (ELF)
   LORBIT       =     11    0 simple, 1 ext, 2 COOP (PROOUT), +10 PAW based schemes


 Dipole corrections
   LMONO  =      F    monopole corrections only (constant potential shift)
   LDIPOL =      T    correct potential (dipole corrections)
   IDIPOL =      3    1-x, 2-y, 3-z, 4-all directions 
   EPSILON=  1.0000000 bulk dielectric constant

 Exchange correlation treatment:
   GGA     =    PE    GGA type
   LEXCH   =     8    internal setting for exchange type
   VOSKOWN=      0    Vosko Wilk Nusair interpolation
   EXXOEP  =     0    0=HF, 1=EXX-LHF (local Hartree Fock) 2=EXX OEP
   LHFCALC =     T    Hartree Fock is set to
   LSYMGRAD=     F    symmetrize gradient (conserves proper symmetry)
   PRECFOCK=normal    Normal, Fast or Accurate (Low or Medium for compatibility)
   LRHFCALC=     F    long range Hartree Fock
   LRSCOR  =     F    long range correlation only (use DFT for short range part)
   LTHOMAS =     F    Thomas Fermi screening in HF
   LMODELHF=     F    short range full HF, long range fraction AEXX
   ENCUT4O =  -1.0   cutoff for four orbital integrals eV
   LMAXFOCK=     4    L truncation for augmentation on plane wave grid
   LMAXFOCKAE=  -1    L truncation for all-electron charge restoration on plane wave grid
   NMAXFOCKAE=   1    number of basis functions for all-electron charge restoration
   LFOCKAEDFT=     F  apply the AE augmentation even for DFT
   NKREDX  =     1    reduce k-point grid by
   NKREDY  =     1    reduce k-point grid by
   NKREDZ  =     1    reduce k-point grid by
   SHIFTRED=     F    shift reduced grid of Gamma
   HFKIDENT=     F    idential grid for each k-point
   ODDONLY =     F    use only odd q-grid points
   EVENONLY=     F    use only even q-grid points
   HFALPHA =   -1.0000 decay constant for conv. correction
   MCALPHA =    0.0000 extent of test-charge in conv. correction in multipole expansion
   AEXX    =    0.2500 exact exchange contribution
   HFSCREEN=    0.2000 screening length (either q_TF or 0.3 A-1)
   HFSCREENC=   0.2000 screening length for correlation (either q_TF or 0.3 A-1)
   HFRCUT  =    0.0000 spherical cutoff for potential kernel
   ALDAX   =    0.7500 LDA exchange part
   AGGAX   =    0.7500 GGA exchange part
   ALDAC   =    1.0000 LDA correlation
   AGGAC   =    1.0000 GGA correlation
   ENCUTFOCK=  -1.0 apply spherical cutoff to Coloumb kernel
   NBANDSGWLOW=     1    first orbital included in HF term
   NBLOCK_FOCK=    64    blocking factor in FOCK_ACC
 Linear response parameters
   LEPSILON=     F    determine dielectric tensor
   LRPA    =     F    only Hartree local field effects (RPA)
   LNABLA  =     F    use nabla operator in PAW spheres
   LVEL    =     F    velocity operator in full k-point grid
   LINTERFAST=   F  fast interpolation
   KINTER  =     0    interpolate to denser k-point grid
   CSHIFT  =0.1000    complex shift for real part using Kramers Kronig
   OMEGAMAX=  -1.0    maximum frequency
   DEG_THRESHOLD= 0.2000000E-02 threshold for treating states as degnerate
   RTIME   =   -0.100 relaxation time in fs
  (WPLASMAI=    0.000 imaginary part of plasma frequency in eV, 0.658/RTIME)
   DFIELD  = 0.0000000 0.0000000 0.0000000 field for delta impulse in time
 
 Orbital magnetization related:
   ORBITALMAG=     F  switch on orbital magnetization
   LCHIMAG   =     F  perturbation theory with respect to B field
   DQ        =  0.001000  dq finite difference perturbation B field
   LLRAUG    =     F  two centre corrections for induced B field



--------------------------------------------------------------------------------------------------------


 Static calculation
 charge density and potential will be updated during run
 spin polarized calculation
 Conjugate gradient for all bands (Freysoldt, et al. PRB 79, 241103 (2009))
 perform sub-space diagonalisation
    before iterative eigenvector-optimisation
 modified Broyden-mixing scheme, WC =      100.0
 initial mixing is a Kerker type mixing with AMIX =  0.4000 and BMIX =      1.0000
 Hartree-type preconditioning will be used
 using additional bands           34
 reciprocal scheme for non local part
 use partial core corrections
 no Harris-corrections to forces 
 use gradient corrections 
 use of overlap-Matrix (Vanderbilt PP)
 Gauss-broadening in eV      SIGMA  =   0.10


--------------------------------------------------------------------------------------------------------


  energy-cutoff  :      500.00
  volume of cell :     3176.90
      direct lattice vectors                 reciprocal lattice vectors
    12.714173741  0.008037055  0.000181819     0.078652405 -0.000042574 -0.000017809
     0.006748372 12.467098799 -0.000121358    -0.000050704  0.080211151  0.000014173
     0.004536272 -0.003538639 20.042406744    -0.000000714  0.000000486  0.049894208

  length of vectors
    12.714176283 12.467100626 20.042407570     0.078652419  0.080211168  0.049894208


 
 old parameters found on file WAVECAR:
  energy-cutoff  :      500.00
  volume of cell :     3176.90
      direct lattice vectors                 reciprocal lattice vectors
    12.663600000  0.000000000  0.000000000     0.078966487  0.000007580 -0.000016675
    -0.001200259 12.503599942  0.000000000     0.000000000  0.079976967  0.000013259
     0.004237149 -0.003326281 20.063699277     0.000000000  0.000000000  0.049841257

  length of vectors

 
 k-points in units of 2pi/SCALE and weight: KPOINTS created by Atomic Simulation Env
   0.01965043  0.02004214 -0.00000091       0.500
  -0.01967578  0.02006343  0.00000800       0.500
 
 k-points in reciprocal lattice and weights: KPOINTS created by Atomic Simulation Env
   0.25000000  0.25000000  0.00000000       0.500
  -0.25000000  0.25000000  0.00000000       0.500
 
 position of ions in fractional coordinates (direct lattice) 
   0.22062858  0.99947133  0.50001711
   0.05495387  0.10044409  0.50001668
   0.10940382  0.99959516  0.50000901
   0.27613661  0.09889065  0.49999613
   0.22328730  0.19956242  0.49996512
   0.05598222  0.30053645  0.50001198
   0.11108127  0.20052520  0.50000546
   0.28305432  0.29788374  0.49987415
   0.22671106  0.39866415  0.49989171
   0.05691575  0.50040403  0.50000925
   0.11401656  0.39994372  0.49998031
   0.28347462  0.49997576  0.49983528
   0.22719363  0.60133197  0.49995254
   0.05595780  0.69922906  0.50002199
   0.11403748  0.60026059  0.50000605
   0.28398753  0.70140322  0.49997868
   0.22392068  0.79984095  0.50001099
   0.05498933  0.89902403  0.50000428
   0.11148984  0.79906079  0.50000974
   0.27683278  0.90040486  0.50002621
   0.55484100  0.99994103  0.50004650
   0.38716986  0.09788723  0.49999383
   0.44394814  0.99971044  0.50004752
   0.61012128  0.09926841  0.49999061
   0.55408461  0.19816265  0.49988252
   0.44162839  0.19595423  0.49988731
   0.55558953  0.80210831  0.50001916
   0.38839902  0.90130749  0.50004894
   0.44351679  0.80306209  0.50002428
   0.61035312  0.90086315  0.50004803
   0.88853725  0.99983825  0.50001222
   0.72142172  0.10019914  0.50000029
   0.77719009  0.00007617  0.50002177
   0.94324845  0.10057516  0.50001881
   0.88747547  0.20086341  0.50001028
   0.71663119  0.30045041  0.49987363
   0.77495087  0.20084744  0.49996857
   0.94365001  0.30055499  0.50001568
   0.88670157  0.40052474  0.49998682
   0.71680870  0.49956098  0.49983601
   0.77491181  0.39983399  0.49989433
   0.94370935  0.50067428  0.50001143
   0.88572456  0.60027565  0.50000618
   0.71518787  0.70077017  0.49997424
   0.77233844  0.60096570  0.49994556
   0.94328486  0.69925405  0.50002291
   0.88714113  0.79889591  0.50001255
   0.72187298  0.90053975  0.50002866
   0.77462309  0.79943708  0.50001304
   0.94301025  0.89905358  0.50000604
   0.60479029  0.29931318  0.49978436
   0.60796196  0.49788827  0.49969364
   0.39139995  0.29283547  0.49979012
   0.38772398  0.50106270  0.49966455
   0.39300462  0.70557893  0.49996451
   0.60532533  0.70318636  0.49994888
   0.49523596  0.40574561  0.49964571
   0.49685145  0.58903143  0.49974783
 
 position of ions in cartesian coordinates  (Angst):
   2.81412314 12.46051167 10.02146514
   0.70163904  1.25091874 10.02153555
   1.39999301 12.46116152 10.02128251
   3.51378431  1.23332946 10.02116409
   2.84252821  2.48798974 10.02052076
   0.71606398  3.74549817 10.02141715
   1.41592799  2.49909095 10.02130875
   3.60307960  3.71425209 10.01869638
   2.88740181  4.97023846 10.01902572
   0.72928182  6.23727451 10.02133835
   1.45459339  4.98528494 10.02078086
   3.60978700  6.23375674 10.01789288
   2.89490528  7.49692191 10.02022051
   0.71844406  8.71603807 10.02156951
   1.45621123  7.48265526 10.02127256
   3.61766817  8.74497643 10.02074262
   2.85463222  9.97172648 10.02136732
   0.70747898 11.20689406 10.02118995
   1.42516176  9.96109653 10.02132182
   3.52804462 11.22589181 10.02166968
   7.06336120 12.46905341 10.02211482
   4.92547354  1.22171217 10.02113813
   5.65344860 12.46528733 10.02211520
   7.76012600  1.24072340 10.02111398
   7.04833292  2.47319759 10.01892542
   5.61853002  2.44476128 10.01900138
   7.07154290 10.00265949 10.02159111
   4.94652334 11.23804158 10.02214549
   5.64663712 10.01364957 10.02167321
   7.76848331 11.23428581 10.02216775
  11.30603239 12.47045412 10.02148853
   9.17522543  1.25322134 10.02132821
   9.88359856  0.00542659 10.02178092
  11.99557168  1.25969199 10.02173976
  11.28714101  2.50954735 10.02154635
   9.11566858  3.74973562 10.01876445
   9.85648344  2.50844398 10.02068989
  12.00202661  3.75286349 10.02165264
  11.27864883  4.99873876 10.02105179
   9.11926900  6.23206838 10.01798630
   9.85732926  4.98922890 10.01917781
  12.00413161  6.24777106 10.02154335
  11.26757497  7.48904507 10.02141546
   9.10001985  8.74054967 10.02073215
   9.82596849  7.49673699 10.02017976
  12.00007461  8.72348122 10.02174927
  11.28692589  9.96527491 10.02151919
   9.18636393 11.23115037 10.02179983
   9.85635568  9.97111736 10.02150857
  11.99793145 11.21439953 10.02138676
   7.69369590  3.73465917 10.01695497
   7.73536063  6.21034019 10.01511337
   4.98057037  3.65218588 10.01703259
   4.93523799  6.24814621 10.01448976
   5.00375852  8.79791169 10.02047780
   7.70322472  8.76978977 10.02020359
   6.30152075  5.06068279 10.01414340
   6.32329760  7.34573786 10.01616819
 


--------------------------------------------------------------------------------------------------------


 k-point  1 :   0.2500 0.2500 0.0000  plane waves:   80642
 k-point  2 :  -0.2500 0.2500 0.0000  plane waves:   80646

 maximum and minimum number of plane-waves per node :      2554     2474

 maximum number of plane-waves:     80646
 maximum index in each direction: 
   IXMAX=   23   IYMAX=   22   IZMAX=   36
   IXMIN=  -23   IYMIN=  -22   IZMIN=  -36


 parallel 3D FFT for wavefunctions:
    minimum data exchange during FFTs selected (reduces bandwidth)
 parallel 3D FFT for charge:
    minimum data exchange during FFTs selected (reduces bandwidth)


 FFT grid for exact exchange (Hartree Fock) 
  NGX = 70; NGY = 70; NGZ =112

 
 Radii for the augmentation spheres in the non-local exchange
 for species   1 augmentation radius   0.874 (default was   0.699)
       energy cutoff for augmentation   2000.0
 for species   2 augmentation radius   0.886 (default was   0.709)
       energy cutoff for augmentation   2000.0
 for species   3 augmentation radius   1.224 (default was   0.979)
       energy cutoff for augmentation   2000.0
 for species   4 augmentation radius   1.263 (default was   1.010)
       energy cutoff for augmentation   2000.0

 real space projection operators:
  total allocation   :       2411.94 KBytes
  max/ min on nodes  :        127.59         37.48

 Maximum index for augmentation-charges in exchange          132
  SETUP_FOCK is finished

 total amount of memory used by VASP MPI-rank0   166136. kBytes
=======================================================================

   base      :      30000. kBytes
   nonl-proj :       5328. kBytes
   fftplans  :      14250. kBytes
   grid      :      36827. kBytes
   one-center:         62. kBytes
   HF        :         23. kBytes
   nonlr-proj:       1634. kBytes
   wavefun   :      78012. kBytes
 
     INWAV:  cpu time    3.5321: real time    3.5327
 Broyden mixing: mesh for mixing (old mesh)
   NGX = 47   NGY = 45   NGZ = 73
  (NGX  =192   NGY  =192   NGZ  =300)
  gives a total of 154395 points

 charge density for first step will be calculated from the start-wavefunctions


--------------------------------------------------------------------------------------------------------


 Maximum index for augmentation-charges          738 (set IRDMAX)


--------------------------------------------------------------------------------------------------------


 initial charge from wavefunction
 First call to EWALD:  gamma=   0.121
 Maximum number of real-space cells 3x 3x 2
 Maximum number of reciprocal cells 2x 2x 4

    FEWALD:  cpu time    0.0031: real time    0.0031


--------------------------------------- Iteration      1(   1)  ---------------------------------------


    POTLOK:  cpu time    1.3833: real time    1.3837
    SETDIJ:  cpu time    2.0904: real time    2.0905
    TRIAL :  cpu time  530.8931: real time  530.9805
    CORREC:  cpu time    0.0023: real time    0.0026
    CHARGE:  cpu time    1.7021: real time    1.7022
    --------------------------------------------
      LOOP:  cpu time  536.0852: real time  536.1796

 eigenvalue-minimisations  :     0
 total energy-change (2. order) :-0.6044902E+03  (-0.4497639E+00)
 number of electron     245.9999989 magnetization       1.9181966
 augmentation part       15.9718184 magnetization       1.2008617

 DIPCOR: dipole corrections for dipol
 direction  3 min pos     1,
 dipolmoment          -0.000000      0.000000     -0.000077 electrons x Angstroem
 Tr[quadrupol]     -6789.085132

 energy correction for charged system         0.000000 eV
 dipol+quadrupol energy correction            0.000000 eV
 added-field ion interaction          0.000000 eV  (added to PSCEN)


 Free energy of the ion-electron system (eV)
  ---------------------------------------------------
  alpha Z        PSCENC =       100.00571338
  Ewald energy   TEWEN  =     40220.57072049
  -Hartree energ DENC   =    -49092.29311725
  -exchange      EXHF   =       558.19706776
  -V(xc)+E(xc)   XCENC  =       635.90566390
  PAW double counting   =     26776.03344655   -26877.28797136
  entropy T*S    EENTRO =        -0.01086102
  eigenvalues    EBANDS =     -3195.65590812
  atomic energy  EATOM  =     10270.04882705
  ---------------------------------------------------
  free energy    TOTEN  =      -604.49019965 eV

  energy without entropy =     -604.47933863  energy(sigma->0) =     -604.48476914
  exchange ACFDT corr.  =        -0.01441450  see jH, gK, PRB 81, 115126


--------------------------------------------------------------------------------------------------------




--------------------------------------- Iteration      1(   2)  ---------------------------------------


    POTLOK:  cpu time    1.3954: real time    1.3955
    SETDIJ:  cpu time    2.0867: real time    2.0867
    TRIAL :  cpu time  533.2714: real time  533.3033
    CORREC:  cpu time    0.0021: real time    0.0023
    CHARGE:  cpu time    1.7014: real time    1.7014
    --------------------------------------------
      LOOP:  cpu time  538.4596: real time  538.4919

 eigenvalue-minimisations  :     0
 total energy-change (2. order) :-0.3399557E+00  (-0.3510775E+00)
 number of electron     245.9999989 magnetization       1.9516483
 augmentation part       15.9495432 magnetization       1.2331060

 DIPCOR: dipole corrections for dipol
 direction  3 min pos     1,
 dipolmoment          -0.000000      0.000000     -0.000235 electrons x Angstroem
 Tr[quadrupol]     -6788.921071

 energy correction for charged system         0.000000 eV
 dipol+quadrupol energy correction            0.000000 eV
 added-field ion interaction          0.000000 eV  (added to PSCEN)


 Free energy of the ion-electron system (eV)
  ---------------------------------------------------
  alpha Z        PSCENC =       100.00571339
  Ewald energy   TEWEN  =     40220.57072049
  -Hartree energ DENC   =    -49082.56537411
  -exchange      EXHF   =       558.07396749
  -V(xc)+E(xc)   XCENC  =       635.59642128
  PAW double counting   =     26905.54335798   -27007.41162304
  entropy T*S    EENTRO =        -0.00715500
  eigenvalues    EBANDS =     -3204.68130487
  atomic energy  EATOM  =     10270.04882705
  ---------------------------------------------------
  free energy    TOTEN  =      -604.83015537 eV

  energy without entropy =     -604.82300036  energy(sigma->0) =     -604.82657786
  exchange ACFDT corr.  =        -0.00785261  see jH, gK, PRB 81, 115126


--------------------------------------------------------------------------------------------------------




--------------------------------------- Iteration      1(   3)  ---------------------------------------


    POTLOK:  cpu time    1.4004: real time    1.4005
    SETDIJ:  cpu time    2.0857: real time    2.0860
    TRIAL :  cpu time  531.5458: real time  531.5775
    CORREC:  cpu time    0.0022: real time    0.0024
    CHARGE:  cpu time    1.6937: real time    1.6939
    --------------------------------------------
      LOOP:  cpu time  536.7300: real time  536.7625

 eigenvalue-minimisations  :     0
 total energy-change (2. order) :-0.2718263E+00  (-0.2019103E+00)
 number of electron     245.9999989 magnetization       1.9753178
 augmentation part       15.9190492 magnetization       1.2624816

 DIPCOR: dipole corrections for dipol
 direction  3 min pos     1,
 dipolmoment          -0.000000      0.000000     -0.000300 electrons x Angstroem
 Tr[quadrupol]     -6788.737498

 energy correction for charged system         0.000000 eV
 dipol+quadrupol energy correction            0.000000 eV
 added-field ion interaction          0.000000 eV  (added to PSCEN)


 Free energy of the ion-electron system (eV)
  ---------------------------------------------------
  alpha Z        PSCENC =       100.00571339
  Ewald energy   TEWEN  =     40220.57072049
  -Hartree energ DENC   =    -49067.36423495
  -exchange      EXHF   =       557.92417065
  -V(xc)+E(xc)   XCENC  =       635.16787830
  PAW double counting   =     27063.09135912   -27164.31963380
  entropy T*S    EENTRO =        -0.00410233
  eigenvalues    EBANDS =     -3220.21962688
  atomic energy  EATOM  =     10270.04882705
  ---------------------------------------------------
  free energy    TOTEN  =      -605.10198164 eV

  energy without entropy =     -605.09787931  energy(sigma->0) =     -605.09993047
  exchange ACFDT corr.  =        -0.00462782  see jH, gK, PRB 81, 115126


--------------------------------------------------------------------------------------------------------




--------------------------------------- Iteration      1(   4)  ---------------------------------------


    POTLOK:  cpu time    1.4030: real time    1.4030
    SETDIJ:  cpu time    2.0845: real time    2.0844
    TRIAL :  cpu time  530.7279: real time  530.7629
    CORREC:  cpu time    0.0021: real time    0.0023
    CHARGE:  cpu time    1.6906: real time    1.6907
    --------------------------------------------
      LOOP:  cpu time  535.9105: real time  535.9479

 eigenvalue-minimisations  :     0
 total energy-change (2. order) :-0.1505412E+00  (-0.1131906E+00)
 number of electron     245.9999988 magnetization       1.9890000
 augmentation part       15.9192824 magnetization       1.2857434

 DIPCOR: dipole corrections for dipol
 direction  3 min pos     1,
 dipolmoment          -0.000000      0.000000     -0.000256 electrons x Angstroem
 Tr[quadrupol]     -6788.654991

 energy correction for charged system         0.000000 eV
 dipol+quadrupol energy correction            0.000000 eV
 added-field ion interaction          0.000000 eV  (added to PSCEN)


 Free energy of the ion-electron system (eV)
  ---------------------------------------------------
  alpha Z        PSCENC =       100.00571339
  Ewald energy   TEWEN  =     40220.57072049
  -Hartree energ DENC   =    -49057.75548202
  -exchange      EXHF   =       557.95312921
  -V(xc)+E(xc)   XCENC  =       634.92299815
  PAW double counting   =     27198.24026301   -27298.48648773
  entropy T*S    EENTRO =        -0.00205068
  eigenvalues    EBANDS =     -3230.74810206
  atomic energy  EATOM  =     10270.04882705
  ---------------------------------------------------
  free energy    TOTEN  =      -605.25252284 eV

  energy without entropy =     -605.25047216  energy(sigma->0) =     -605.25149750
  exchange ACFDT corr.  =        -0.00233775  see jH, gK, PRB 81, 115126


--------------------------------------------------------------------------------------------------------




--------------------------------------- Iteration      1(   5)  ---------------------------------------


    POTLOK:  cpu time    1.4025: real time    1.4025
    SETDIJ:  cpu time    2.0872: real time    2.0873
    TRIAL :  cpu time  531.6355: real time  531.6769
    CORREC:  cpu time    0.0021: real time    0.0023
    CHARGE:  cpu time    1.7004: real time    1.7005
    --------------------------------------------
      LOOP:  cpu time  536.8325: real time  536.9615

 eigenvalue-minimisations  :     0
 total energy-change (2. order) :-0.9197191E-01  (-0.7746688E-01)
 number of electron     245.9999988 magnetization       1.9954004
 augmentation part       15.9358300 magnetization       1.3032663

 DIPCOR: dipole corrections for dipol
 direction  3 min pos     1,
 dipolmoment          -0.000000      0.000000     -0.000198 electrons x Angstroem
 Tr[quadrupol]     -6788.684267

 energy correction for charged system         0.000000 eV
 dipol+quadrupol energy correction            0.000000 eV
 added-field ion interaction          0.000000 eV  (added to PSCEN)


 Free energy of the ion-electron system (eV)
  ---------------------------------------------------
  alpha Z        PSCENC =       100.00571339
  Ewald energy   TEWEN  =     40220.57072049
  -Hartree energ DENC   =    -49058.64730047
  -exchange      EXHF   =       558.19661067
  -V(xc)+E(xc)   XCENC  =       634.96362362
  PAW double counting   =     27300.50566294   -27400.68714266
  entropy T*S    EENTRO =        -0.00094973
  eigenvalues    EBANDS =     -3230.29915910
  atomic energy  EATOM  =     10270.04882705
  ---------------------------------------------------
  free energy    TOTEN  =      -605.34449475 eV

  energy without entropy =     -605.34354501  energy(sigma->0) =     -605.34401988
  exchange ACFDT corr.  =        -0.00102649  see jH, gK, PRB 81, 115126


--------------------------------------------------------------------------------------------------------




--------------------------------------- Iteration      1(   6)  ---------------------------------------


    POTLOK:  cpu time    1.4009: real time    1.4010
    SETDIJ:  cpu time    2.0874: real time    2.0876
    TRIAL :  cpu time  530.1681: real time  530.2524
    CORREC:  cpu time    0.0020: real time    0.0022
    CHARGE:  cpu time    1.6918: real time    1.6918
    --------------------------------------------
      LOOP:  cpu time  535.3524: real time  535.4372

 eigenvalue-minimisations  :     0
 total energy-change (2. order) :-0.6444141E-01  (-0.5223320E-01)
 number of electron     245.9999988 magnetization       1.9980708
 augmentation part       15.9466148 magnetization       1.3169594

 DIPCOR: dipole corrections for dipol
 direction  3 min pos     1,
 dipolmoment          -0.000000      0.000000     -0.000157 electrons x Angstroem
 Tr[quadrupol]     -6788.752957

 energy correction for charged system         0.000000 eV
 dipol+quadrupol energy correction            0.000000 eV
 added-field ion interaction          0.000000 eV  (added to PSCEN)


 Free energy of the ion-electron system (eV)
  ---------------------------------------------------
  alpha Z        PSCENC =       100.00571339
  Ewald energy   TEWEN  =     40220.57072049
  -Hartree energ DENC   =    -49063.97507966
  -exchange      EXHF   =       558.49811445
  -V(xc)+E(xc)   XCENC  =       635.12424236
  PAW double counting   =     27369.79569083   -27470.33898254
  entropy T*S    EENTRO =        -0.00043404
  eigenvalues    EBANDS =     -3225.13723279
  atomic energy  EATOM  =     10270.04882705
  ---------------------------------------------------
  free energy    TOTEN  =      -605.40893615 eV

  energy without entropy =     -605.40850212  energy(sigma->0) =     -605.40871914
  exchange ACFDT corr.  =        -0.00042145  see jH, gK, PRB 81, 115126


--------------------------------------------------------------------------------------------------------




--------------------------------------- Iteration      1(   7)  ---------------------------------------


    POTLOK:  cpu time    1.4002: real time    1.4004
    SETDIJ:  cpu time    2.0863: real time    2.0865
    TRIAL :  cpu time  530.2412: real time  530.3217
    CORREC:  cpu time    0.0020: real time    0.0022
    CHARGE:  cpu time    1.6982: real time    1.6983
    --------------------------------------------
      LOOP:  cpu time  535.4302: real time  535.5114

 eigenvalue-minimisations  :     0
 total energy-change (2. order) :-0.4526472E-01  (-0.3771995E-01)
 number of electron     245.9999988 magnetization       1.9991669
 augmentation part       15.9484285 magnetization       1.3286091

 DIPCOR: dipole corrections for dipol
 direction  3 min pos     1,
 dipolmoment          -0.000000      0.000000     -0.000130 electrons x Angstroem
 Tr[quadrupol]     -6788.805371

 energy correction for charged system         0.000000 eV
 dipol+quadrupol energy correction            0.000000 eV
 added-field ion interaction          0.000000 eV  (added to PSCEN)


 Free energy of the ion-electron system (eV)
  ---------------------------------------------------
  alpha Z        PSCENC =       100.00571339
  Ewald energy   TEWEN  =     40220.57072049
  -Hartree energ DENC   =    -49068.01645320
  -exchange      EXHF   =       558.73609601
  -V(xc)+E(xc)   XCENC  =       635.25790901
  PAW double counting   =     27411.55221738   -27512.25893304
  entropy T*S    EENTRO =        -0.00020138
  eigenvalues    EBANDS =     -3221.34986393
  atomic energy  EATOM  =     10270.04882705
  ---------------------------------------------------
  free energy    TOTEN  =      -605.45420088 eV

  energy without entropy =     -605.45399949  energy(sigma->0) =     -605.45410019
  exchange ACFDT corr.  =        -0.00017337  see jH, gK, PRB 81, 115126


--------------------------------------------------------------------------------------------------------




--------------------------------------- Iteration      1(   8)  ---------------------------------------


    POTLOK:  cpu time    1.3977: real time    1.3978
    SETDIJ:  cpu time    2.0886: real time    2.0889
    TRIAL :  cpu time  530.3609: real time  530.4721
    CORREC:  cpu time    0.0019: real time    0.0021
    CHARGE:  cpu time    1.6904: real time    1.6905
    --------------------------------------------
      LOOP:  cpu time  535.5431: real time  535.6572

 eigenvalue-minimisations  :     0
 total energy-change (2. order) :-0.3325357E-01  (-0.2757392E-01)
 number of electron     245.9999988 magnetization       1.9996250
 augmentation part       15.9489026 magnetization       1.3393633

 DIPCOR: dipole corrections for dipol
 direction  3 min pos     1,
 dipolmoment          -0.000000      0.000000     -0.000116 electrons x Angstroem
 Tr[quadrupol]     -6788.828295

 energy correction for charged system         0.000000 eV
 dipol+quadrupol energy correction            0.000000 eV
 added-field ion interaction          0.000000 eV  (added to PSCEN)


 Free energy of the ion-electron system (eV)
  ---------------------------------------------------
  alpha Z        PSCENC =       100.00571339
  Ewald energy   TEWEN  =     40220.57072049
  -Hartree energ DENC   =    -49069.59289435
  -exchange      EXHF   =       558.88903114
  -V(xc)+E(xc)   XCENC  =       635.33114889
  PAW double counting   =     27434.30822552   -27534.96119044
  entropy T*S    EENTRO =        -0.00009630
  eigenvalues    EBANDS =     -3220.08683475
  atomic energy  EATOM  =     10270.04882705
  ---------------------------------------------------
  free energy    TOTEN  =      -605.48745445 eV

  energy without entropy =     -605.48735815  energy(sigma->0) =     -605.48740630
  exchange ACFDT corr.  =        -0.00007347  see jH, gK, PRB 81, 115126


--------------------------------------------------------------------------------------------------------




--------------------------------------- Iteration      1(   9)  ---------------------------------------


    POTLOK:  cpu time    1.3904: real time    1.3904
    SETDIJ:  cpu time    2.0865: real time    2.0868
    TRIAL :  cpu time  530.4682: real time  530.5546
    CORREC:  cpu time    0.0019: real time    0.0022
    CHARGE:  cpu time    1.6898: real time    1.6900
    --------------------------------------------
      LOOP:  cpu time  535.6394: real time  535.7264

 eigenvalue-minimisations  :     0
 total energy-change (2. order) :-0.2485699E-01  (-0.2120020E-01)
 number of electron     245.9999988 magnetization       1.9998207
 augmentation part       15.9515626 magnetization       1.3498736

 DIPCOR: dipole corrections for dipol
 direction  3 min pos     1,
 dipolmoment          -0.000000      0.000000     -0.000114 electrons x Angstroem
 Tr[quadrupol]     -6788.832604

 energy correction for charged system         0.000000 eV
 dipol+quadrupol energy correction            0.000000 eV
 added-field ion interaction          0.000000 eV  (added to PSCEN)


 Free energy of the ion-electron system (eV)
  ---------------------------------------------------
  alpha Z        PSCENC =       100.00571339
  Ewald energy   TEWEN  =     40220.57072049
  -Hartree energ DENC   =    -49069.97990962
  -exchange      EXHF   =       558.98670790
  -V(xc)+E(xc)   XCENC  =       635.37012244
  PAW double counting   =     27446.32259107   -27546.95163992
  entropy T*S    EENTRO =        -0.00004843
  eigenvalues    EBANDS =     -3219.88534793
  atomic energy  EATOM  =     10270.04882705
  ---------------------------------------------------
  free energy    TOTEN  =      -605.51231143 eV

  energy without entropy =     -605.51226301  energy(sigma->0) =     -605.51228722
  exchange ACFDT corr.  =        -0.00003250  see jH, gK, PRB 81, 115126


--------------------------------------------------------------------------------------------------------




--------------------------------------- Iteration      1(  10)  ---------------------------------------


    POTLOK:  cpu time    1.3887: real time    1.3889
    SETDIJ:  cpu time    2.0838: real time    2.0842
    TRIAL :  cpu time  530.5052: real time  530.5616
    CORREC:  cpu time    0.0018: real time    0.0021
    CHARGE:  cpu time    1.6904: real time    1.6904
    --------------------------------------------
      LOOP:  cpu time  535.6724: real time  535.7295

 eigenvalue-minimisations  :     0
 total energy-change (2. order) :-0.1941607E-01  (-0.1667422E-01)
 number of electron     245.9999988 magnetization       1.9999077
 augmentation part       15.9544594 magnetization       1.3600556

 DIPCOR: dipole corrections for dipol
 direction  3 min pos     1,
 dipolmoment          -0.000000      0.000000     -0.000116 electrons x Angstroem
 Tr[quadrupol]     -6788.830998

 energy correction for charged system         0.000000 eV
 dipol+quadrupol energy correction            0.000000 eV
 added-field ion interaction          0.000000 eV  (added to PSCEN)


 Free energy of the ion-electron system (eV)
  ---------------------------------------------------
  alpha Z        PSCENC =       100.00571339
  Ewald energy   TEWEN  =     40220.57072049
  -Hartree energ DENC   =    -49070.14044223
  -exchange      EXHF   =       559.05623747
  -V(xc)+E(xc)   XCENC  =       635.39641678
  PAW double counting   =     27452.81685757   -27553.52039455
  entropy T*S    EENTRO =        -0.00002600
  eigenvalues    EBANDS =     -3219.76561503
  atomic energy  EATOM  =     10270.04882705
  ---------------------------------------------------
  free energy    TOTEN  =      -605.53172751 eV

  energy without entropy =     -605.53170151  energy(sigma->0) =     -605.53171451
  exchange ACFDT corr.  =        -0.00001529  see jH, gK, PRB 81, 115126


--------------------------------------------------------------------------------------------------------




--------------------------------------- Iteration      1(  11)  ---------------------------------------


    POTLOK:  cpu time    1.3851: real time    1.3851
    SETDIJ:  cpu time    2.0851: real time    2.0851
    TRIAL :  cpu time  530.1483: real time  530.1876
    CORREC:  cpu time    0.0017: real time    0.0020
    CHARGE:  cpu time    1.6860: real time    1.6860
    --------------------------------------------
      LOOP:  cpu time  535.3087: real time  535.3483

 eigenvalue-minimisations  :     0
 total energy-change (2. order) :-0.1545174E-01  (-0.1347590E-01)
 number of electron     245.9999988 magnetization       1.9999489
 augmentation part       15.9556635 magnetization       1.3697506

 DIPCOR: dipole corrections for dipol
 direction  3 min pos     1,
 dipolmoment          -0.000000      0.000000     -0.000117 electrons x Angstroem
 Tr[quadrupol]     -6788.829157

 energy correction for charged system         0.000000 eV
 dipol+quadrupol energy correction            0.000000 eV
 added-field ion interaction          0.000000 eV  (added to PSCEN)


 Free energy of the ion-electron system (eV)
  ---------------------------------------------------
  alpha Z        PSCENC =       100.00571339
  Ewald energy   TEWEN  =     40220.57072049
  -Hartree energ DENC   =    -49070.20997203
  -exchange      EXHF   =       559.10992698
  -V(xc)+E(xc)   XCENC  =       635.41546506
  PAW double counting   =     27456.38902985   -27557.17895942
  entropy T*S    EENTRO =        -0.00001491
  eigenvalues    EBANDS =     -3219.69790462
  atomic energy  EATOM  =     10270.04882705
  ---------------------------------------------------
  free energy    TOTEN  =      -605.54717924 eV

  energy without entropy =     -605.54716434  energy(sigma->0) =     -605.54717179
  exchange ACFDT corr.  =        -0.00000776  see jH, gK, PRB 81, 115126


--------------------------------------------------------------------------------------------------------




--------------------------------------- Iteration      1(  12)  ---------------------------------------


    POTLOK:  cpu time    1.3836: real time    1.3837
    SETDIJ:  cpu time    2.0814: real time    2.0814
    TRIAL :  cpu time  530.5446: real time  530.5742
    CORREC:  cpu time    0.0017: real time    0.0020
    CHARGE:  cpu time    1.6897: real time    1.6897
    --------------------------------------------
      LOOP:  cpu time  535.7031: real time  535.7331

 eigenvalue-minimisations  :     0
 total energy-change (2. order) :-0.1264244E-01  (-0.1118785E-01)
 number of electron     245.9999988 magnetization       1.9999699
 augmentation part       15.9555654 magnetization       1.3789080

 DIPCOR: dipole corrections for dipol
 direction  3 min pos     1,
 dipolmoment          -0.000000      0.000000     -0.000114 electrons x Angstroem
 Tr[quadrupol]     -6788.828207

 energy correction for charged system         0.000000 eV
 dipol+quadrupol energy correction            0.000000 eV
 added-field ion interaction          0.000000 eV  (added to PSCEN)


 Free energy of the ion-electron system (eV)
  ---------------------------------------------------
  alpha Z        PSCENC =       100.00571339
  Ewald energy   TEWEN  =     40220.57072049
  -Hartree energ DENC   =    -49070.13187868
  -exchange      EXHF   =       559.15369464
  -V(xc)+E(xc)   XCENC  =       635.42884430
  PAW double counting   =     27458.54451774   -27559.37138940
  entropy T*S    EENTRO =        -0.00000907
  eigenvalues    EBANDS =     -3219.80885630
  atomic energy  EATOM  =     10270.04882705
  ---------------------------------------------------
  free energy    TOTEN  =      -605.55982168 eV

  energy without entropy =     -605.55981261  energy(sigma->0) =     -605.55981715
  exchange ACFDT corr.  =        -0.00000424  see jH, gK, PRB 81, 115126


--------------------------------------------------------------------------------------------------------




--------------------------------------- Iteration      1(  13)  ---------------------------------------


    POTLOK:  cpu time    1.3810: real time    1.3810
    SETDIJ:  cpu time    2.0826: real time    2.0827
    TRIAL :  cpu time  530.9545: real time  530.9847
    CORREC:  cpu time    0.0017: real time    0.0020
    CHARGE:  cpu time    1.6887: real time    1.6887
    --------------------------------------------
      LOOP:  cpu time  536.1104: real time  536.1410

 eigenvalue-minimisations  :     0
 total energy-change (2. order) :-0.1057380E-01  (-0.9427197E-02)
 number of electron     245.9999988 magnetization       1.9999812
 augmentation part       15.9556034 magnetization       1.3875420

 DIPCOR: dipole corrections for dipol
 direction  3 min pos     1,
 dipolmoment          -0.000000      0.000000     -0.000108 electrons x Angstroem
 Tr[quadrupol]     -6788.827924

 energy correction for charged system         0.000000 eV
 dipol+quadrupol energy correction            0.000000 eV
 added-field ion interaction          0.000000 eV  (added to PSCEN)


 Free energy of the ion-electron system (eV)
  ---------------------------------------------------
  alpha Z        PSCENC =       100.00571339
  Ewald energy   TEWEN  =     40220.57072049
  -Hartree energ DENC   =    -49069.98542596
  -exchange      EXHF   =       559.19197496
  -V(xc)+E(xc)   XCENC  =       635.43986896
  PAW double counting   =     27460.35741972   -27561.18730178
  entropy T*S    EENTRO =        -0.00000582
  eigenvalues    EBANDS =     -3220.01218324
  atomic energy  EATOM  =     10270.04882705
  ---------------------------------------------------
  free energy    TOTEN  =      -605.57039549 eV

  energy without entropy =     -605.57038967  energy(sigma->0) =     -605.57039258
  exchange ACFDT corr.  =        -0.00000247  see jH, gK, PRB 81, 115126


--------------------------------------------------------------------------------------------------------




--------------------------------------- Iteration      1(  14)  ---------------------------------------


    POTLOK:  cpu time    1.3813: real time    1.3814
    SETDIJ:  cpu time    2.0798: real time    2.0798
    TRIAL :  cpu time  530.4808: real time  530.5199
    CORREC:  cpu time    0.0016: real time    0.0019
    CHARGE:  cpu time    1.6988: real time    1.6988
    --------------------------------------------
      LOOP:  cpu time  535.6442: real time  535.6836

 eigenvalue-minimisations  :     0
 total energy-change (2. order) :-0.8969315E-02  (-0.8068799E-02)
 number of electron     245.9999988 magnetization       1.9999876
 augmentation part       15.9562079 magnetization       1.3956656

 DIPCOR: dipole corrections for dipol
 direction  3 min pos     1,
 dipolmoment          -0.000000      0.000000     -0.000103 electrons x Angstroem
 Tr[quadrupol]     -6788.828179

 energy correction for charged system         0.000000 eV
 dipol+quadrupol energy correction            0.000000 eV
 added-field ion interaction          0.000000 eV  (added to PSCEN)


 Free energy of the ion-electron system (eV)
  ---------------------------------------------------
  alpha Z        PSCENC =       100.00571339
  Ewald energy   TEWEN  =     40220.57072049
  -Hartree energ DENC   =    -49069.91338100
  -exchange      EXHF   =       559.22782095
  -V(xc)+E(xc)   XCENC  =       635.45184248
  PAW double counting   =     27462.38755876   -27563.22854759
  entropy T*S    EENTRO =        -0.00000393
  eigenvalues    EBANDS =     -3220.12991351
  atomic energy  EATOM  =     10270.04882705
  ---------------------------------------------------
  free energy    TOTEN  =      -605.57936480 eV

  energy without entropy =     -605.57936088  energy(sigma->0) =     -605.57936284
  exchange ACFDT corr.  =        -0.00000153  see jH, gK, PRB 81, 115126


--------------------------------------------------------------------------------------------------------




--------------------------------------- Iteration      1(  15)  ---------------------------------------


    POTLOK:  cpu time    1.3775: real time    1.3776
    SETDIJ:  cpu time    2.0832: real time    2.0833
    TRIAL :  cpu time  530.4081: real time  530.4551
    CORREC:  cpu time    0.0016: real time    0.0018
    CHARGE:  cpu time    1.6884: real time    1.6884
    --------------------------------------------
      LOOP:  cpu time  535.5611: real time  535.6085

 eigenvalue-minimisations  :     0
 total energy-change (2. order) :-0.7714953E-02  (-0.6983719E-02)
 number of electron     245.9999988 magnetization       1.9999914
 augmentation part       15.9569546 magnetization       1.4032565

 DIPCOR: dipole corrections for dipol
 direction  3 min pos     1,
 dipolmoment          -0.000000      0.000000     -0.000099 electrons x Angstroem
 Tr[quadrupol]     -6788.828582

 energy correction for charged system         0.000000 eV
 dipol+quadrupol energy correction            0.000000 eV
 added-field ion interaction          0.000000 eV  (added to PSCEN)


 Free energy of the ion-electron system (eV)
  ---------------------------------------------------
  alpha Z        PSCENC =       100.00571339
  Ewald energy   TEWEN  =     40220.57072049
  -Hartree energ DENC   =    -49069.92090074
  -exchange      EXHF   =       559.26136049
  -V(xc)+E(xc)   XCENC  =       635.46457818
  PAW double counting   =     27464.72491076   -27565.59288821
  entropy T*S    EENTRO =        -0.00000277
  eigenvalues    EBANDS =     -3220.14939724
  atomic energy  EATOM  =     10270.04882705
  ---------------------------------------------------
  free energy    TOTEN  =      -605.58707975 eV

  energy without entropy =     -605.58707698  energy(sigma->0) =     -605.58707837
  exchange ACFDT corr.  =        -0.00000100  see jH, gK, PRB 81, 115126


--------------------------------------------------------------------------------------------------------




--------------------------------------- Iteration      1(  16)  ---------------------------------------


    POTLOK:  cpu time    1.3780: real time    1.3780
    SETDIJ:  cpu time    2.0826: real time    2.0826
    TRIAL :  cpu time  530.2967: real time  530.3239
    CORREC:  cpu time    0.0016: real time    0.0019
    CHARGE:  cpu time    1.6886: real time    1.6887
    --------------------------------------------
      LOOP:  cpu time  535.4501: real time  535.4776

 eigenvalue-minimisations  :     0
 total energy-change (2. order) :-0.6702147E-02  (-0.6101558E-02)
 number of electron     245.9999988 magnetization       1.9999938
 augmentation part       15.9574418 magnetization       1.4103151

 DIPCOR: dipole corrections for dipol
 direction  3 min pos     1,
 dipolmoment          -0.000000      0.000000     -0.000097 electrons x Angstroem
 Tr[quadrupol]     -6788.828768

 energy correction for charged system         0.000000 eV
 dipol+quadrupol energy correction            0.000000 eV
 added-field ion interaction          0.000000 eV  (added to PSCEN)


 Free energy of the ion-electron system (eV)
  ---------------------------------------------------
  alpha Z        PSCENC =       100.00571338
  Ewald energy   TEWEN  =     40220.57072049
  -Hartree energ DENC   =    -49069.93645234
  -exchange      EXHF   =       559.29181193
  -V(xc)+E(xc)   XCENC  =       635.47650989
  PAW double counting   =     27467.20892120   -27568.10494774
  entropy T*S    EENTRO =        -0.00000204
  eigenvalues    EBANDS =     -3220.15488298
  atomic energy  EATOM  =     10270.04882705
  ---------------------------------------------------
  free energy    TOTEN  =      -605.59378190 eV

  energy without entropy =     -605.59377986  energy(sigma->0) =     -605.59378088
  exchange ACFDT corr.  =        -0.00000069  see jH, gK, PRB 81, 115126


--------------------------------------------------------------------------------------------------------




--------------------------------------- Iteration      1(  17)  ---------------------------------------


    POTLOK:  cpu time    1.3748: real time    1.3748
    SETDIJ:  cpu time    2.0815: real time    2.0815
    TRIAL :  cpu time  530.5864: real time  530.6214
    CORREC:  cpu time    0.0015: real time    0.0018
    CHARGE:  cpu time    1.6898: real time    1.6898
    --------------------------------------------
      LOOP:  cpu time  535.7369: real time  535.7721

 eigenvalue-minimisations  :     0
 total energy-change (2. order) :-0.5872458E-02  (-0.5369108E-02)
 number of electron     245.9999988 magnetization       1.9999954
 augmentation part       15.9576677 magnetization       1.4169008

 DIPCOR: dipole corrections for dipol
 direction  3 min pos     1,
 dipolmoment          -0.000000      0.000000     -0.000094 electrons x Angstroem
 Tr[quadrupol]     -6788.828563

 energy correction for charged system         0.000000 eV
 dipol+quadrupol energy correction            0.000000 eV
 added-field ion interaction          0.000000 eV  (added to PSCEN)


 Free energy of the ion-electron system (eV)
  ---------------------------------------------------
  alpha Z        PSCENC =       100.00571338
  Ewald energy   TEWEN  =     40220.57072049
  -Hartree energ DENC   =    -49069.91379364
  -exchange      EXHF   =       559.31905981
  -V(xc)+E(xc)   XCENC  =       635.48692211
  PAW double counting   =     27469.62888632   -27570.54379635
  entropy T*S    EENTRO =        -0.00000156
  eigenvalues    EBANDS =     -3220.20219150
  atomic energy  EATOM  =     10270.04882705
  ---------------------------------------------------
  free energy    TOTEN  =      -605.59965436 eV

  energy without entropy =     -605.59965280  energy(sigma->0) =     -605.59965358
  exchange ACFDT corr.  =        -0.00000049  see jH, gK, PRB 81, 115126


--------------------------------------------------------------------------------------------------------




--------------------------------------- Iteration      1(  18)  ---------------------------------------


    POTLOK:  cpu time    1.3763: real time    1.3762
    SETDIJ:  cpu time    2.0836: real time    2.0836
    TRIAL :  cpu time  530.2083: real time  530.2357
    CORREC:  cpu time    0.0016: real time    0.0019
    CHARGE:  cpu time    1.6867: real time    1.6868
    --------------------------------------------
      LOOP:  cpu time  535.3587: real time  535.3890

 eigenvalue-minimisations  :     0
 total energy-change (2. order) :-0.5178447E-02  (-0.4750046E-02)
 number of electron     245.9999988 magnetization       1.9999964
 augmentation part       15.9578443 magnetization       1.4230924

 DIPCOR: dipole corrections for dipol
 direction  3 min pos     1,
 dipolmoment          -0.000000      0.000000     -0.000091 electrons x Angstroem
 Tr[quadrupol]     -6788.828034

 energy correction for charged system         0.000000 eV
 dipol+quadrupol energy correction            0.000000 eV
 added-field ion interaction          0.000000 eV  (added to PSCEN)


 Free energy of the ion-electron system (eV)
  ---------------------------------------------------
  alpha Z        PSCENC =       100.00571338
  Ewald energy   TEWEN  =     40220.57072049
  -Hartree energ DENC   =    -49069.86042888
  -exchange      EXHF   =       559.34366227
  -V(xc)+E(xc)   XCENC  =       635.49620472
  PAW double counting   =     27471.84617532   -27572.77307006
  entropy T*S    EENTRO =        -0.00000123
[...]
  augment   174.67911   179.40618   204.75729     0.58794     0.02148    -0.00650
  Kinetic  3579.16141  3620.56011  4124.12892     2.83822     0.01892     0.01899
  Fock     -343.81943  -347.92096  -335.38124    -0.32478    -0.00097     0.00441
  -------------------------------------------------------------------------------------
  Total     -46.32918   -42.34055    -0.26291     0.01590     0.00371     0.00104
  in kB     -23.36479   -21.35324    -0.13259     0.00802     0.00187     0.00052
  external pressure =      -14.95 kB  Pullay stress =        0.00 kB


 VOLUME and BASIS-vectors are now :
 -----------------------------------------------------------------------------
  energy-cutoff  :      500.00
  volume of cell :     3176.90
      direct lattice vectors                 reciprocal lattice vectors
    12.714173741  0.008037055  0.000181819     0.078652405 -0.000042574 -0.000017809
     0.006748372 12.467098799 -0.000121358    -0.000050704  0.080211151  0.000014173
     0.004536272 -0.003538639 20.042406744    -0.000000714  0.000000486  0.049894208

  length of vectors
    12.714176283 12.467100626 20.042407570     0.078652419  0.080211168  0.049894208


 FORCES acting on ions:
    Electron-Ion                     Ewald-Force                    Non-Local-Force
 -----------------------------------------------------------------------------------------------
   0.796E+01 0.103E+01 -.209E+00   -.839E+01 -.109E+01 0.211E+00   0.338E+00 -.556E-02 -.898E-03
   0.149E+01 -.690E+00 -.200E+00   -.178E+01 0.810E+00 0.201E+00   0.172E+00 -.671E-01 -.726E-03
   0.126E+02 0.163E+00 -.960E-01   -.127E+02 -.217E+00 0.954E-01   0.255E+00 -.103E-01 0.116E-02
   0.186E+02 0.944E+01 -.216E+00   -.187E+02 -.951E+01 0.215E+00   0.244E+00 0.152E+00 0.371E-03
   0.213E+02 0.217E+01 -.128E+00   -.217E+02 -.222E+01 0.128E+00   0.434E+00 0.278E-01 -.126E-02
   0.597E+01 -.392E+01 -.307E+00   -.629E+01 0.397E+01 0.307E+00   0.226E+00 -.130E+00 -.636E-03
   0.120E+02 0.165E+01 -.239E+00   -.124E+02 -.144E+01 0.239E+00   0.369E+00 -.171E+00 -.299E-03
   0.577E+02 0.102E+01 0.175E+00   -.611E+02 -.686E+00 -.170E+00   0.362E+01 -.477E+00 -.477E-02
   0.290E+02 0.813E+00 0.120E+00   -.295E+02 -.778E+00 -.120E+00   0.227E+00 -.154E-01 0.315E-03
   0.708E+01 0.860E+00 -.304E+00   -.747E+01 -.684E+00 0.303E+00   0.271E+00 -.870E-01 -.573E-05
   0.152E+02 -.160E+01 -.214E+00   -.153E+02 0.179E+01 0.214E+00   0.224E+00 -.166E+00 -.941E-03
   0.798E+02 -.193E+01 0.207E+00   -.833E+02 0.205E+01 -.194E+00   0.386E+01 0.873E-01 -.132E-01
   0.275E+02 -.413E+01 -.176E+00   -.279E+02 0.400E+01 0.178E+00   0.327E+00 0.425E-01 -.252E-02
   0.594E+01 0.185E+01 -.267E+00   -.619E+01 -.214E+01 0.268E+00   0.200E+00 0.205E+00 -.825E-03
   0.115E+02 0.883E+00 -.297E+00   -.117E+02 -.100E+01 0.296E+00   0.171E+00 0.136E+00 -.654E-03
   0.484E+02 -.167E+01 -.212E+00   -.520E+02 0.112E+01 0.212E+00   0.377E+01 0.477E+00 -.609E-03
   0.188E+02 -.324E+00 -.206E+00   -.194E+02 0.487E+00 0.207E+00   0.433E+00 -.441E-01 -.581E-03
   0.183E+01 0.155E+01 -.453E-01   -.202E+01 -.161E+01 0.459E-01   0.170E+00 0.730E-01 0.528E-03
   0.997E+01 -.864E+00 -.121E+00   -.103E+02 0.671E+00 0.121E+00   0.404E+00 0.209E+00 0.136E-02
   0.159E+02 -.639E+01 -.241E+00   -.162E+02 0.656E+01 0.240E+00   0.264E+00 -.190E+00 0.142E-02
   -.995E+01 -.173E+01 -.488E+00   0.995E+01 0.208E+01 0.488E+00   -.723E-01 -.392E+00 -.872E-03
   0.530E+01 0.186E+02 -.328E+00   -.521E+01 -.190E+02 0.330E+00   -.126E+00 0.465E+00 -.322E-02
   0.232E+01 -.295E+00 -.500E+00   -.172E+01 0.331E+00 0.500E+00   -.522E+00 -.113E+00 -.854E-03
   -.102E+02 0.625E+01 -.275E+00   0.103E+02 -.581E+01 0.275E+00   -.999E-02 -.402E+00 -.135E-02
   -.234E+02 0.258E+02 0.151E+00   0.249E+02 -.243E+02 -.154E+00   -.114E+01 -.131E+01 0.263E-02
   -.126E+02 0.523E+02 0.748E-01   0.150E+02 -.551E+02 -.702E-01   -.271E+01 0.297E+01 -.494E-02
   -.378E+01 -.376E+02 -.424E+00   0.255E+01 0.405E+02 0.426E+00   0.119E+01 -.284E+01 -.357E-02
   0.774E+01 -.132E+02 -.462E+00   -.757E+01 0.139E+02 0.463E+00   -.825E-01 -.634E+00 -.133E-02
   -.503E+01 -.409E+02 -.461E+00   0.669E+01 0.441E+02 0.464E+00   -.161E+01 -.309E+01 -.424E-02
   -.950E+01 -.129E+02 -.455E+00   0.955E+01 0.135E+02 0.455E+00   -.166E+00 -.661E+00 -.123E-02
   -.897E+01 -.107E+01 -.109E+00   0.891E+01 0.104E+01 0.109E+00   -.162E-02 -.240E-01 0.133E-02
   -.155E+02 0.208E+01 -.233E+00   0.155E+02 -.173E+01 0.232E+00   -.830E-01 -.264E+00 0.478E-03
   -.510E+01 -.260E+01 -.232E+00   0.522E+01 0.283E+01 0.233E+00   -.686E-01 -.313E+00 -.107E-02
   0.344E+01 -.822E+00 -.208E+00   -.353E+01 0.964E+00 0.209E+00   0.193E+00 -.129E+00 -.589E-03
   -.481E+01 -.530E+00 -.262E+00   0.453E+01 0.699E+00 0.262E+00   0.280E+00 -.120E+00 -.197E-03
   -.217E+02 0.103E+01 0.240E+00   0.204E+02 -.905E+00 -.242E+00   0.125E+01 -.261E+00 0.182E-02
   -.993E+01 -.250E+01 -.127E+00   0.947E+01 0.310E+01 0.126E+00   0.436E+00 -.587E+00 -.541E-03
   0.828E+00 -.223E+01 -.328E+00   -.965E+00 0.225E+01 0.327E+00   0.169E+00 -.126E+00 -.482E-03
   -.905E+01 -.133E+01 -.253E+00   0.851E+01 0.147E+01 0.253E+00   0.174E+00 -.137E+00 -.143E-02
   -.330E+02 -.816E+00 0.369E+00   0.328E+02 0.772E+00 -.367E+00   -.374E+00 0.277E+00 -.244E-02
   -.124E+02 0.102E+01 0.152E+00   0.122E+02 -.184E+01 -.154E+00   0.465E+00 0.577E+00 0.261E-02
   -.140E+01 0.215E+00 -.314E+00   0.145E+01 -.443E-01 0.313E+00   0.365E-01 0.236E-02 0.192E-03
   -.466E+01 0.287E+01 -.292E+00   0.453E+01 -.299E+01 0.292E+00   0.187E+00 0.846E-01 -.861E-03
   -.424E+02 0.400E+01 -.179E+00   0.461E+02 -.478E+01 0.180E+00   -.364E+01 0.580E+00 -.258E-02
   -.164E+02 0.308E+01 -.788E-01   0.165E+02 -.318E+01 0.792E-01   -.766E-01 0.303E+00 -.988E-03
   -.204E+01 0.199E+01 -.273E+00   0.203E+01 -.229E+01 0.272E+00   0.496E-01 0.222E+00 -.553E-03
   -.670E+01 -.464E-01 -.140E+00   0.685E+01 -.134E+00 0.139E+00   -.231E+00 0.215E+00 0.141E-02
   -.163E+02 -.631E+01 -.253E+00   0.168E+02 0.657E+01 0.251E+00   -.346E+00 -.267E+00 0.158E-02
   -.159E+02 0.114E+01 -.223E+00   0.163E+02 -.104E+01 0.223E+00   -.269E+00 0.253E-01 -.853E-03
   0.146E+01 0.110E+01 -.541E-01   -.159E+01 -.113E+01 0.548E-01   0.142E+00 0.528E-01 0.459E-03
   -.436E+02 -.246E+01 0.650E+00   0.406E+02 0.791E+01 -.663E+00   0.295E+01 -.539E+01 0.156E-01
   -.777E+02 -.107E+02 0.118E+01   0.736E+02 0.114E+02 -.120E+01   0.478E+01 -.940E+00 0.194E-01
   0.353E+02 0.557E+01 0.777E+00   -.249E+02 0.111E+02 -.827E+00   -.983E+01 -.159E+02 0.501E-01
   0.823E+02 -.251E+02 0.186E+01   -.691E+02 0.243E+02 -.194E+01   -.126E+02 0.279E+00 0.749E-01
   0.157E+02 0.151E+02 -.332E+00   -.616E+01 -.317E+02 0.324E+00   -.926E+01 0.156E+02 0.666E-02
   -.226E+02 0.288E+02 -.146E+00   0.135E+02 -.456E+02 0.130E+00   0.879E+01 0.157E+02 0.138E-01
   -.633E+02 0.912E+02 0.327E+01   0.650E+02 -.974E+02 -.326E+01   -.279E+01 0.406E+01 -.965E-02
   -.452E+02 -.106E+03 0.156E+01   0.454E+02 0.110E+03 -.153E+01   -.377E+00 -.160E+01 -.186E-01
 -----------------------------------------------------------------------------------------------
   0.988E+01 -.754E+01 -.125E+00   0.782E-13 0.412E-12 0.133E-14   -.933E+01 0.604E+01 0.108E+00
 
 
 POSITION                                       TOTAL-FORCE (eV/Angst)
 -----------------------------------------------------------------------------------
      2.81412     12.46051     10.02147        -0.076369     -0.060456      0.000182
      0.70164      1.25092     10.02154        -0.119979      0.048201     -0.000191
      1.39999     12.46116     10.02128         0.093079     -0.064887      0.000610
      3.51378      1.23333     10.02116         0.108638      0.090445     -0.000760
      2.84253      2.48799     10.02052        -0.001993     -0.021331     -0.000601
      0.71606      3.74550     10.02142        -0.082848     -0.090487     -0.000837
      1.41593      2.49909     10.02131        -0.000767      0.025724     -0.000765
      3.60308      3.71425     10.01870         0.397214     -0.169873      0.000027
      2.88740      4.97024     10.01903        -0.217171      0.020499      0.000139
      0.72928      6.23727     10.02134        -0.106365      0.085421     -0.000946
      1.45459      4.98528     10.02078         0.199998      0.008642     -0.001135
      3.60979      6.23376     10.01789         0.574463      0.215547     -0.001315
      2.89491      7.49692     10.02022        -0.047384     -0.088020     -0.001171
      0.71844      8.71604     10.02157        -0.036939     -0.072756     -0.000408
      1.45621      7.48266     10.02127        -0.028697      0.023748     -0.001098
      3.61767      8.74498     10.02074         0.411455     -0.040259     -0.000938
      2.85463      9.97173     10.02137        -0.104164      0.123577      0.000285
      0.70748     11.20689     10.02119        -0.017612      0.014860      0.001182
      1.42516      9.96110     10.02132         0.083252      0.023985      0.000663
      3.52804     11.22589     10.02167        -0.007527     -0.032619      0.000406
      7.06336     12.46905     10.02211        -0.082113     -0.063127     -0.001076
      4.92547      1.22171     10.02114        -0.042218      0.057038     -0.001324
      5.65345     12.46529     10.02212         0.053117     -0.085174     -0.001043
      7.76013      1.24072     10.02111         0.039057      0.023065     -0.001271
      7.04833      2.47320     10.01893         0.322270      0.116207     -0.000259
      5.61853      2.44476     10.01900        -0.412358      0.329102     -0.000625
      7.07154     10.00266     10.02159         0.026141     -0.074908     -0.001098
      4.94652     11.23804     10.02215         0.088450      0.043860     -0.000313
      5.64664     10.01365     10.02167        -0.041631     -0.116815     -0.001049
      7.76848     11.23429     10.02217        -0.126541     -0.032310     -0.000572
     11.30603     12.47045     10.02149        -0.070739     -0.052545      0.000711
      9.17523      1.25322     10.02133        -0.092078      0.080128     -0.000931
      9.88360      0.00543     10.02178         0.057508     -0.094001      0.000063
     11.99557      1.25969     10.02174         0.122457      0.005313     -0.000186
     11.28714      2.50955     10.02155         0.015534      0.043459     -0.000869
      9.11567      3.74974     10.01876        -0.013438     -0.148935      0.000423
      9.85648      2.50844     10.02069         0.002365     -0.019092     -0.000905
     12.00203      3.75286     10.02165         0.044262     -0.120895     -0.001155
     11.27865      4.99874     10.02105        -0.363634      0.000324     -0.001854
      9.11927      6.23207     10.01799        -0.664289      0.246313      0.000214
      9.85733      4.98923     10.01918         0.360509     -0.210715      0.000585
     12.00413      6.24777     10.02154         0.091310      0.173261     -0.001219
     11.26757      7.48905     10.02142         0.067817     -0.028137     -0.001641
      9.10002      8.74055     10.02073        -0.164170     -0.177188     -0.001218
      9.82597      7.49674     10.02018         0.011578      0.225488     -0.000687
     12.00007      8.72348     10.02175         0.042219     -0.068075     -0.000675
     11.28693      9.96527     10.02152        -0.093836      0.044410      0.000474
      9.18636     11.23115     10.02180         0.086296     -0.016682      0.000192
      9.85636      9.97112     10.02151         0.113130      0.132321     -0.000161
     11.99793     11.21440     10.02139         0.020052      0.031375      0.001246
      7.69370      3.73466     10.01695         0.102612     -0.217571      0.002713
      7.73536      6.21034     10.01511         0.871551     -0.298521      0.004589
      4.98057      3.65219     10.01703        -0.250154     -0.499060      0.003640
      4.93524      6.24815     10.01449        -0.473639     -0.462953      0.003002
      5.00376      8.79791     10.02048        -0.553405      0.349843     -0.000975
      7.70322      8.76979     10.02020         0.496549      0.276144     -0.000862
      6.30152      5.06068     10.01414        -0.484208     -0.322985      0.005903
      6.32330      7.34574     10.01617        -0.126617      0.892076      0.004886
 -----------------------------------------------------------------------------------
    total drift:                               -0.000754     -0.003581     -0.001327


--------------------------------------------------------------------------------------------------------



  FREE ENERGIE OF THE ION-ELECTRON SYSTEM (eV)
  ---------------------------------------------------
  free  energy   TOTEN  =      -605.64878484 eV

  energy  without entropy=     -605.64878465  energy(sigma->0) =     -605.64878474
 


--------------------------------------------------------------------------------------------------------


    POTLOK:  cpu time    3.4428: real time    3.4432


--------------------------------------------------------------------------------------------------------


 stress matrix after NEB project (eV)
    -46.32918      0.01588      0.00104
      0.01590    -42.34055      0.00398
      0.00103      0.00371     -0.26291
  FORCES: max atom, RMS     0.921269    0.324556
  FORCE total and by dimension    2.471746    0.892076
  Stress total and by dimension   62.762925   46.329180
 writing wavefunctions
     LOOP+:  cpu time33834.2289: real time33837.8729
    4ORBIT:  cpu time    0.0000: real time    0.0000
 


 total charge     
 
# of ion       s       p       d       tot
------------------------------------------
    1        0.867   1.789   0.000   2.656
    2        0.864   1.766   0.000   2.631
    3        0.868   1.767   0.000   2.635
    4        0.872   1.776   0.000   2.648
    5        0.864   1.772   0.000   2.637
    6        0.862   1.762   0.000   2.624
    7        0.865   1.759   0.000   2.624
    8        0.855   1.713   0.000   2.567
    9        0.855   1.755   0.000   2.610
   10        0.856   1.747   0.000   2.603
   11        0.861   1.733   0.000   2.594
   12        0.863   1.733   0.000   2.596
   13        0.855   1.758   0.000   2.613
   14        0.862   1.761   0.000   2.623
   15        0.860   1.740   0.000   2.600
   16        0.853   1.708   0.000   2.561
   17        0.864   1.768   0.000   2.632
   18        0.864   1.765   0.000   2.629
   19        0.864   1.755   0.000   2.619
   20        0.871   1.772   0.000   2.643
   21        0.869   1.793   0.000   2.662
   22        0.874   1.810   0.000   2.684
   23        0.870   1.800   0.000   2.670
   24        0.872   1.779   0.000   2.651
   25        0.874   1.781   0.000   2.655
   26        0.875   1.758   0.000   2.633
   27        0.865   1.757   0.000   2.622
   28        0.872   1.801   0.000   2.674
   29        0.867   1.769   0.000   2.636
   30        0.871   1.792   0.000   2.664
   31        0.865   1.770   0.000   2.636
   32        0.867   1.777   0.000   2.643
   33        0.867   1.774   0.000   2.641
   34        0.865   1.761   0.000   2.626
   35        0.863   1.758   0.000   2.622
   36        0.861   1.748   0.000   2.610
   37        0.865   1.751   0.000   2.616
   38        0.864   1.752   0.000   2.617
   39        0.862   1.755   0.000   2.617
   40        0.864   1.770   0.000   2.635
   41        0.866   1.740   0.000   2.607
   42        0.859   1.739   0.000   2.598
   43        0.859   1.744   0.000   2.603
   44        0.850   1.710   0.000   2.560
   45        0.855   1.746   0.000   2.601
   46        0.864   1.756   0.000   2.620
   47        0.863   1.760   0.000   2.623
   48        0.868   1.777   0.000   2.645
   49        0.864   1.759   0.000   2.623
   50        0.865   1.760   0.000   2.625
   51        0.868   1.646   0.000   2.514
   52        0.909   1.543   0.000   2.452
   53        1.232   2.658   0.000   3.890
   54        1.256   2.601   0.000   3.857
   55        1.229   2.659   0.000   3.888
   56        1.225   2.639   0.000   3.863
   57        0.546   0.767   8.473   9.786
   58        0.482   0.758   6.359   7.599
--------------------------------------------------
tot         50.959 103.319  14.833 169.111
 


 magnetization (x)
 
# of ion       s       p       d       tot
------------------------------------------
    1        0.000   0.003   0.000   0.003
    2        0.000   0.003   0.000   0.003
    3        0.000   0.003   0.000   0.003
    4        0.000   0.001   0.000   0.001
    5       -0.000   0.000   0.000   0.000
    6        0.000   0.003   0.000   0.003
    7       -0.000  -0.002   0.000  -0.002
    8        0.000   0.005   0.000   0.005
    9       -0.001   0.001   0.000   0.000
   10        0.000   0.006   0.000   0.007
   11       -0.000  -0.004   0.000  -0.004
   12        0.001   0.005   0.000   0.005
   13        0.000   0.006   0.000   0.006
   14        0.000   0.005   0.000   0.006
   15       -0.000  -0.001   0.000  -0.001
   16       -0.000  -0.002   0.000  -0.002
   17        0.000   0.003   0.000   0.003
   18        0.000   0.002   0.000   0.003
   19       -0.000  -0.000   0.000  -0.000
   20       -0.000  -0.004   0.000  -0.004
   21        0.000   0.006   0.000   0.006
   22       -0.000   0.001   0.000   0.001
   23        0.000   0.009   0.000   0.009
   24       -0.000  -0.002   0.000  -0.002
   25       -0.000   0.004   0.000   0.004
   26       -0.000  -0.002   0.000  -0.002
   27       -0.001  -0.004   0.000  -0.005
   28       -0.000  -0.000   0.000  -0.001
   29        0.000   0.010   0.000   0.010
   30       -0.000  -0.000   0.000  -0.000
   31        0.000   0.005   0.000   0.006
   32       -0.000  -0.000   0.000  -0.000
   33        0.000   0.004   0.000   0.004
   34       -0.000  -0.002   0.000  -0.002
   35        0.000   0.006   0.000   0.006
   36        0.001   0.008   0.000   0.009
   37       -0.000  -0.003   0.000  -0.003
   38       -0.000   0.001   0.000   0.000
   39        0.000   0.007   0.000   0.007
   40        0.002   0.032   0.000   0.034
   41       -0.003  -0.017   0.000  -0.019
   42       -0.001  -0.009   0.000  -0.009
   43        0.000   0.003   0.000   0.003
   44        0.001   0.009   0.000   0.009
   45       -0.001  -0.003   0.000  -0.004
   46        0.000   0.005   0.000   0.005
   47        0.000   0.004   0.000   0.005
   48        0.000   0.002   0.000   0.002
   49       -0.000  -0.002   0.000  -0.002
   50       -0.000  -0.001   0.000  -0.001
   51        0.000   0.004   0.000   0.004
   52       -0.014  -0.140   0.000  -0.154
   53       -0.001   0.007   0.000   0.006
   54       -0.006  -0.067   0.000  -0.073
   55       -0.005  -0.008   0.000  -0.013
   56       -0.002   0.024   0.000   0.022
   57       -0.008  -0.013  -0.103  -0.124
   58        0.045   0.007   2.017   2.069
--------------------------------------------------
tot          0.008  -0.079   1.913   1.842
 

 total amount of memory used by VASP MPI-rank0   179438. kBytes
=======================================================================

   base      :      30000. kBytes
   nonl-proj :       5328. kBytes
   fftplans  :      14250. kBytes
   grid      :      36827. kBytes
   one-center:         62. kBytes
   HF        :         23. kBytes
   nonlr-proj:      14936. kBytes
   wavefun   :      78012. kBytes
 
  
  
 General timing and accounting informations for this job:
 ========================================================
  
                  Total CPU time used (sec):    33927.184
                            User time (sec):    33883.409
                          System time (sec):       43.775
                         Elapsed time (sec):    33934.085
  
                   Maximum memory used (kb):      432120.
                   Average memory used (kb):           0.
  
                          Minor page faults:       281817
                          Major page faults:            0
                 Voluntary context switches:         1165
