 vasp.5.4.4.18Apr17-6-g9f103f2a35 (build Feb 25 2019 10:51:38) complex          
  
 executed on             LinuxIFC date 2021.08.08  09:59:24
 running on   32 total cores
 distrk:  each k-point on   32 cores,    1 groups
 distr:  one band on NCORES_PER_BAND=  32 cores,    1 groups


--------------------------------------------------------------------------------------------------------


 INCAR:
 POTCAR:    PAW_PBE C 08Apr2002                   
 POTCAR:    PAW_PBE N 08Apr2002                   
 POTCAR:    PAW_PBE Fe 06Sep2000                  
 POTCAR:    PAW_PBE Sc_sv 07Sep2000               

 ----------------------------------------------------------------------------- 
|                                                                             |
|           W    W    AA    RRRRR   N    N  II  N    N   GGGG   !!!           |
|           W    W   A  A   R    R  NN   N  II  NN   N  G    G  !!!           |
|           W    W  A    A  R    R  N N  N  II  N N  N  G       !!!           |
|           W WW W  AAAAAA  RRRRR   N  N N  II  N  N N  G  GGG   !            |
|           WW  WW  A    A  R   R   N   NN  II  N   NN  G    G                |
|           W    W  A    A  R    R  N    N  II  N    N   GGGG   !!!           |
|                                                                             |
|      For optimal performance we recommend to set                            |
|        NCORE= 4 - approx SQRT( number of cores)                             |
|      NCORE specifies how many cores store one orbital (NPAR=cpu/NCORE).     |
|      This setting can  greatly improve the performance of VASP for DFT.     |
|      The default,   NCORE=1            might be grossly inefficient         |
|      on modern multi-core architectures or massively parallel machines.     |
|      Do your own testing !!!!                                               |
|      Unfortunately you need to use the default for GW and RPA calculations. |
|      (for HF NCORE is supported but not extensively tested yet)             |
|                                                                             |
 ----------------------------------------------------------------------------- 

 POTCAR:    PAW_PBE C 08Apr2002                   
   VRHFIN =C: s2p2                                                              
   LEXCH  = PE                                                                  
   EATOM  =   147.1560 eV,   10.8157 Ry                                         
                                                                                
   TITEL  = PAW_PBE C 08Apr2002                                                 
   LULTRA =        F    use ultrasoft PP ?                                      
   IUNSCR =        1    unscreen: 0-lin 1-nonlin 2-no                           
   RPACOR =    1.200    partial core radius                                     
   POMASS =   12.011; ZVAL   =    4.000    mass and valenz                      
   RCORE  =    1.500    outmost cutoff radius                                   
   RWIGS  =    1.630; RWIGS  =    0.863    wigner-seitz radius (au A)           
   ENMAX  =  400.000; ENMIN  =  300.000 eV                                      
   ICORE  =        2    local potential                                         
   LCOR   =        T    correct aug charges                                     
   LPAW   =        T    paw PP                                                  
   EAUG   =  644.873                                                            
   DEXC   =    0.000                                                            
   RMAX   =    1.529    core radius for proj-oper                               
   RAUG   =    1.300    factor for augmentation sphere                          
   RDEP   =    1.501    radius for radial grids                                 
   RDEPT  =    1.300    core radius for aug-charge                              
                                                                                
   Atomic configuration                                                         
    4 entries                                                                   
     n  l   j            E        occ.                                          
     1  0  0.50      -273.3789   2.0000                                         
     2  0  0.50       -13.7508   2.0000                                         
     2  1  0.50        -5.2854   2.0000                                         
     3  2  1.50        -5.4423   0.0000                                         
   Description                                                                  
     l       E           TYP  RCUT    TYP  RCUT                                 
     0    -13.7508458     23  1.200                                             
     0     -8.2022199     23  1.200                                             
     1     -5.2854383     23  1.500                                             
     1     34.0145650     23  1.500                                             
     2     -5.4423304      7  1.500                                             
  local pseudopotential read in
  partial core-charges read in
  partial kinetic energy density read in
  atomic valenz-charges read in
  non local Contribution for L=           0  read in
    real space projection operators read in
  non local Contribution for L=           0  read in
    real space projection operators read in
  non local Contribution for L=           1  read in
    real space projection operators read in
  non local Contribution for L=           1  read in
    real space projection operators read in
    PAW grid and wavefunctions read in
 
   number of l-projection  operators is LMAX  =           4
   number of lm-projection operators is LMMAX =           8
 
 POTCAR:    PAW_PBE N 08Apr2002                   
   VRHFIN =N: s2p3                                                              
   LEXCH  = PE                                                                  
   EATOM  =   264.5486 eV,   19.4438 Ry                                         
                                                                                
   TITEL  = PAW_PBE N 08Apr2002                                                 
   LULTRA =        F    use ultrasoft PP ?                                      
   IUNSCR =        1    unscreen: 0-lin 1-nonlin 2-no                           
   RPACOR =    1.200    partial core radius                                     
   POMASS =   14.001; ZVAL   =    5.000    mass and valenz                      
   RCORE  =    1.500    outmost cutoff radius                                   
   RWIGS  =    1.400; RWIGS  =    0.741    wigner-seitz radius (au A)           
   ENMAX  =  400.000; ENMIN  =  300.000 eV                                      
   ICORE  =        2    local potential                                         
   LCOR   =        T    correct aug charges                                     
   LPAW   =        T    paw PP                                                  
   EAUG   =  627.112                                                            
   DEXC   =    0.000                                                            
   RMAX   =    1.529    core radius for proj-oper                               
   RAUG   =    1.300    factor for augmentation sphere                          
   RDEP   =    1.514    radius for radial grids                                 
   RDEPT  =    1.338    core radius for aug-charge                              
                                                                                
   Atomic configuration                                                         
    4 entries                                                                   
     n  l   j            E        occ.                                          
     1  0  0.50      -384.7179   2.0000                                         
     2  0  0.50       -18.5828   2.0000                                         
     2  1  0.50        -7.0898   3.0000                                         
     3  2  1.50        -6.8029   0.0000                                         
   Description                                                                  
     l       E           TYP  RCUT    TYP  RCUT                                 
     0    -18.5828119     23  1.200                                             
     0    -13.5018863     23  1.200                                             
     1     -7.0897853     23  1.500                                             
     1      9.5240782     23  1.500                                             
     2     -6.8029130      7  1.500                                             
  local pseudopotential read in
  partial core-charges read in
  partial kinetic energy density read in
  atomic valenz-charges read in
  non local Contribution for L=           0  read in
    real space projection operators read in
  non local Contribution for L=           0  read in
    real space projection operators read in
  non local Contribution for L=           1  read in
    real space projection operators read in
  non local Contribution for L=           1  read in
    real space projection operators read in
    PAW grid and wavefunctions read in
 
   number of l-projection  operators is LMAX  =           4
   number of lm-projection operators is LMMAX =           8
 
 POTCAR:    PAW_PBE Fe 06Sep2000                  
   VRHFIN =Fe:  d7 s1                                                           
   LEXCH  = PE                                                                  
   EATOM  =   594.3153 eV,   43.6809 Ry                                         
                                                                                
   TITEL  = PAW_PBE Fe 06Sep2000                                                
   LULTRA =        F    use ultrasoft PP ?                                      
   IUNSCR =        1    unscreen: 0-lin 1-nonlin 2-no                           
   RPACOR =    2.000    partial core radius                                     
   POMASS =   55.847; ZVAL   =    8.000    mass and valenz                      
   RCORE  =    2.300    outmost cutoff radius                                   
   RWIGS  =    2.460; RWIGS  =    1.302    wigner-seitz radius (au A)           
   ENMAX  =  267.882; ENMIN  =  200.911 eV                                      
   RCLOC  =    1.701    cutoff for local pot                                    
   LCOR   =        T    correct aug charges                                     
   LPAW   =        T    paw PP                                                  
   EAUG   =  511.368                                                            
   DEXC   =    0.000                                                            
   RMAX   =    2.356    core radius for proj-oper                               
   RAUG   =    1.300    factor for augmentation sphere                          
   RDEP   =    2.442    radius for radial grids                                 
   RDEPT  =    1.890    core radius for aug-charge                              
                                                                                
   Atomic configuration                                                         
    9 entries                                                                   
     n  l   j            E        occ.                                          
     1  0  0.50     -6993.8440   2.0000                                         
     2  0  0.50      -814.6047   2.0000                                         
     2  1  1.50      -693.3689   6.0000                                         
     3  0  0.50       -89.4732   2.0000                                         
     3  1  1.50       -55.6373   6.0000                                         
     3  2  2.50        -3.8151   7.0000                                         
     4  0  0.50        -4.2551   1.0000                                         
     4  1  1.50        -3.4015   0.0000                                         
     4  3  2.50        -1.3606   0.0000                                         
   Description                                                                  
     l       E           TYP  RCUT    TYP  RCUT                                 
     2     -3.8151135     23  2.300                                             
     2     -5.1756961     23  2.300                                             
     0     -4.2550963     23  2.300                                             
     0      7.2035603     23  2.300                                             
     1     -2.7211652     23  2.300                                             
     1     18.4316424     23  2.300                                             
  local pseudopotential read in
  partial core-charges read in
  partial kinetic energy density read in
  atomic valenz-charges read in
  non local Contribution for L=           2  read in
    real space projection operators read in
  non local Contribution for L=           2  read in
    real space projection operators read in
  non local Contribution for L=           0  read in
    real space projection operators read in
  non local Contribution for L=           0  read in
    real space projection operators read in
  non local Contribution for L=           1  read in
    real space projection operators read in
  non local Contribution for L=           1  read in
    real space projection operators read in
    PAW grid and wavefunctions read in
 
   number of l-projection  operators is LMAX  =           6
   number of lm-projection operators is LMMAX =          18
 
 POTCAR:    PAW_PBE Sc_sv 07Sep2000               
   VRHFIN =Sc: 3p4s3d                                                           
   LEXCH  = PE                                                                  
   EATOM  =  1273.2868 eV,   93.5839 Ry                                         
                                                                                
   TITEL  = PAW_PBE Sc_sv 07Sep2000                                             
   LULTRA =        F    use ultrasoft PP ?                                      
   IUNSCR =        1    unscreen: 0-lin 1-nonlin 2-no                           
   RPACOR =    2.200    partial core radius                                     
   POMASS =   44.956; ZVAL   =   11.000    mass and valenz                      
   RCORE  =    2.500    outmost cutoff radius                                   
   RWIGS  =    2.700; RWIGS  =    1.429    wigner-seitz radius (au A)           
   ENMAX  =  222.660; ENMIN  =  166.995 eV                                      
   RCLOC  =    1.805    cutoff for local pot                                    
   LCOR   =        T    correct aug charges                                     
   LPAW   =        T    paw PP                                                  
   EAUG   =  443.063                                                            
   RMAX   =    2.551    core radius for proj-oper                               
   RAUG   =    1.300    factor for augmentation sphere                          
   RDEP   =    2.650    radius for radial grids                                 
   RDEPT  =    2.038    core radius for aug-charge                              
                                                                                
   Atomic configuration                                                         
    8 entries                                                                   
     n  l   j            E        occ.                                          
     1  0  0.50     -4394.2533   2.0000                                         
     2  0  0.50      -471.0040   2.0000                                         
     2  1  1.50      -384.9788   6.0000                                         
     3  0  0.50       -52.1410   2.0000                                         
     4  0  0.50        -3.5584   1.0000                                         
     3  1  1.50       -30.8841   6.0000                                         
     3  2  2.50        -1.3655   2.0000                                         
     4  3  2.50        -1.3606   0.0000                                         
   Description                                                                  
     l       E           TYP  RCUT    TYP  RCUT                                 
     0    -52.1409870     23  1.800                                             
     0     -3.5583698     23  2.500                                             
     1    -30.8840697     23  2.300                                             
     1      4.0817478     23  2.300                                             
     2     -1.3655397     23  2.500                                             
     2      0.3564476     23  2.500                                             
  local pseudopotential read in
  partial core-charges read in
  partial kinetic energy density read in
  atomic valenz-charges read in
  non local Contribution for L=           0  read in
    real space projection operators read in
  non local Contribution for L=           0  read in
    real space projection operators read in
  non local Contribution for L=           1  read in
    real space projection operators read in
  non local Contribution for L=           1  read in
    real space projection operators read in
  non local Contribution for L=           2  read in
    real space projection operators read in
  non local Contribution for L=           2  read in
    real space projection operators read in
    PAW grid and wavefunctions read in
 
   number of l-projection  operators is LMAX  =           6
   number of lm-projection operators is LMMAX =          18
 

 ----------------------------------------------------------------------------- 
|                                                                             |
|  ADVICE TO THIS USER RUNNING 'VASP/VAMP'   (HEAR YOUR MASTER'S VOICE ...):  |
|                                                                             |
|      You have a (more or less) 'large supercell' and for larger cells       |
|      it might be more efficient to use real space projection opertators     |
|      So try LREAL= Auto  in the INCAR   file.                               |
|      Mind:          For very  accurate calculation you might also keep the  |
|      reciprocal projection scheme          (i.e. LREAL=.FALSE.)             |
|                                                                             |
 ----------------------------------------------------------------------------- 

  PAW_PBE C 08Apr2002                   :
 energy of atom  1       EATOM= -147.1560
 kinetic energy error for atom=    0.0076 (will be added to EATOM!!)
  PAW_PBE N 08Apr2002                   :
 energy of atom  2       EATOM= -264.5486
 kinetic energy error for atom=    0.0138 (will be added to EATOM!!)
  PAW_PBE Fe 06Sep2000                  :
 energy of atom  3       EATOM= -594.3153
 kinetic energy error for atom=    0.0026 (will be added to EATOM!!)
  PAW_PBE Sc_sv 07Sep2000               :
 energy of atom  4       EATOM=-1273.2868
 kinetic energy error for atom=    0.0031 (will be added to EATOM!!)
 
 
 POSCAR:  C  N Fe Sc                             
  positions in cartesian coordinates
  No initial velocities read in
 exchange correlation table for  LEXCH =        8
   RHO(1)=    0.500       N(1)  =     2000
   RHO(2)=  100.500       N(2)  =     4000

 VTST: version 3.2, (02/03/18)

 CHAIN: initializing optimizer
 
 OPT: Using VASP Conjugate-Gradient optimizer
 CHAIN: Read ICHAIN            0
 
 POSCAR:  C  N Fe Sc                             
  positions in cartesian coordinates
  No initial velocities read in
 


--------------------------------------------------------------------------------------------------------


 ion  position               nearest neighbor table
   1  0.224  0.000  0.497-  18 1.44   4 1.44   3 1.46
   2  0.057  0.100  0.506-   3 1.43   7 1.43  33 1.44
   3  0.112  0.000  0.502-   2 1.43  16 1.43   1 1.46
   4  0.280  0.102  0.497-   1 1.44   5 1.45  20 1.46
   5  0.222  0.202  0.496-  50 1.43   7 1.45   4 1.45
   6  0.053  0.299  0.507-  10 1.42  37 1.43   7 1.43
   7  0.111  0.201  0.503-   2 1.43   6 1.43   5 1.45
   8  0.210  0.399  0.486-  10 1.41  50 1.41  11 1.44
   9  0.051  0.501  0.504-  41 1.41  14 1.43  10 1.43
  10  0.104  0.400  0.500-   8 1.41   6 1.42   9 1.43
  11  0.262  0.499  0.468-  56 1.33   8 1.44  12 1.46
  12  0.210  0.602  0.476-  51 1.40  14 1.42  11 1.46
  13  0.052  0.701  0.501-  14 1.42  45 1.43  17 1.44
  14  0.104  0.601  0.496-  13 1.42  12 1.42   9 1.43
  15  0.219  0.799  0.485-  51 1.43  17 1.45  18 1.46
  16  0.056  0.901  0.504-  17 1.43   3 1.43  49 1.44
  17  0.110  0.801  0.497-  16 1.43  13 1.44  15 1.45
  18  0.279  0.899  0.492-   1 1.44  15 1.46  28 1.47
  19  0.557  0.001  0.505-  22 1.43  29 1.44  21 1.45
  20  0.392  0.104  0.498-  52 1.43  21 1.45   4 1.46
  21  0.446  0.001  0.500-  19 1.45  20 1.45  28 1.45
  22  0.613  0.100  0.507-  23 1.43  19 1.43  31 1.44
  23  0.559  0.200  0.503-  52 1.43  22 1.43  24 1.46
  24  0.617  0.302  0.505-  55 1.36  35 1.42  23 1.46
  25  0.614  0.497  0.503-  55 1.40  53 1.43  39 1.44
  26  0.613  0.696  0.505-  53 1.42  43 1.44  27 1.49
  27  0.557  0.801  0.502-  54 1.41  29 1.43  26 1.49
  28  0.391  0.899  0.495-  54 1.43  21 1.45  18 1.47
  29  0.613  0.901  0.506-  27 1.43  47 1.43  19 1.44
  30  0.890  0.000  0.511-  49 1.42  33 1.43  32 1.44
  31  0.724  0.099  0.511-  32 1.43  36 1.43  22 1.44
  32  0.779  1.000  0.511-  47 1.42  31 1.43  30 1.44
  33  0.946  0.100  0.511-  30 1.43  34 1.43   2 1.44
  34  0.889  0.199  0.513-  37 1.42  36 1.43  33 1.43
  35  0.726  0.299  0.511-  40 1.42  24 1.42  36 1.43
  36  0.780  0.199  0.512-  31 1.43  35 1.43  34 1.43
  37  0.944  0.299  0.512-  34 1.42  38 1.43   6 1.43
  38  0.889  0.399  0.514-  40 1.42  41 1.43  37 1.43
  39  0.724  0.498  0.511-  40 1.43  44 1.43  25 1.44
  40  0.780  0.399  0.513-  35 1.42  38 1.42  39 1.43
  41  0.943  0.500  0.512-   9 1.41  38 1.43  42 1.43
  42  0.888  0.601  0.513-  45 1.43  41 1.43  44 1.43
  43  0.723  0.699  0.511-  44 1.42  48 1.43  26 1.44
  44  0.778  0.600  0.513-  43 1.42  42 1.43  39 1.43
  45  0.943  0.701  0.509-  46 1.43  42 1.43  13 1.43
  46  0.888  0.801  0.511-  45 1.43  48 1.43  49 1.43
  47  0.723  0.900  0.510-  32 1.42  48 1.43  29 1.43
  48  0.778  0.800  0.511-  46 1.43  43 1.43  47 1.43
  49  0.945  0.900  0.509-  30 1.42  46 1.43  16 1.44
  50  0.271  0.305  0.485-   8 1.41   5 1.43  57 1.94
  51  0.266  0.699  0.468-  12 1.40  15 1.43  58 2.21
  52  0.449  0.203  0.498-  23 1.43  20 1.43  57 1.94
  53  0.559  0.596  0.499-  26 1.42  25 1.43  58 2.21
  54  0.449  0.801  0.495-  27 1.41  28 1.43  58 2.18
  55  0.563  0.396  0.498-  24 1.36  25 1.40  57 2.06
  56  0.359  0.489  0.448-  11 1.33  57 1.93  58 2.15
  57  0.413  0.352  0.479-  56 1.93  50 1.94  52 1.94  55 2.06
  58  0.424  0.649  0.440-  56 2.15  54 2.18  53 2.21  51 2.21
 
  LATTYP: Found a triclinic cell.
 ALAT       =    26.7544935628
 B/A-ratio  =     0.4862676541
 C/A-ratio  =     0.4611861706
 COS(alpha) =     0.0027750836
 COS(beta)  =     0.4609634061
 COS(gamma) =     0.4915247613
  
  Lattice vectors:
  
 A1 = (  13.1080378147, -12.3108468651, -19.8097279112)
 A2 = (  13.0097795887,   0.0160906376,  -0.0379268042)
 A3 = (   0.0495574551, -12.3386882515,   0.0190207434)


Analysis of symmetry for initial positions (statically):
=====================================================================
 Subroutine PRICEL returns:
 Original cell was already a primitive cell.
 

 Routine SETGRP: Setting up the symmetry group for a 
 triclinic supercell.


 Subroutine GETGRP returns: Found  1 space group operations
 (whereof  1 operations were pure point group operations)
 out of a pool of  2 trial point group operations.


The static configuration has the point symmetry C_1 .


Analysis of symmetry for dynamics (positions and initial velocities):
=====================================================================
 Subroutine PRICEL returns:
 Original cell was already a primitive cell.
 

 Routine SETGRP: Setting up the symmetry group for a 
 triclinic supercell.


 Subroutine GETGRP returns: Found  1 space group operations
 (whereof  1 operations were pure point group operations)
 out of a pool of  2 trial point group operations.


The dynamic configuration has the point symmetry C_1 .


Analysis of structural, dynamic, and magnetic symmetry:
=====================================================================
 Subroutine PRICEL returns:
 Original cell was already a primitive cell.
 

 Routine SETGRP: Setting up the symmetry group for a 
 triclinic supercell.


 Subroutine GETGRP returns: Found  1 space group operations
 (whereof  1 operations were pure point group operations)
 out of a pool of  2 trial point group operations.


The magnetic configuration has the point symmetry C_1 .


 Subroutine INISYM returns: Found  1 space group operations
 (whereof  1 operations are pure point group operations),
 and found     1 'primitive' translations

 
 
 KPOINTS: KPOINTS created by Atomic Simulation Env

Automatic generation of k-mesh.
Space group operators:
 irot       det(A)        alpha          n_x          n_y          n_z        tau_x        tau_y        tau_z
    1     1.000000     0.000000     1.000000     0.000000     0.000000     0.000000     0.000000     0.000000
 
 Subroutine IBZKPT returns following result:
 ===========================================
 
 Found      2 irreducible k-points:
 
 Following reciprocal coordinates:
            Coordinates               Weight
  0.250000  0.250000  0.000000      2.000000
 -0.250000  0.250000  0.000000      2.000000
 
 Following cartesian coordinates:
            Coordinates               Weight
  0.019191  0.020339  0.000059      2.000000
 -0.019241  0.020184 -0.000035      2.000000
 
 
 Subroutine IBZKPT_HF returns following result:
 ==============================================
 
 Found      4 k-points in 1st BZ
 the following      4 k-points will be used (e.g. in the exchange kernel)
 Following reciprocal coordinates:   # in IRBZ
  0.250000  0.250000  0.000000    0.25000000   1 t-inv F
 -0.250000  0.250000  0.000000    0.25000000   2 t-inv F
 -0.250000 -0.250000 -0.000000    0.25000000   1 t-inv T
  0.250000 -0.250000 -0.000000    0.25000000   2 t-inv T


--------------------------------------------------------------------------------------------------------




 Dimension of arrays:
   k-points           NKPTS =      2   k-points in BZ     NKDIM =      4   number of bands    NBANDS=    156
   number of dos      NEDOS =    301   number of ions     NIONS =     58
   non local maximal  LDIM  =      6   non local SUM 2l+1 LMDIM =     18
   total plane-waves  NPLWV = ******
   max r-space proj   IRMAX =      1   max aug-charges    IRDMAX=  17495
   dimension x,y,z NGX =    96 NGY =   90 NGZ =  144
   dimension x,y,z NGXF=   192 NGYF=  180 NGZF=  288
   support grid    NGXF=   192 NGYF=  180 NGZF=  288
   ions per type =              54   2   1   1
   NGX,Y,Z   is equivalent  to a cutoff of  12.27, 12.13, 12.10 a.u.
   NGXF,Y,Z  is equivalent  to a cutoff of  24.53, 24.25, 24.19 a.u.

 SYSTEM =  unknown system                          
 POSCAR =   C  N Fe Sc                             

 Startparameter for this run:
   NWRITE =      2    write-flag & timer
   PREC   = accura    normal or accurate (medium, high low for compatibility)
   ISTART =      1    job   : 0-new  1-cont  2-samecut
   ICHARG =      0    charge: 1-file 2-atom 10-const
   ISPIN  =      2    spin polarized calculation?
   LNONCOLLINEAR =      F non collinear calculations
   LSORBIT =      F    spin-orbit coupling
   INIWAV =      1    electr: 0-lowe 1-rand  2-diag
   LASPH  =      T    aspherical Exc in radial PAW
   METAGGA=      F    non-selfconsistent MetaGGA calc.

 Electronic Relaxation 1
   ENCUT  =  500.0 eV  36.75 Ry    6.06 a.u.  23.72 22.50 36.08*2*pi/ulx,y,z
   ENINI  =  500.0     initial cutoff
   ENAUG  =  644.9 eV  augmentation charge cutoff
   NELM   =    250;   NELMIN=  2; NELMDL=  0     # of ELM steps 
   EDIFF  = 0.1E-03   stopping-criterion for ELM
   LREAL  =      F    real-space projection
   NLSPLINE    = F    spline interpolate recip. space projectors
   LCOMPAT=      F    compatible to vasp.4.4
   GGA_COMPAT  = T    GGA compatible to vasp.4.4-vasp.4.6
   LMAXPAW     = -100 max onsite density
   LMAXMIX     =    2 max onsite mixed and CHGCAR
   VOSKOWN=      0    Vosko Wilk Nusair interpolation
   ROPT   =    0.00000   0.00000   0.00000   0.00000
 Ionic relaxation
   EDIFFG = -.3E-01   stopping-criterion for IOM
   NSW    =      0    number of steps for IOM
   NBLOCK =      1;   KBLOCK =      1    inner block; outer block 
   IBRION =     -1    ionic relax: 0-MD 1-quasi-New 2-CG
   NFREE  =      1    steps in history (QN), initial steepest desc. (CG)
   ISIF   =      2    stress and relaxation
   IWAVPR =     10    prediction:  0-non 1-charg 2-wave 3-comb
   ISYM   =      3    0-nonsym 1-usesym 2-fastsym
   LCORR  =      T    Harris-Foulkes like correction to forces

   POTIM  = 0.5000    time-step for ionic-motion
   TEIN   =    0.0    initial temperature
   TEBEG  =    0.0;   TEEND  =   0.0 temperature during run
   SMASS  =  -3.00    Nose mass-parameter (am)
   estimated Nose-frequenzy (Omega)   =  0.10E-29 period in steps =****** mass=  -0.387E-26a.u.
   SCALEE = 1.0000    scale energy and forces
   NPACO  =    256;   APACO  = 16.0  distance and # of slots for P.C.
   PSTRESS=    0.0 pullay stress

  Mass of Ions in am
   POMASS =  12.01 14.00 55.85 44.96
  Ionic Valenz
   ZVAL   =   4.00  5.00  8.00 11.00
  Atomic Wigner-Seitz radii
   RWIGS  =  -1.00 -1.00 -1.00 -1.00
  virtual crystal weights 
   VCA    =   1.00  1.00  1.00  1.00
   NELECT =     245.0000    total number of electrons
   NUPDOWN=      -1.0000    fix difference up-down

 DOS related values:
   EMIN   =  10.00;   EMAX   =-10.00  energy-range for DOS
   EFERMI =   0.00
   ISMEAR =     0;   SIGMA  =   0.10  broadening in eV -4-tet -1-fermi 0-gaus

 Electronic relaxation 2 (details)
   IALGO  =     53    algorithm
   LDIAG  =      T    sub-space diagonalisation (order eigenvalues)
   LSUBROT=      F    optimize rotation matrix (better conditioning)
   TURBO    =      0    0=normal 1=particle mesh
   IRESTART =      0    0=no restart 2=restart with 2 vectors
   NREBOOT  =      0    no. of reboots
   NMIN     =      0    reboot dimension
   EREF     =   0.00    reference energy to select bands
   IMIX   =      4    mixing-type and parameters
     AMIX     =   0.40;   BMIX     =  1.00
     AMIX_MAG =   1.60;   BMIX_MAG =  1.00
     AMIN     =   0.10
     WC   =   100.;   INIMIX=   1;  MIXPRE=   1;  MAXMIX= -45

 Intra band minimization:
   WEIMIN = 0.0000     energy-eigenvalue tresh-hold
   EBREAK =  0.16E-06  absolut break condition
   DEPER  =   0.30     relativ break condition  

   TIME   =   0.20     timestep for ELM

  volume/ion in A,a.u.               =      54.77       369.63
  Fermi-wavevector in a.u.,A,eV,Ry     =   0.696835  1.316827  6.606697  0.485579
  Thomas-Fermi vector in A             =   1.779995
 
 Write flags
   LWAVE        =      T    write WAVECAR
   LDOWNSAMPLE  =      F    k-point downsampling of WAVECAR
   LCHARG       =      T    write CHGCAR
   LVTOT        =      F    write LOCPOT, total local potential
   LVHAR        =      F    write LOCPOT, Hartree potential only
   LELF         =      F    write electronic localiz. function (ELF)
   LORBIT       =     11    0 simple, 1 ext, 2 COOP (PROOUT), +10 PAW based schemes


 Dipole corrections
   LMONO  =      F    monopole corrections only (constant potential shift)
   LDIPOL =      T    correct potential (dipole corrections)
   IDIPOL =      3    1-x, 2-y, 3-z, 4-all directions 
   EPSILON=  1.0000000 bulk dielectric constant

 Exchange correlation treatment:
   GGA     =    PE    GGA type
   LEXCH   =     8    internal setting for exchange type
   VOSKOWN=      0    Vosko Wilk Nusair interpolation
   EXXOEP  =     0    0=HF, 1=EXX-LHF (local Hartree Fock) 2=EXX OEP
   LHFCALC =     T    Hartree Fock is set to
   LSYMGRAD=     F    symmetrize gradient (conserves proper symmetry)
   PRECFOCK=normal    Normal, Fast or Accurate (Low or Medium for compatibility)
   LRHFCALC=     F    long range Hartree Fock
   LRSCOR  =     F    long range correlation only (use DFT for short range part)
   LTHOMAS =     F    Thomas Fermi screening in HF
   LMODELHF=     F    short range full HF, long range fraction AEXX
   ENCUT4O =  -1.0   cutoff for four orbital integrals eV
   LMAXFOCK=     4    L truncation for augmentation on plane wave grid
   LMAXFOCKAE=  -1    L truncation for all-electron charge restoration on plane wave grid
   NMAXFOCKAE=   1    number of basis functions for all-electron charge restoration
   LFOCKAEDFT=     F  apply the AE augmentation even for DFT
   NKREDX  =     1    reduce k-point grid by
   NKREDY  =     1    reduce k-point grid by
   NKREDZ  =     1    reduce k-point grid by
   SHIFTRED=     F    shift reduced grid of Gamma
   HFKIDENT=     F    idential grid for each k-point
   ODDONLY =     F    use only odd q-grid points
   EVENONLY=     F    use only even q-grid points
   HFALPHA =   -1.0000 decay constant for conv. correction
   MCALPHA =    0.0000 extent of test-charge in conv. correction in multipole expansion
   AEXX    =    0.2500 exact exchange contribution
   HFSCREEN=    0.2000 screening length (either q_TF or 0.3 A-1)
   HFSCREENC=   0.2000 screening length for correlation (either q_TF or 0.3 A-1)
   HFRCUT  =    0.0000 spherical cutoff for potential kernel
   ALDAX   =    0.7500 LDA exchange part
   AGGAX   =    0.7500 GGA exchange part
   ALDAC   =    1.0000 LDA correlation
   AGGAC   =    1.0000 GGA correlation
   ENCUTFOCK=  -1.0 apply spherical cutoff to Coloumb kernel
   NBANDSGWLOW=     1    first orbital included in HF term
   NBLOCK_FOCK=    64    blocking factor in FOCK_ACC
 Linear response parameters
   LEPSILON=     F    determine dielectric tensor
   LRPA    =     F    only Hartree local field effects (RPA)
   LNABLA  =     F    use nabla operator in PAW spheres
   LVEL    =     F    velocity operator in full k-point grid
   LINTERFAST=   F  fast interpolation
   KINTER  =     0    interpolate to denser k-point grid
   CSHIFT  =0.1000    complex shift for real part using Kramers Kronig
   OMEGAMAX=  -1.0    maximum frequency
   DEG_THRESHOLD= 0.2000000E-02 threshold for treating states as degnerate
   RTIME   =   -0.100 relaxation time in fs
  (WPLASMAI=    0.000 imaginary part of plasma frequency in eV, 0.658/RTIME)
   DFIELD  = 0.0000000 0.0000000 0.0000000 field for delta impulse in time
 
 Orbital magnetization related:
   ORBITALMAG=     F  switch on orbital magnetization
   LCHIMAG   =     F  perturbation theory with respect to B field
   DQ        =  0.001000  dq finite difference perturbation B field
   LLRAUG    =     F  two centre corrections for induced B field



--------------------------------------------------------------------------------------------------------


 Static calculation
 charge density and potential will be updated during run
 spin polarized calculation
 Conjugate gradient for all bands (Freysoldt, et al. PRB 79, 241103 (2009))
 perform sub-space diagonalisation
    before iterative eigenvector-optimisation
 modified Broyden-mixing scheme, WC =      100.0
 initial mixing is a Kerker type mixing with AMIX =  0.4000 and BMIX =      1.0000
 Hartree-type preconditioning will be used
 using additional bands           33
 reciprocal scheme for non local part
 use partial core corrections
 no Harris-corrections to forces 
 use gradient corrections 
 use of overlap-Matrix (Vanderbilt PP)
 Gauss-broadening in eV      SIGMA  =   0.10


--------------------------------------------------------------------------------------------------------


  energy-cutoff  :      500.00
  volume of cell :     3176.88
      direct lattice vectors                 reciprocal lattice vectors
    13.009779589  0.016090638 -0.037926804     0.076865423  0.000309016  0.000189332
    -0.049557455 12.338688251 -0.019020743    -0.000100098  0.081045564  0.000047874
    -0.048700771 -0.011750749 19.790821850     0.000147207  0.000078484  0.050528881

  length of vectors
    13.009844822 12.338802434 19.790885260     0.076866277  0.081045640  0.050529157


 
 old parameters found on file WAVECAR:
  energy-cutoff  :      500.00
  volume of cell :     3176.88
      direct lattice vectors                 reciprocal lattice vectors
    13.023100000  0.000000000  0.000000000     0.076786633  0.000415728 -0.000106120
    -0.066459372 12.275320094  0.000000000     0.000000000  0.081464271 -0.000048240
     0.027400533  0.011767735 19.872577626     0.000000000  0.000000000  0.050320599

  length of vectors

 
 k-points in units of 2pi/SCALE and weight: KPOINTS created by Atomic Simulation Env
   0.01919133  0.02033865  0.00005930       0.500
  -0.01924138  0.02018414 -0.00003536       0.500
 
 k-points in reciprocal lattice and weights: KPOINTS created by Atomic Simulation Env
   0.25000000  0.25000000  0.00000000       0.500
  -0.25000000  0.25000000  0.00000000       0.500
 
 position of ions in fractional coordinates (direct lattice) 
   0.22439245  0.00038127  0.49749108
   0.05663544  0.09980749  0.50614023
   0.11235771  0.00037206  0.50206827
   0.27951371  0.10210269  0.49715944
   0.22206669  0.20246397  0.49618045
   0.05330337  0.29908971  0.50653010
   0.11139436  0.20055124  0.50322177
   0.21031855  0.39942948  0.48643904
   0.05050523  0.50077696  0.50368479
   0.10418207  0.40005152  0.50015783
   0.26236492  0.49862567  0.46825840
   0.20964277  0.60242235  0.47634647
   0.05242125  0.70119519  0.50138878
   0.10431120  0.60066985  0.49564932
   0.21923547  0.79914322  0.48548762
   0.05563339  0.90084990  0.50382009
   0.10969340  0.80060281  0.49732297
   0.27869222  0.89931818  0.49152845
   0.55666387  0.00053355  0.50464744
   0.39155986  0.10364094  0.49795965
   0.44576601  0.00145704  0.50015646
   0.61343934  0.10016583  0.50684734
   0.55868334  0.20035458  0.50320515
   0.61651480  0.30177748  0.50482533
   0.61367448  0.49676382  0.50347509
   0.61306820  0.69605680  0.50500651
   0.55684664  0.80083982  0.50231939
   0.39136353  0.89913699  0.49506737
   0.61306236  0.90071510  0.50634873
   0.89009818  0.00003010  0.51116600
   0.72367802  0.09933624  0.51068275
   0.77921640  0.99988209  0.51147922
   0.94599359  0.09953618  0.51058917
   0.88947006  0.19892268  0.51278786
   0.72554181  0.29944791  0.51127711
   0.77960863  0.19891876  0.51246326
   0.94382390  0.29914286  0.51220828
   0.88928578  0.39937021  0.51391298
   0.72385582  0.49848141  0.51143035
   0.77985305  0.39942466  0.51331107
   0.94264448  0.50045109  0.51169831
   0.88794169  0.60058373  0.51257752
   0.72330760  0.69944880  0.51068432
   0.77795974  0.59966206  0.51287206
   0.94291014  0.70069958  0.50941448
   0.88845833  0.80073578  0.51082074
   0.72321019  0.90048849  0.51018657
   0.77841433  0.80008878  0.51136310
   0.94523402  0.90049359  0.50919839
   0.27121072  0.30465901  0.48549520
   0.26591804  0.69867527  0.46770165
   0.44925609  0.20264280  0.49803284
   0.55854336  0.59643442  0.49906079
   0.44875700  0.80073188  0.49509744
   0.56318857  0.39634044  0.49839290
   0.35904763  0.48908795  0.44791126
   0.41313566  0.35240130  0.47938703
   0.42354055  0.64944644  0.44001379
 
 position of ions in cartesian coordinates  (Angst):
   2.89504924  0.00246908  9.83723961
   0.70721900  1.22645733 10.01288475
   1.43727943  0.00049896  9.93207532
   3.60713978  1.25846880  9.82665076
   2.85484069  2.49588249  9.80754554
   0.65397460  3.68528023 10.01693636
   1.41476994  2.47041835  9.95113299
   2.69271327  4.92610391  9.61145418
   0.60771487  6.17382479  9.95689526
   1.31120211  4.93191010  9.88697403
   3.36579462  6.15110589  9.24778359
   2.67435330  7.43087745  9.40787850
   0.62282145  8.64678063  9.90757059
   1.30315951  7.40733220  9.79392602
   2.78895800  9.85820187  9.58468375
   0.65459793 11.11028104  9.95176875
   1.36319112  9.87430958  9.82304194
   3.55721859 11.09511515  9.70007641
   7.21747110  0.00961044  9.96626488
   5.06472023  1.27924225  9.83820873
   5.77488726  0.01927339  9.88157327
   7.95106278  1.23982973 10.00575438
   7.23391152  2.47518919  9.93384343
   7.98118093  3.72752633  9.96178573
   7.93463171  6.13337212  9.93146225
   7.91679316  8.59235834  9.95800263
   7.18030119  9.88437022  9.90496166
   5.02288412 11.09465092  9.76584470
   7.90650944 11.11755743  9.98067376
  11.55508546  0.00868702 10.08263610
   9.38509804  1.23132238 10.07749509
  10.06297255 12.34376118 10.07402239
  12.27736925  1.23736779 10.06720757
  11.53697810  2.46273144 10.11097482
   9.39939960  3.70046098 10.08538092
  10.10772115  2.46091917 10.10871746
  12.23917123  3.70019839 10.09553674
  11.52459222  4.93597481 10.12943614
   9.36759415  6.15624438 10.08469187
  10.10092317  4.93489294 10.12167325
  12.21387579  6.18406484 10.08165960
  11.49719934  7.41867973 10.09922996
   9.35053888  8.63591826 10.06612565
  10.06638971  7.40553448 10.10924793
  12.20751927  8.65489974 10.03264183
  11.49408732  9.88832252 10.06063538
   9.33933283 11.11648857 10.05245442
  10.06244477  9.87856230 10.07555497
  12.22786179 11.12013565 10.02447692
   3.48964955  3.75775159  9.59226808
   3.40213305  8.61951928  9.23282534
   5.81042573  2.50172287  9.83558592
   7.21266355  7.36234134  9.84429477
   5.77443578  9.88138407  9.76613486
   7.28304548  4.89352670  9.83470652
   4.62507898  6.03521772  8.84161163
   5.33399321  4.34918422  9.46509155
   5.45655533  8.01496169  8.67981808
 


--------------------------------------------------------------------------------------------------------


 k-point  1 :   0.2500 0.2500 0.0000  plane waves:   80638
 k-point  2 :  -0.2500 0.2500 0.0000  plane waves:   80675

 maximum and minimum number of plane-waves per node :      2551     2475

 maximum number of plane-waves:     80675
 maximum index in each direction: 
   IXMAX=   23   IYMAX=   22   IZMAX=   36
   IXMIN=  -23   IYMIN=  -22   IZMIN=  -36


 parallel 3D FFT for wavefunctions:
    minimum data exchange during FFTs selected (reduces bandwidth)
 parallel 3D FFT for charge:
    minimum data exchange during FFTs selected (reduces bandwidth)


 FFT grid for exact exchange (Hartree Fock) 
  NGX = 72; NGY = 70; NGZ =112

 
 Radii for the augmentation spheres in the non-local exchange
 for species   1 augmentation radius   0.874 (default was   0.699)
       energy cutoff for augmentation   2000.0
 for species   2 augmentation radius   0.886 (default was   0.709)
       energy cutoff for augmentation   2000.0
 for species   3 augmentation radius   1.263 (default was   1.010)
       energy cutoff for augmentation   2000.0
 for species   4 augmentation radius   1.357 (default was   1.085)
       energy cutoff for augmentation   2000.0

 real space projection operators:
  total allocation   :       2597.45 KBytes
  max/ min on nodes  :        135.95         46.34

 Maximum index for augmentation-charges in exchange          177
  SETUP_FOCK is finished

 total amount of memory used by VASP MPI-rank0   161033. kBytes
=======================================================================

   base      :      30000. kBytes
   nonl-proj :       5322. kBytes
   fftplans  :      12974. kBytes
   grid      :      33177. kBytes
   one-center:         62. kBytes
   HF        :         23. kBytes
   nonlr-proj:       2051. kBytes
   wavefun   :      77424. kBytes
 
     INWAV:  cpu time    3.5930: real time    3.5941
 Broyden mixing: mesh for mixing (old mesh)
   NGX = 47   NGY = 45   NGZ = 73
  (NGX  =192   NGY  =180   NGZ  =288)
  gives a total of 154395 points

 charge density for first step will be calculated from the start-wavefunctions


--------------------------------------------------------------------------------------------------------


 Maximum index for augmentation-charges          261 (set IRDMAX)


--------------------------------------------------------------------------------------------------------


 initial charge from wavefunction
 First call to EWALD:  gamma=   0.121
 Maximum number of real-space cells 3x 3x 2
 Maximum number of reciprocal cells 2x 2x 4

    FEWALD:  cpu time    0.0037: real time    0.0037


--------------------------------------- Iteration      1(   1)  ---------------------------------------


    POTLOK:  cpu time    1.2523: real time    1.2578
    SETDIJ:  cpu time    2.0988: real time    2.1023
    TRIAL :  cpu time  525.2551: real time  525.4051
    CORREC:  cpu time    0.0016: real time    0.0018
    CHARGE:  cpu time    1.6212: real time    1.6214
    --------------------------------------------
      LOOP:  cpu time  530.2447: real time  530.4067

 eigenvalue-minimisations  :     0
 total energy-change (2. order) :-0.6030563E+03  (-0.4665836E+00)
 number of electron     245.0000026 magnetization       2.9997270
 augmentation part       12.5553948 magnetization       2.0525483

 DIPCOR: dipole corrections for dipol
 direction  3 min pos     1,
 dipolmoment          -0.001374     -0.000331      0.558246 electrons x Angstroem
 Tr[quadrupol]     -6608.677135

 energy correction for charged system         0.000000 eV
 dipol+quadrupol energy correction           -0.008915 eV
 added-field ion interaction          0.376905 eV  (added to PSCEN)


 Free energy of the ion-electron system (eV)
  ---------------------------------------------------
  alpha Z        PSCENC =       106.29863365
  Ewald energy   TEWEN  =     37658.09374052
  -Hartree energ DENC   =    -46474.55461661
  -exchange      EXHF   =       558.03515257
  -V(xc)+E(xc)   XCENC  =       641.06062523
  PAW double counting   =     26184.65900129   -26211.70291862
  entropy T*S    EENTRO =        -0.00131296
  eigenvalues    EBANDS =     -3299.25799717
  atomic energy  EATOM  =     10234.31575160
  ---------------------------------------------------
  free energy    TOTEN  =      -603.05634931 eV

  energy without entropy =     -603.05503635  energy(sigma->0) =     -603.05569283
  exchange ACFDT corr.  =        -0.00460834  see jH, gK, PRB 81, 115126


--------------------------------------------------------------------------------------------------------




--------------------------------------- Iteration      1(   2)  ---------------------------------------


    POTLOK:  cpu time    1.2675: real time    1.2679
    SETDIJ:  cpu time    2.0884: real time    2.0886
    TRIAL :  cpu time  525.0493: real time  525.1985
    CORREC:  cpu time    0.0016: real time    0.0018
    CHARGE:  cpu time    1.6261: real time    1.6263
    --------------------------------------------
      LOOP:  cpu time  530.0360: real time  530.1863

 eigenvalue-minimisations  :     0
 total energy-change (2. order) :-0.3701683E+00  (-0.3839918E+00)
 number of electron     245.0000026 magnetization       2.9999566
 augmentation part       12.5308386 magnetization       2.0949399

 DIPCOR: dipole corrections for dipol
 direction  3 min pos     1,
 dipolmoment          -0.001432     -0.000345      0.581772 electrons x Angstroem
 Tr[quadrupol]     -6608.526764

 energy correction for charged system         0.000000 eV
 dipol+quadrupol energy correction           -0.009682 eV
 added-field ion interaction          0.392789 eV  (added to PSCEN)


 Free energy of the ion-electron system (eV)
  ---------------------------------------------------
  alpha Z        PSCENC =       106.31375022
  Ewald energy   TEWEN  =     37658.09374052
  -Hartree energ DENC   =    -46456.76508024
  -exchange      EXHF   =       557.90012270
  -V(xc)+E(xc)   XCENC  =       640.60844667
  PAW double counting   =     26404.41884562   -26431.35114235
  entropy T*S    EENTRO =        -0.00031081
  eigenvalues    EBANDS =     -3316.95963936
  atomic energy  EATOM  =     10234.31575160
  ---------------------------------------------------
  free energy    TOTEN  =      -603.42651757 eV

  energy without entropy =     -603.42620676  energy(sigma->0) =     -603.42636216
  exchange ACFDT corr.  =        -0.00108068  see jH, gK, PRB 81, 115126


--------------------------------------------------------------------------------------------------------




--------------------------------------- Iteration      1(   3)  ---------------------------------------


    POTLOK:  cpu time    1.2708: real time    1.2711
    SETDIJ:  cpu time    2.0894: real time    2.0896
    TRIAL :  cpu time  525.3654: real time  525.4994
    CORREC:  cpu time    0.0015: real time    0.0017
    CHARGE:  cpu time    1.6126: real time    1.6132
    --------------------------------------------
      LOOP:  cpu time  530.3422: real time  530.4776

 eigenvalue-minimisations  :     0
 total energy-change (2. order) :-0.2935956E+00  (-0.2298812E+00)
 number of electron     245.0000026 magnetization       2.9999927
 augmentation part       12.5361097 magnetization       2.1297986

 DIPCOR: dipole corrections for dipol
 direction  3 min pos     1,
 dipolmoment          -0.001452     -0.000350      0.590251 electrons x Angstroem
 Tr[quadrupol]     -6608.365026

 energy correction for charged system         0.000000 eV
 dipol+quadrupol energy correction           -0.009967 eV
 added-field ion interaction          0.398514 eV  (added to PSCEN)


 Free energy of the ion-electron system (eV)
  ---------------------------------------------------
  alpha Z        PSCENC =       106.31919063
  Ewald energy   TEWEN  =     37658.09374052
  -Hartree energ DENC   =    -46440.59747655
  -exchange      EXHF   =       557.82886343
  -V(xc)+E(xc)   XCENC  =       640.20983691
  PAW double counting   =     26597.11667096   -26624.09736718
  entropy T*S    EENTRO =        -0.00006674
  eigenvalues    EBANDS =     -3332.90901269
  atomic energy  EATOM  =     10234.31575160
  ---------------------------------------------------
  free energy    TOTEN  =      -603.72011318 eV

  energy without entropy =     -603.72004644  energy(sigma->0) =     -603.72007981
  exchange ACFDT corr.  =        -0.00016179  see jH, gK, PRB 81, 115126


--------------------------------------------------------------------------------------------------------




--------------------------------------- Iteration      1(   4)  ---------------------------------------


    POTLOK:  cpu time    1.2696: real time    1.2699
    SETDIJ:  cpu time    2.0880: real time    2.0882
    TRIAL :  cpu time  524.0653: real time  524.1958
    CORREC:  cpu time    0.0015: real time    0.0017
    CHARGE:  cpu time    1.6113: real time    1.6116
    --------------------------------------------
      LOOP:  cpu time  529.0383: real time  529.1698

 eigenvalue-minimisations  :     0
 total energy-change (2. order) :-0.1739919E+00  (-0.1243466E+00)
 number of electron     245.0000026 magnetization       2.9999986
 augmentation part       12.5396158 magnetization       2.1535532

 DIPCOR: dipole corrections for dipol
 direction  3 min pos     1,
 dipolmoment          -0.001446     -0.000349      0.587583 electrons x Angstroem
 Tr[quadrupol]     -6608.287452

 energy correction for charged system         0.000000 eV
 dipol+quadrupol energy correction           -0.009877 eV
 added-field ion interaction          0.396713 eV  (added to PSCEN)


 Free energy of the ion-electron system (eV)
  ---------------------------------------------------
  alpha Z        PSCENC =       106.31747942
  Ewald energy   TEWEN  =     37658.09374052
  -Hartree energ DENC   =    -46433.65864373
  -exchange      EXHF   =       557.93102286
  -V(xc)+E(xc)   XCENC  =       640.06598385
  PAW double counting   =     26674.73787933   -26701.78601888
  entropy T*S    EENTRO =        -0.00001524
  eigenvalues    EBANDS =     -3339.91123337
  atomic energy  EATOM  =     10234.31575160
  ---------------------------------------------------
  free energy    TOTEN  =      -603.89410513 eV

  energy without entropy =     -603.89408989  energy(sigma->0) =     -603.89409751
  exchange ACFDT corr.  =        -0.00002396  see jH, gK, PRB 81, 115126


--------------------------------------------------------------------------------------------------------




--------------------------------------- Iteration      1(   5)  ---------------------------------------


    POTLOK:  cpu time    1.2709: real time    1.2712
    SETDIJ:  cpu time    2.0919: real time    2.0922
    TRIAL :  cpu time  524.0156: real time  524.1394
    CORREC:  cpu time    0.0013: real time    0.0015
    CHARGE:  cpu time    1.6143: real time    1.6146
    --------------------------------------------
      LOOP:  cpu time  528.9965: real time  529.1215

 eigenvalue-minimisations  :     0
 total energy-change (2. order) :-0.9672149E-01  (-0.7664596E-01)
 number of electron     245.0000026 magnetization       2.9999997
 augmentation part       12.5346468 magnetization       2.1683719

 DIPCOR: dipole corrections for dipol
 direction  3 min pos     1,
 dipolmoment          -0.001451     -0.000350      0.589577 electrons x Angstroem
 Tr[quadrupol]     -6608.298426

 energy correction for charged system         0.000000 eV
 dipol+quadrupol energy correction           -0.009944 eV
 added-field ion interaction          0.398059 eV  (added to PSCEN)


 Free energy of the ion-electron system (eV)
  ---------------------------------------------------
  alpha Z        PSCENC =       106.31875867
  Ewald energy   TEWEN  =     37658.09374052
  -Hartree energ DENC   =    -46433.49686214
  -exchange      EXHF   =       558.15277342
  -V(xc)+E(xc)   XCENC  =       640.09547738
  PAW double counting   =     26725.24706212   -26752.33554593
  entropy T*S    EENTRO =        -0.00000401
  eigenvalues    EBANDS =     -3340.38196701
  atomic energy  EATOM  =     10234.31575160
  ---------------------------------------------------
  free energy    TOTEN  =      -603.99082662 eV

  energy without entropy =     -603.99082260  energy(sigma->0) =     -603.99082461
  exchange ACFDT corr.  =        -0.00000430  see jH, gK, PRB 81, 115126


--------------------------------------------------------------------------------------------------------




--------------------------------------- Iteration      1(   6)  ---------------------------------------


    POTLOK:  cpu time    1.2725: real time    1.2727
    SETDIJ:  cpu time    2.0883: real time    2.0887
    TRIAL :  cpu time  524.3536: real time  524.4830
    CORREC:  cpu time    0.0012: real time    0.0015
    CHARGE:  cpu time    1.6063: real time    1.6064
    --------------------------------------------
      LOOP:  cpu time  529.3247: real time  529.4551

 eigenvalue-minimisations  :     0
 total energy-change (2. order) :-0.6264444E-01  (-0.4978377E-01)
 number of electron     245.0000026 magnetization       2.9999999
 augmentation part       12.5317721 magnetization       2.1779640

 DIPCOR: dipole corrections for dipol
 direction  3 min pos     1,
 dipolmoment          -0.001470     -0.000355      0.597347 electrons x Angstroem
 Tr[quadrupol]     -6608.351198

 energy correction for charged system         0.000000 eV
 dipol+quadrupol energy correction           -0.010208 eV
 added-field ion interaction          0.403304 eV  (added to PSCEN)


 Free energy of the ion-electron system (eV)
  ---------------------------------------------------
  alpha Z        PSCENC =       106.32374028
  Ewald energy   TEWEN  =     37658.09374052
  -Hartree energ DENC   =    -46435.94546844
  -exchange      EXHF   =       558.39730447
  -V(xc)+E(xc)   XCENC  =       640.18363004
  PAW double counting   =     26780.99666518   -26808.13061590
  entropy T*S    EENTRO =        -0.00000126
  eigenvalues    EBANDS =     -3338.28821479
  atomic energy  EATOM  =     10234.31575160
  ---------------------------------------------------
  free energy    TOTEN  =      -604.05347105 eV

  energy without entropy =     -604.05346980  energy(sigma->0) =     -604.05347043
  exchange ACFDT corr.  =        -0.00000097  see jH, gK, PRB 81, 115126


--------------------------------------------------------------------------------------------------------




--------------------------------------- Iteration      1(   7)  ---------------------------------------


    POTLOK:  cpu time    1.2667: real time    1.2671
    SETDIJ:  cpu time    2.0870: real time    2.0873
    TRIAL :  cpu time  523.0637: real time  523.1321
    CORREC:  cpu time    0.0013: real time    0.0015
    CHARGE:  cpu time    1.6087: real time    1.6088
    --------------------------------------------
      LOOP:  cpu time  528.0300: real time  528.0994

 eigenvalue-minimisations  :     0
 total energy-change (2. order) :-0.4141997E-01  (-0.3215011E-01)
 number of electron     245.0000026 magnetization       3.0000000
 augmentation part       12.5350766 magnetization       2.1851070

 DIPCOR: dipole corrections for dipol
 direction  3 min pos     1,
 dipolmoment          -0.001487     -0.000359      0.604271 electrons x Angstroem
 Tr[quadrupol]     -6608.404303

 energy correction for charged system         0.000000 eV
 dipol+quadrupol energy correction           -0.010446 eV
 added-field ion interaction          0.407980 eV  (added to PSCEN)


 Free energy of the ion-electron system (eV)
  ---------------------------------------------------
  alpha Z        PSCENC =       106.32817761
  Ewald energy   TEWEN  =     37658.09374052
  -Hartree energ DENC   =    -46438.78354478
  -exchange      EXHF   =       558.60842319
  -V(xc)+E(xc)   XCENC  =       640.27895887
  PAW double counting   =     26828.00813388   -26855.20507183
  entropy T*S    EENTRO =        -0.00000047
  eigenvalues    EBANDS =     -3335.73945882
  atomic energy  EATOM  =     10234.31575160
  ---------------------------------------------------
  free energy    TOTEN  =      -604.09489103 eV

  energy without entropy =     -604.09489056  energy(sigma->0) =     -604.09489079
  exchange ACFDT corr.  =        -0.00000027  see jH, gK, PRB 81, 115126


--------------------------------------------------------------------------------------------------------




--------------------------------------- Iteration      1(   8)  ---------------------------------------


    POTLOK:  cpu time    1.2671: real time    1.2672
    SETDIJ:  cpu time    2.1198: real time    2.1199
    TRIAL :  cpu time  523.0962: real time  523.1594
    CORREC:  cpu time    0.0011: real time    0.0014
    CHARGE:  cpu time    1.6111: real time    1.6112
    --------------------------------------------
      LOOP:  cpu time  528.0980: real time  528.1617

 eigenvalue-minimisations  :     0
 total energy-change (2. order) :-0.2751786E-01  (-0.2182133E-01)
 number of electron     245.0000026 magnetization       3.0000000
 augmentation part       12.5408693 magnetization       2.1912045

 DIPCOR: dipole corrections for dipol
 direction  3 min pos     1,
 dipolmoment          -0.001494     -0.000360      0.606923 electrons x Angstroem
 Tr[quadrupol]     -6608.438575

 energy correction for charged system         0.000000 eV
 dipol+quadrupol energy correction           -0.010538 eV
 added-field ion interaction          0.409770 eV  (added to PSCEN)


 Free energy of the ion-electron system (eV)
  ---------------------------------------------------
  alpha Z        PSCENC =       106.32987595
  Ewald energy   TEWEN  =     37658.09374052
  -Hartree energ DENC   =    -46441.01682017
  -exchange      EXHF   =       558.76457240
  -V(xc)+E(xc)   XCENC  =       640.35971723
  PAW double counting   =     26854.46559953   -26881.72963025
  entropy T*S    EENTRO =        -0.00000021
  eigenvalues    EBANDS =     -3333.70521523
  atomic energy  EATOM  =     10234.31575160
  ---------------------------------------------------
  free energy    TOTEN  =      -604.12240888 eV

  energy without entropy =     -604.12240868  energy(sigma->0) =     -604.12240878
  exchange ACFDT corr.  =        -0.00000009  see jH, gK, PRB 81, 115126


--------------------------------------------------------------------------------------------------------




--------------------------------------- Iteration      1(   9)  ---------------------------------------


    POTLOK:  cpu time    1.2656: real time    1.2657
    SETDIJ:  cpu time    2.0859: real time    2.0860
    TRIAL :  cpu time  522.5529: real time  522.6046
    CORREC:  cpu time    0.0011: real time    0.0014
    CHARGE:  cpu time    1.6066: real time    1.6067
    --------------------------------------------
      LOOP:  cpu time  527.5149: real time  527.5671

 eigenvalue-minimisations  :     0
 total energy-change (2. order) :-0.1907260E-01  (-0.1527044E-01)
 number of electron     245.0000026 magnetization       3.0000000
 augmentation part       12.5452828 magnetization       2.1967681

 DIPCOR: dipole corrections for dipol
 direction  3 min pos     1,
 dipolmoment          -0.001492     -0.000360      0.606219 electrons x Angstroem
 Tr[quadrupol]     -6608.453078

 energy correction for charged system         0.000000 eV
 dipol+quadrupol energy correction           -0.010513 eV
 added-field ion interaction          0.409295 eV  (added to PSCEN)


 Free energy of the ion-electron system (eV)
  ---------------------------------------------------
  alpha Z        PSCENC =       106.32942521
  Ewald energy   TEWEN  =     37658.09374052
  -Hartree energ DENC   =    -46442.29412166
  -exchange      EXHF   =       558.86606343
  -V(xc)+E(xc)   XCENC  =       640.41544870
  PAW double counting   =     26863.54430799   -26890.86395661
  entropy T*S    EENTRO =        -0.00000010
  eigenvalues    EBANDS =     -3332.54814046
  atomic energy  EATOM  =     10234.31575160
  ---------------------------------------------------
  free energy    TOTEN  =      -604.14148149 eV

  energy without entropy =     -604.14148138  energy(sigma->0) =     -604.14148144
  exchange ACFDT corr.  =        -0.00000004  see jH, gK, PRB 81, 115126


--------------------------------------------------------------------------------------------------------




--------------------------------------- Iteration      1(  10)  ---------------------------------------


    POTLOK:  cpu time    1.2599: real time    1.2599
    SETDIJ:  cpu time    2.0849: real time    2.0849
    TRIAL :  cpu time  521.7888: real time  521.8453
    CORREC:  cpu time    0.0011: real time    0.0013
    CHARGE:  cpu time    1.6125: real time    1.6126
    --------------------------------------------
      LOOP:  cpu time  526.7498: real time  526.8065

 eigenvalue-minimisations  :     0
 total energy-change (2. order) :-0.1352921E-01  (-0.1091180E-01)
 number of electron     245.0000026 magnetization       3.0000000
 augmentation part       12.5471848 magnetization       2.2019175

 DIPCOR: dipole corrections for dipol
 direction  3 min pos     1,
 dipolmoment          -0.001488     -0.000359      0.604561 electrons x Angstroem
 Tr[quadrupol]     -6608.455389

 energy correction for charged system         0.000000 eV
 dipol+quadrupol energy correction           -0.010456 eV
 added-field ion interaction          0.408175 eV  (added to PSCEN)


 Free energy of the ion-electron system (eV)
  ---------------------------------------------------
  alpha Z        PSCENC =       106.32836290
  Ewald energy   TEWEN  =     37658.09374052
  -Hartree energ DENC   =    -46442.76018761
  -exchange      EXHF   =       558.92683615
  -V(xc)+E(xc)   XCENC  =       640.44730389
  PAW double counting   =     26864.47122285   -26891.83021607
  entropy T*S    EENTRO =        -0.00000006
  eigenvalues    EBANDS =     -3332.14782481
  atomic energy  EATOM  =     10234.31575160
  ---------------------------------------------------
  free energy    TOTEN  =      -604.15501069 eV

  energy without entropy =     -604.15501063  energy(sigma->0) =     -604.15501066
  exchange ACFDT corr.  =        -0.00000002  see jH, gK, PRB 81, 115126


--------------------------------------------------------------------------------------------------------




--------------------------------------- Iteration      1(  11)  ---------------------------------------


    POTLOK:  cpu time    1.2597: real time    1.2598
    SETDIJ:  cpu time    2.0898: real time    2.0900
    TRIAL :  cpu time  522.0137: real time  522.0724
    CORREC:  cpu time    0.0011: real time    0.0013
    CHARGE:  cpu time    1.6069: real time    1.6071
    --------------------------------------------
      LOOP:  cpu time  526.9736: real time  527.0329

 eigenvalue-minimisations  :     0
 total energy-change (2. order) :-0.9774183E-02  (-0.7922780E-02)
 number of electron     245.0000026 magnetization       3.0000000
 augmentation part       12.5477296 magnetization       2.2066578

 DIPCOR: dipole corrections for dipol
 direction  3 min pos     1,
 dipolmoment          -0.001485     -0.000358      0.603665 electrons x Angstroem
 Tr[quadrupol]     -6608.453326

 energy correction for charged system         0.000000 eV
 dipol+quadrupol energy correction           -0.010425 eV
 added-field ion interaction          0.407570 eV  (added to PSCEN)


 Free energy of the ion-electron system (eV)
  ---------------------------------------------------
  alpha Z        PSCENC =       106.32778901
  Ewald energy   TEWEN  =     37658.09374052
  -Hartree energ DENC   =    -46442.77458575
  -exchange      EXHF   =       558.96376174
  -V(xc)+E(xc)   XCENC  =       640.46332699
  PAW double counting   =     26863.95090079   -26891.33635653
  entropy T*S    EENTRO =        -0.00000004
  eigenvalues    EBANDS =     -3332.16911318
  atomic energy  EATOM  =     10234.31575160
  ---------------------------------------------------
  free energy    TOTEN  =      -604.16478488 eV

  energy without entropy =     -604.16478484  energy(sigma->0) =     -604.16478486
  exchange ACFDT corr.  =        -0.00000001  see jH, gK, PRB 81, 115126


--------------------------------------------------------------------------------------------------------




--------------------------------------- Iteration      1(  12)  ---------------------------------------


    POTLOK:  cpu time    1.2560: real time    1.2561
    SETDIJ:  cpu time    2.1162: real time    2.1163
    TRIAL :  cpu time  521.9721: real time  522.0302
    CORREC:  cpu time    0.0010: real time    0.0013
    CHARGE:  cpu time    1.6046: real time    1.6047
    --------------------------------------------
      LOOP:  cpu time  526.9528: real time  527.0113

 eigenvalue-minimisations  :     0
 total energy-change (2. order) :-0.7158755E-02  (-0.5815045E-02)
 number of electron     245.0000026 magnetization       3.0000000
 augmentation part       12.5483154 magnetization       2.2109784

 DIPCOR: dipole corrections for dipol
 direction  3 min pos     1,
 dipolmoment          -0.001486     -0.000359      0.603891 electrons x Angstroem
 Tr[quadrupol]     -6608.451436

 energy correction for charged system         0.000000 eV
 dipol+quadrupol energy correction           -0.010433 eV
 added-field ion interaction          0.407723 eV  (added to PSCEN)


 Free energy of the ion-electron system (eV)
  ---------------------------------------------------
  alpha Z        PSCENC =       106.32793374
  Ewald energy   TEWEN  =     37658.09374052
  -Hartree energ DENC   =    -46442.67325232
  -exchange      EXHF   =       558.99007750
  -V(xc)+E(xc)   XCENC  =       640.47271856
  PAW double counting   =     26864.31987386   -26891.72525139
  entropy T*S    EENTRO =        -0.00000003
  eigenvalues    EBANDS =     -3332.29353565
  atomic energy  EATOM  =     10234.31575160
  ---------------------------------------------------
  free energy    TOTEN  =      -604.17194363 eV

  energy without entropy =     -604.17194361  energy(sigma->0) =     -604.17194362
  exchange ACFDT corr.  =        -0.00000001  see jH, gK, PRB 81, 115126


--------------------------------------------------------------------------------------------------------




--------------------------------------- Iteration      1(  13)  ---------------------------------------


    POTLOK:  cpu time    1.2520: real time    1.2520
    SETDIJ:  cpu time    2.1138: real time    2.1139
    TRIAL :  cpu time  522.1001: real time  522.1593
    CORREC:  cpu time    0.0011: real time    0.0013
    CHARGE:  cpu time    1.6043: real time    1.6044
    --------------------------------------------
      LOOP:  cpu time  527.0740: real time  527.1336

 eigenvalue-minimisations  :     0
 total energy-change (2. order) :-0.5300797E-02  (-0.4324852E-02)
 number of electron     245.0000026 magnetization       3.0000000
 augmentation part       12.5492561 magnetization       2.2148716

 DIPCOR: dipole corrections for dipol
 direction  3 min pos     1,
 dipolmoment          -0.001488     -0.000359      0.604564 electrons x Angstroem
 Tr[quadrupol]     -6608.450766

 energy correction for charged system         0.000000 eV
 dipol+quadrupol energy correction           -0.010456 eV
 added-field ion interaction          0.408177 eV  (added to PSCEN)


 Free energy of the ion-electron system (eV)
  ---------------------------------------------------
  alpha Z        PSCENC =       106.32836514
  Ewald energy   TEWEN  =     37658.09374052
  -Hartree energ DENC   =    -46442.62587174
  -exchange      EXHF   =       559.01266205
  -V(xc)+E(xc)   XCENC  =       640.48123730
  PAW double counting   =     26865.42038757   -26892.84351525
  entropy T*S    EENTRO =        -0.00000002
  eigenvalues    EBANDS =     -3332.36000159
  atomic energy  EATOM  =     10234.31575160
  ---------------------------------------------------
  free energy    TOTEN  =      -604.17724443 eV

  energy without entropy =     -604.17724441  energy(sigma->0) =     -604.17724442
  exchange ACFDT corr.  =        -0.00000000  see jH, gK, PRB 81, 115126


--------------------------------------------------------------------------------------------------------




--------------------------------------- Iteration      1(  14)  ---------------------------------------


    POTLOK:  cpu time    1.2516: real time    1.2517
    SETDIJ:  cpu time    2.1133: real time    2.1133
    TRIAL :  cpu time  522.0707: real time  522.1329
    CORREC:  cpu time    0.0010: real time    0.0013
    CHARGE:  cpu time    1.6062: real time    1.6063
    --------------------------------------------
      LOOP:  cpu time  527.0454: real time  527.1082

 eigenvalue-minimisations  :     0
 total energy-change (2. order) :-0.3973729E-02  (-0.3255975E-02)
 number of electron     245.0000026 magnetization       3.0000001
 augmentation part       12.5502202 magnetization       2.2183460

 DIPCOR: dipole corrections for dipol
 direction  3 min pos     1,
 dipolmoment          -0.001489     -0.000359      0.604948 electrons x Angstroem
 Tr[quadrupol]     -6608.450897

 energy correction for charged system         0.000000 eV
 dipol+quadrupol energy correction           -0.010469 eV
 added-field ion interaction          0.408436 eV  (added to PSCEN)


 Free energy of the ion-electron system (eV)
  ---------------------------------------------------
  alpha Z        PSCENC =       106.32861076
  Ewald energy   TEWEN  =     37658.09374052
  -Hartree energ DENC   =    -46442.65269825
  -exchange      EXHF   =       559.03328054
  -V(xc)+E(xc)   XCENC  =       640.49024889
  PAW double counting   =     26866.57209255   -26894.01156683
  entropy T*S    EENTRO =        -0.00000001
  eigenvalues    EBANDS =     -3332.35067792
  atomic energy  EATOM  =     10234.31575160
  ---------------------------------------------------
  free energy    TOTEN  =      -604.18121816 eV

  energy without entropy =     -604.18121814  energy(sigma->0) =     -604.18121815
  exchange ACFDT corr.  =        -0.00000000  see jH, gK, PRB 81, 115126


--------------------------------------------------------------------------------------------------------




--------------------------------------- Iteration      1(  15)  ---------------------------------------


    POTLOK:  cpu time    1.2490: real time    1.2491
    SETDIJ:  cpu time    2.0898: real time    2.0899
    TRIAL :  cpu time  522.0846: real time  522.2159
    CORREC:  cpu time    0.0010: real time    0.0012
    CHARGE:  cpu time    1.6072: real time    1.6072
    --------------------------------------------
      LOOP:  cpu time  527.0345: real time  527.1661

 eigenvalue-minimisations  :     0
 total energy-change (2. order) :-0.3011826E-02  (-0.2482023E-02)
 number of electron     245.0000026 magnetization       3.0000001
 augmentation part       12.5509331 magnetization       2.2214235

 DIPCOR: dipole corrections for dipol
 direction  3 min pos     1,
 dipolmoment          -0.001489     -0.000359      0.604916 electrons x Angstroem
 Tr[quadrupol]     -6608.451331

 energy correction for charged system         0.000000 eV
 dipol+quadrupol energy correction           -0.010468 eV
 added-field ion interaction          0.408415 eV  (added to PSCEN)


 Free energy of the ion-electron system (eV)
  ---------------------------------------------------
  alpha Z        PSCENC =       106.32859080
  Ewald energy   TEWEN  =     37658.09374052
  -Hartree energ DENC   =    -46442.71142965
  -exchange      EXHF   =       559.05168481
  -V(xc)+E(xc)   XCENC  =       640.49891516
  PAW double counting   =     26867.72098321   -26895.17444307
  entropy T*S    EENTRO =        -0.00000001
  eigenvalues    EBANDS =     -3332.30802336
  atomic energy  EATOM  =     10234.31575160
  ---------------------------------------------------
  free energy    TOTEN  =      -604.18422998 eV

  energy without entropy =     -604.18422997  energy(sigma->0) =     -604.18422998
  exchange ACFDT corr.  =        -0.00000000  see jH, gK, PRB 81, 115126


--------------------------------------------------------------------------------------------------------




--------------------------------------- Iteration      1(  16)  ---------------------------------------


    POTLOK:  cpu time    1.2478: real time    1.2479
    SETDIJ:  cpu time    2.0847: real time    2.0847
    TRIAL :  cpu time  521.5166: real time  521.5738
    CORREC:  cpu time    0.0010: real time    0.0013
    CHARGE:  cpu time    1.6068: real time    1.6071
    --------------------------------------------
      LOOP:  cpu time  526.4599: real time  526.5195

 eigenvalue-minimisations  :     0
 total energy-change (2. order) :-0.2309268E-02  (-0.1916323E-02)
 number of electron     245.0000026 magnetization       3.0000001
 augmentation part       12.5513794 magnetization       2.2241521

 DIPCOR: dipole corrections for dipol
 direction  3 min pos     1,
 dipolmoment          -0.001488     -0.000359      0.604729 electrons x Angstroem
 Tr[quadrupol]     -6608.451832

 energy correction for charged system         0.000000 eV
 dipol+quadrupol energy correction           -0.010462 eV
 added-field ion interaction          0.408289 eV  (added to PSCEN)


 Free energy of the ion-electron system (eV)
  ---------------------------------------------------
  alpha Z        PSCENC =       106.32847080
  Ewald energy   TEWEN  =     37658.09374052
  -Hartree energ DENC   =    -46442.76719325
  -exchange      EXHF   =       559.06763716
  -V(xc)+E(xc)   XCENC  =       640.50644534
  PAW double counting   =     26869.02477890   -26896.48940926
  entropy T*S    EENTRO =        -0.00000001
  eigenvalues    EBANDS =     -3332.26676104
  atomic energy  EATOM  =     10234.31575160
  ---------------------------------------------------
  free energy    TOTEN  =      -604.18653925 eV

  energy without entropy =     -604.18653924  energy(sigma->0) =     -604.18653925
  exchange ACFDT corr.  =        -0.00000000  see jH, gK, PRB 81, 115126


--------------------------------------------------------------------------------------------------------




--------------------------------------- Iteration      1(  17)  ---------------------------------------


    POTLOK:  cpu time    1.2447: real time    1.2447
    SETDIJ:  cpu time    2.0834: real time    2.0834
    TRIAL :  cpu time  521.9422: real time  521.9916
    CORREC:  cpu time    0.0010: real time    0.0012
    CHARGE:  cpu time    1.6055: real time    1.6057
    --------------------------------------------
      LOOP:  cpu time  526.8793: real time  526.9291

 eigenvalue-minimisations  :     0
 total energy-change (2. order) :-0.1791889E-02  (-0.1498343E-02)
 number of electron     245.0000026 magnetization       3.0000001
 augmentation part       12.5516909 magnetization       2.2265967

 DIPCOR: dipole corrections for dipol
 direction  3 min pos     1,
 dipolmoment          -0.001488     -0.000359      0.604607 electrons x Angstroem
 Tr[quadrupol]     -6608.452281

 energy correction for charged system         0.000000 eV
 dipol+quadrupol energy correction           -0.010457 eV
 added-field ion interaction          0.408206 eV  (added to PSCEN)


 Free energy of the ion-electron system (eV)
  ---------------------------------------------------
  alpha Z        PSCENC =       106.32839271
  Ewald energy   TEWEN  =     37658.09374052
  -Hartree energ DENC   =    -46442.80892394
  -exchange      EXHF   =       559.08133864
  -V(xc)+E(xc)   XCENC  =       640.51276258
  PAW double counting   =     26870.41308799   -26897.88662020
  entropy T*S    EENTRO =        -0.00000001
  eigenvalues    EBANDS =     -3332.23786104
  atomic energy  EATOM  =     10234.31575160
  ---------------------------------------------------
  free energy    TOTEN  =      -604.18833114 eV

  energy without entropy =     -604.18833113  energy(sigma->0) =     -604.18833114
  exchange ACFDT corr.  =        -0.00000000  see jH, gK, PRB 81, 115126


--------------------------------------------------------------------------------------------------------




--------------------------------------- Iteration      1(  18)  ---------------------------------------


    POTLOK:  cpu time    1.2460: real time    1.2460
    SETDIJ:  cpu time    2.1168: real time    2.1169
    TRIAL :  cpu time  522.0974: real time  522.1739
    CORREC:  cpu time    0.0010: real time    0.0013
    CHARGE:  cpu time    1.6070: real time    1.6070
    --------------------------------------------
      LOOP:  cpu time  527.0712: real time  527.1481

 eigenvalue-minimisations  :     0
 total energy-change (2. order) :-0.1407428E-02  (-0.1186099E-02)
 number of electron     245.0000026 magnetization       3.0000001
 augmentation part       12.5519571 magnetization       2.2288031

 DIPCOR: dipole corrections for dipol
 direction  3 min pos     1,
 dipolmoment          -0.001488     -0.000359      0.604586 electrons x Angstroem
 Tr[quadrupol]     -6608.452606

 energy correction for charged system         0.000000 eV
 dipol+quadrupol energy correction           -0.010457 eV
 added-field ion interaction          0.408192 eV  (added to PSCEN)


 Free energy of the ion-electron system (eV)
  ---------------------------------------------------
  alpha Z        PSCENC =       106.32837911
  Ewald energy   TEWEN  =     37658.09374052
  -Hartree energ DENC   =    -46442.83973336
  -exchange      EXHF   =       559.09320273
  -V(xc)+E(xc)   XCENC  =       640.51819905
  PAW double counting   =     26871.72151782   -26899.20257606
  entropy T*S    EENTRO =        -0.00000001
  eigenvalues    EBANDS =     -3332.21821997
  atomic energy  EATOM  =     10234.31575160
  ---------------------------------------------------
[...]
  augment    44.59958    39.47557    43.08976    -0.97811     1.72621     0.98323
  Kinetic  3629.69634  3603.58471  4027.34158     3.92311     4.01672    12.34722
  Fock     -340.98337  -336.90983  -315.59710     1.29821    -2.29286     0.55029
  -------------------------------------------------------------------------------------
  Total     -40.71231   -41.31387    -1.47881     0.57377    -0.27700     1.14661
  in kB     -20.53217   -20.83555    -0.74580     0.28937    -0.13970     0.57826
  external pressure =      -14.04 kB  Pullay stress =        0.00 kB


 VOLUME and BASIS-vectors are now :
 -----------------------------------------------------------------------------
  energy-cutoff  :      500.00
  volume of cell :     3176.88
      direct lattice vectors                 reciprocal lattice vectors
    13.009779589  0.016090638 -0.037926804     0.076865423  0.000309016  0.000189332
    -0.049557455 12.338688251 -0.019020743    -0.000100098  0.081045564  0.000047874
    -0.048700771 -0.011750749 19.790821850     0.000147207  0.000078484  0.050528881

  length of vectors
    13.009844822 12.338802434 19.790885260     0.076866277  0.081045640  0.050529157


 FORCES acting on ions:
    Electron-Ion                     Ewald-Force                    Non-Local-Force
 -----------------------------------------------------------------------------------------------
   -.548E+00 -.868E+00 -.442E+01   0.114E+01 0.608E+00 0.460E+01   -.496E+00 0.328E+00 -.185E+00
   -.265E+01 0.262E+01 -.237E+02   0.281E+01 -.271E+01 0.238E+02   -.181E+00 0.542E-01 -.112E+00
   -.114E+02 0.936E-01 -.940E+01   0.115E+02 -.196E+00 0.917E+01   -.221E+00 0.907E-01 0.232E+00
   -.613E+01 -.171E+01 -.277E+01   0.653E+01 0.205E+01 0.277E+01   -.434E+00 -.422E+00 -.259E-02
   -.106E+02 0.114E+02 -.291E+01   0.112E+02 -.109E+02 0.309E+01   -.592E+00 -.359E+00 -.192E+00
   -.128E+01 0.112E+02 -.354E+02   0.161E+01 -.114E+02 0.355E+02   -.193E+00 0.203E+00 -.154E+00
   -.779E+01 0.674E+01 -.192E+02   0.834E+01 -.677E+01 0.191E+02   -.528E+00 0.723E-01 0.473E-01
   0.112E+02 0.900E+01 0.135E+02   -.104E+02 -.989E+01 -.136E+02   -.601E+00 0.360E+00 0.909E-01
   -.390E+01 -.798E+00 -.330E+02   0.388E+01 0.109E+01 0.330E+02   -.797E-01 -.325E+00 -.850E-02
   0.396E+01 0.739E+00 -.249E+02   -.394E+01 -.727E+00 0.250E+02   -.141E+00 -.976E-01 -.832E-01
   0.551E+02 -.934E+01 0.794E+02   -.569E+02 0.992E+01 -.795E+02   0.257E+01 -.627E+00 -.636E-01
   0.116E+02 -.428E+01 0.574E+02   -.112E+02 0.657E+01 -.582E+02   -.531E+00 -.190E+01 0.745E+00
   0.460E+00 -.104E+02 -.204E+02   -.122E+00 0.104E+02 0.203E+02   -.259E+00 -.971E-01 0.993E-01
   0.306E+00 -.199E+01 -.141E+02   0.501E+00 0.216E+01 0.143E+02   -.770E+00 -.734E-01 -.202E+00
   -.104E+02 -.153E+02 0.321E+02   0.114E+02 0.139E+02 -.320E+02   -.111E+01 0.131E+01 -.517E-01
   -.236E+01 -.329E+01 -.203E+02   0.252E+01 0.318E+01 0.204E+02   -.179E+00 0.161E+00 -.165E+00
   -.580E+01 -.641E+01 -.564E+01   0.688E+01 0.637E+01 0.572E+01   -.940E+00 0.242E-01 -.105E+00
   -.656E+01 0.362E+01 0.155E+02   0.731E+01 -.463E+01 -.159E+02   -.707E+00 0.933E+00 0.410E+00
   0.780E+01 0.777E-01 -.218E+02   -.825E+01 -.359E+00 0.217E+02   0.421E+00 0.335E+00 0.111E+00
   0.105E+02 -.365E+01 -.455E+01   -.100E+02 0.408E+01 0.452E+01   -.351E+00 -.321E+00 0.431E-01
   0.757E+01 -.178E+01 -.165E+02   -.834E+01 0.122E+01 0.167E+02   0.748E+00 0.483E+00 -.213E+00
   0.217E+01 0.354E+01 -.248E+02   -.234E+01 -.377E+01 0.249E+02   0.234E+00 0.148E+00 -.790E-01
   0.317E+01 0.877E+01 -.192E+02   -.476E+01 -.956E+01 0.192E+02   0.116E+01 0.592E+00 -.658E-01
   -.109E+02 0.347E+02 -.273E+02   0.123E+02 -.376E+02 0.278E+02   -.147E+01 0.320E+01 -.502E+00
   0.108E+02 -.243E+02 -.343E+02   -.100E+02 0.295E+02 0.345E+02   -.694E+00 -.505E+01 -.222E+00
   0.354E+01 -.932E+01 -.489E+02   -.457E+01 0.794E+01 0.497E+02   0.102E+01 0.111E+01 -.805E+00
   -.598E+01 0.139E+01 -.388E+02   0.411E+01 -.127E+01 0.395E+02   0.166E+01 0.909E-01 -.673E+00
   0.148E+02 0.858E+00 -.566E+01   -.138E+02 -.228E+01 0.568E+01   -.850E+00 0.147E+01 -.106E-01
   0.247E+00 -.282E+01 -.286E+02   -.736E+00 0.203E+01 0.288E+02   0.524E+00 0.687E+00 -.117E+00
   0.162E+01 0.277E+00 -.327E+02   -.152E+01 -.365E+00 0.327E+02   -.280E-01 0.780E-01 -.713E-01
   0.354E+01 0.304E+01 -.306E+02   -.375E+01 -.334E+01 0.306E+02   0.149E+00 0.224E+00 0.593E-02
   -.412E+01 0.666E+00 -.334E+02   0.400E+01 -.817E+00 0.335E+02   0.624E-01 0.142E+00 -.857E-01
   -.702E+01 0.111E+01 -.316E+02   0.718E+01 -.127E+01 0.315E+02   -.136E+00 0.113E+00 0.147E-01
   -.198E+01 0.612E+01 -.404E+02   0.195E+01 -.629E+01 0.405E+02   -.523E-01 0.171E+00 -.804E-01
   -.441E+01 0.939E+01 -.407E+02   0.500E+01 -.965E+01 0.408E+02   -.475E+00 0.268E+00 -.128E+00
   -.130E+01 0.475E+01 -.383E+02   0.140E+01 -.512E+01 0.384E+02   -.461E-01 0.395E+00 -.702E-01
   -.312E+01 0.342E+01 -.446E+02   0.307E+01 -.344E+01 0.446E+02   -.798E-01 0.721E-01 -.222E-01
   -.288E+01 0.190E+01 -.525E+02   0.326E+01 -.187E+01 0.525E+02   -.290E+00 -.960E-01 -.773E-01
   0.606E+00 -.681E+01 -.496E+02   -.106E+01 0.724E+01 0.497E+02   0.402E+00 -.438E+00 -.127E+00
   -.472E+01 -.123E+01 -.485E+02   0.480E+01 0.153E+01 0.485E+02   -.180E+00 -.298E+00 -.314E-01
   0.216E+01 -.143E+01 -.510E+02   -.197E+01 0.165E+01 0.511E+02   -.962E-01 -.192E+00 -.135E+00
   0.279E-01 -.334E+01 -.488E+02   -.953E-01 0.354E+01 0.487E+02   0.103E+00 -.144E+00 -.124E-01
   0.300E+01 -.663E+01 -.437E+02   -.383E+01 0.667E+01 0.438E+02   0.855E+00 -.913E-01 -.601E-01
   0.346E+00 -.174E+01 -.505E+02   -.604E+00 0.217E+01 0.505E+02   0.213E+00 -.345E+00 0.138E-01
   -.305E+01 -.401E+01 -.382E+02   0.311E+01 0.401E+01 0.382E+02   -.120E+00 -.537E-01 -.474E-01
   -.640E+00 -.539E+01 -.362E+02   0.481E+00 0.538E+01 0.362E+02   0.780E-01 -.256E-01 -.575E-01
   0.245E+01 0.716E+00 -.319E+02   -.285E+01 -.704E+00 0.318E+02   0.327E+00 0.568E-01 0.541E-02
   0.102E+01 -.303E+01 -.377E+02   -.111E+01 0.284E+01 0.378E+02   0.170E+00 0.132E+00 -.710E-01
   -.578E+01 0.138E+00 -.296E+02   0.593E+01 -.146E+00 0.296E+02   -.128E+00 0.654E-01 -.367E-01
   -.288E+02 0.367E+02 0.400E+02   0.338E+02 -.367E+02 -.418E+02   -.577E+01 0.583E-01 0.194E+01
   -.235E+02 -.352E+02 0.112E+03   0.343E+02 0.352E+02 -.116E+03   -.106E+02 -.340E+00 0.387E+01
   0.336E+02 -.862E+01 -.161E+02   -.370E+02 0.134E+02 0.163E+02   0.384E+01 -.526E+01 -.602E-01
   0.497E+02 0.182E+02 -.551E+02   -.617E+02 -.182E+02 0.538E+02   0.119E+02 0.295E-01 0.120E+01
   0.407E+02 0.174E+02 -.464E+02   -.466E+02 -.275E+02 0.457E+02   0.598E+01 0.984E+01 0.519E+00
   0.593E+02 -.287E+02 -.869E+01   -.796E+02 0.307E+02 0.588E+01   0.194E+02 -.207E+01 0.268E+01
   -.753E+02 0.233E+02 0.284E+03   0.950E+02 -.227E+02 -.293E+03   -.189E+02 0.659E-01 0.924E+01
   -.298E+02 0.263E+02 0.109E+03   0.265E+02 -.278E+02 -.109E+03   0.368E+01 0.222E+01 0.286E+00
   -.694E+02 -.538E+02 0.676E+03   0.654E+02 0.524E+02 -.663E+03   0.351E+01 0.119E+01 -.112E+02
 -----------------------------------------------------------------------------------------------
   -.111E+02 -.813E+01 -.531E+01   0.156E-12 0.298E-12 -.227E-12   0.107E+02 0.816E+01 0.521E+01
 
 
 POSITION                                       TOTAL-FORCE (eV/Angst)
 -----------------------------------------------------------------------------------
      2.89505      0.00247      9.83724         0.077136      0.084568     -0.014452
      0.70722      1.22646     10.01288        -0.023276     -0.037081     -0.014504
      1.43728      0.00050      9.93208        -0.105778     -0.005892      0.012964
      3.60714      1.25847      9.82665        -0.060008     -0.108890     -0.004741
      2.85484      2.49588      9.80755        -0.038583      0.116218     -0.021058
      0.65397      3.68528     10.01694         0.132769      0.075588     -0.055706
      1.41477      2.47042      9.95113        -0.006414      0.046352     -0.010178
      2.69271      4.92610      9.61145         0.162841     -0.505724      0.027230
      0.60771      6.17382      9.95690        -0.106305     -0.048229     -0.030397
      1.31120      4.93191      9.88697        -0.116041     -0.096611     -0.044661
      3.36579      6.15111      9.24778         0.932781     -0.095942     -0.200403
      2.67435      7.43088      9.40788        -0.124126      0.304187      0.033067
      0.62282      8.64678      9.90757         0.069187     -0.097679     -0.028669
      1.30316      7.40733      9.79393         0.002893      0.097688     -0.064265
      2.78896      9.85820      9.58468        -0.191730      0.053265      0.048691
      0.65460     11.11028      9.95177        -0.018189      0.055361     -0.017706
      1.36319      9.87431      9.82304         0.087417     -0.013193     -0.032572
      3.55722     11.09512      9.70008        -0.005768     -0.016419      0.009935
      7.21747      0.00961      9.96626        -0.001790      0.073209     -0.005817
      5.06472      1.27924      9.83821         0.115910      0.098987      0.017915
      5.77489      0.01927      9.88157         0.011461     -0.049442     -0.019273
      7.95106      1.23983     10.00575         0.074897     -0.074325      0.009636
      7.23391      2.47519      9.93384        -0.381083     -0.161200     -0.037319
      7.98118      3.72753      9.96179        -0.206460      0.566648     -0.091877
      7.93463      6.13337      9.93146         0.046920     -0.116515     -0.041043
      7.91679      8.59236      9.95800         0.042829     -0.221535     -0.062390
      7.18030      9.88437      9.90496        -0.126843      0.224082     -0.017282
      5.02288     11.09465      9.76584         0.098321      0.117486      0.008395
      7.90651     11.11756      9.98067         0.058053     -0.071911      0.023574
     11.55509      0.00869     10.08264         0.082841     -0.005718     -0.026031
      9.38510      1.23132     10.07750        -0.053884     -0.060926     -0.015448
     10.06297     12.34376     10.07402        -0.065316     -0.001092     -0.036940
     12.27737      1.23737     10.06721         0.007107     -0.040931     -0.025578
     11.53698      2.46273     10.11097        -0.073872      0.017052     -0.033684
      9.39940      3.70046     10.08538         0.089492      0.031547     -0.006983
     10.10772      2.46092     10.10872         0.048997      0.051909     -0.023946
     12.23917      3.70020     10.09554        -0.131467      0.060884     -0.029657
     11.52459      4.93597     10.12944         0.076909     -0.076590     -0.046704
      9.36759      6.15624     10.08469        -0.028240     -0.029085     -0.037090
     10.10092      4.93489     10.12167        -0.107829     -0.020800     -0.045733
     12.21388      6.18406     10.08166         0.097257      0.016230     -0.073739
     11.49720      7.41868     10.09923         0.042601      0.049051     -0.046206
      9.35054      8.63592     10.06613         0.069768     -0.067446     -0.005543
     10.06639      7.40553     10.10925        -0.032593      0.069840     -0.039654
     12.20752      8.65490     10.03264        -0.069091     -0.056597     -0.027654
     11.49409      9.88832     10.06064        -0.074207     -0.036358     -0.030468
      9.33933     11.11649     10.05245        -0.052729      0.074520     -0.023849
     10.06244      9.87856     10.07555         0.083224     -0.047193     -0.026292
     12.22786     11.12014     10.02448         0.009318      0.065153     -0.024094
      3.48965      3.75775      9.59227        -1.036349      0.055404      0.175593
      3.40213      8.61952      9.23283        -0.421428     -0.318952      0.130619
      5.81043      2.50172      9.83559         0.625326     -0.736739      0.087141
      7.21266      7.36234      9.84429         0.447397      0.125097     -0.057979
      5.77444      9.88138      9.76613         0.373996      0.236393     -0.091787
      7.28305      4.89353      9.83471         0.872520     -0.207084      0.105720
      4.62508      6.03522      8.84161        -0.881455      0.632125      0.281123
      5.33399      4.34918      9.46509        -0.153481      0.141926      0.064841
      5.45656      8.01496      8.67982        -0.145833     -0.114670      0.552927
 -----------------------------------------------------------------------------------
    total drift:                               -0.050776     -0.018872     -0.000889


--------------------------------------------------------------------------------------------------------



  FREE ENERGIE OF THE ION-ELECTRON SYSTEM (eV)
  ---------------------------------------------------
  free  energy   TOTEN  =      -604.19774561 eV

  energy  without entropy=     -604.19774561  energy(sigma->0) =     -604.19774561
 


--------------------------------------------------------------------------------------------------------


    POTLOK:  cpu time    3.3198: real time    3.3256


--------------------------------------------------------------------------------------------------------


 stress matrix after NEB project (eV)
    -40.71231      0.57354      1.14661
      0.57377    -41.31387     -0.27624
      1.14694     -0.27700     -1.47881
  FORCES: max atom, RMS     1.120524    0.363987
  FORCE total and by dimension    2.772045    1.036349
  Stress total and by dimension   58.051326   41.313869
 writing wavefunctions
     LOOP+:  cpu time26456.5434: real time26472.9458
    4ORBIT:  cpu time    0.0000: real time    0.0000
 


 total charge     
 
# of ion       s       p       d       tot
------------------------------------------
    1        0.858   1.729   0.000   2.587
    2        0.863   1.756   0.000   2.620
    3        0.862   1.742   0.000   2.603
    4        0.861   1.716   0.000   2.577
    5        0.859   1.739   0.000   2.598
    6        0.867   1.775   0.000   2.643
    7        0.863   1.743   0.000   2.607
    8        0.882   1.785   0.000   2.667
    9        0.869   1.784   0.000   2.653
   10        0.875   1.785   0.000   2.660
   11        0.884   1.710   0.000   2.593
   12        0.873   1.769   0.000   2.642
   13        0.866   1.769   0.000   2.635
   14        0.872   1.776   0.000   2.648
   15        0.860   1.729   0.000   2.588
   16        0.864   1.758   0.000   2.621
   17        0.866   1.744   0.000   2.610
   18        0.860   1.704   0.000   2.564
   19        0.863   1.750   0.000   2.612
   20        0.857   1.728   0.000   2.585
   21        0.862   1.725   0.000   2.587
   22        0.866   1.755   0.000   2.621
   23        0.867   1.748   0.000   2.615
   24        0.868   1.724   0.000   2.592
   25        0.857   1.697   0.000   2.554
   26        0.865   1.713   0.000   2.578
   27        0.866   1.731   0.000   2.598
   28        0.858   1.719   0.000   2.577
   29        0.866   1.753   0.000   2.620
   30        0.865   1.764   0.000   2.629
   31        0.865   1.769   0.000   2.634
   32        0.866   1.761   0.000   2.627
   33        0.864   1.757   0.000   2.621
   34        0.866   1.771   0.000   2.637
   35        0.868   1.790   0.000   2.658
   36        0.867   1.766   0.000   2.633
   37        0.869   1.767   0.000   2.635
   38        0.867   1.779   0.000   2.645
   39        0.866   1.767   0.000   2.632
   40        0.873   1.768   0.000   2.641
   41        0.870   1.778   0.000   2.648
   42        0.866   1.770   0.000   2.636
   43        0.867   1.764   0.000   2.631
   44        0.866   1.766   0.000   2.633
   45        0.867   1.764   0.000   2.631
   46        0.865   1.766   0.000   2.631
   47        0.865   1.763   0.000   2.629
   48        0.865   1.756   0.000   2.622
   49        0.864   1.758   0.000   2.622
   50        0.875   1.650   0.000   2.525
   51        0.885   1.665   0.000   2.550
   52        0.870   1.658   0.000   2.528
   53        0.875   1.675   0.000   2.550
   54        0.881   1.673   0.000   2.554
   55        1.236   2.642   0.000   3.878
   56        1.257   2.592   0.000   3.850
   57        0.487   0.625   6.049   7.161
   58        2.248   6.192   1.096   9.536
--------------------------------------------------
tot         52.042 106.278   7.144 165.464
 


 magnetization (x)
 
# of ion       s       p       d       tot
------------------------------------------
    1        0.001   0.014   0.000   0.016
    2        0.001   0.013   0.000   0.014
    3       -0.001  -0.011   0.000  -0.011
    4       -0.002  -0.034   0.000  -0.036
    5        0.001   0.016   0.000   0.018
    6        0.001   0.011   0.000   0.012
    7       -0.002  -0.015   0.000  -0.017
    8        0.002   0.027   0.000   0.029
    9        0.001   0.021   0.000   0.023
   10       -0.002  -0.018   0.000  -0.020
   11        0.000  -0.006   0.000  -0.005
   12        0.001   0.013   0.000   0.014
   13        0.001   0.008   0.000   0.009
   14       -0.001  -0.014   0.000  -0.015
   15        0.001   0.014   0.000   0.016
   16        0.001   0.011   0.000   0.012
   17       -0.001  -0.012   0.000  -0.013
   18       -0.002  -0.027   0.000  -0.029
   19        0.001   0.015   0.000   0.017
   20        0.002   0.024   0.000   0.026
   21       -0.002  -0.014   0.000  -0.016
   22       -0.002  -0.018   0.000  -0.020
   23        0.004   0.036   0.000   0.040
   24       -0.001  -0.016   0.000  -0.017
   25       -0.001  -0.008   0.000  -0.009
   26       -0.001  -0.011   0.000  -0.012
   27        0.001   0.015   0.000   0.016
   28        0.001   0.014   0.000   0.015
   29       -0.001  -0.015   0.000  -0.016
   30        0.001   0.010   0.000   0.011
   31        0.001   0.019   0.000   0.020
   32       -0.001  -0.011   0.000  -0.012
   33       -0.001  -0.011   0.000  -0.012
   34        0.001   0.013   0.000   0.014
   35        0.001   0.011   0.000   0.012
   36       -0.001  -0.015   0.000  -0.016
   37       -0.001  -0.012   0.000  -0.013
   38        0.001   0.015   0.000   0.016
   39        0.001   0.013   0.000   0.013
   40       -0.001  -0.008   0.000  -0.009
   41       -0.001  -0.011   0.000  -0.012
   42        0.001   0.012   0.000   0.013
   43        0.001   0.012   0.000   0.013
   44       -0.001  -0.009   0.000  -0.010
   45       -0.001  -0.010   0.000  -0.011
   46        0.001   0.013   0.000   0.014
   47        0.001   0.019   0.000   0.020
   48       -0.001  -0.013   0.000  -0.014
   49       -0.001  -0.011   0.000  -0.011
   50       -0.019  -0.092   0.000  -0.111
   51       -0.001  -0.013   0.000  -0.013
   52       -0.016  -0.091   0.000  -0.108
   53        0.002   0.020   0.000   0.022
   54       -0.001  -0.019   0.000  -0.020
   55        0.000   0.028   0.000   0.029
   56        0.001   0.038   0.000   0.038
   57        0.059   0.019   2.879   2.957
   58        0.001   0.001   0.007   0.009
--------------------------------------------------
tot          0.030  -0.047   2.886   2.869
 

 total amount of memory used by VASP MPI-rank0   177989. kBytes
=======================================================================

   base      :      30000. kBytes
   nonl-proj :       5322. kBytes
   fftplans  :      12974. kBytes
   grid      :      33177. kBytes
   one-center:         62. kBytes
   HF        :         23. kBytes
   nonlr-proj:      19007. kBytes
   wavefun   :      77424. kBytes
 
  
  
 General timing and accounting informations for this job:
 ========================================================
  
                  Total CPU time used (sec):    26542.615
                            User time (sec):    26492.007
                          System time (sec):       50.607
                         Elapsed time (sec):    26559.865
  
                   Maximum memory used (kb):      415536.
                   Average memory used (kb):           0.
  
                          Minor page faults:      5807381
                          Major page faults:            0
                 Voluntary context switches:         1815
