 vasp.5.4.4.18Apr17-6-g9f103f2a35 (build Feb 25 2019 10:51:38) complex          
  
 executed on             LinuxIFC date 2021.03.06  00:22:30
 running on   80 total cores
 distrk:  each k-point on   40 cores,    2 groups
 distr:  one band on NCORES_PER_BAND=  40 cores,    1 groups


--------------------------------------------------------------------------------------------------------


 INCAR:
 POTCAR:    PAW_PBE C 08Apr2002                   
 POTCAR:    PAW_PBE N 08Apr2002                   
 POTCAR:    PAW_PBE Fe 06Sep2000                  

 ----------------------------------------------------------------------------- 
|                                                                             |
|           W    W    AA    RRRRR   N    N  II  N    N   GGGG   !!!           |
|           W    W   A  A   R    R  NN   N  II  NN   N  G    G  !!!           |
|           W    W  A    A  R    R  N N  N  II  N N  N  G       !!!           |
|           W WW W  AAAAAA  RRRRR   N  N N  II  N  N N  G  GGG   !            |
|           WW  WW  A    A  R   R   N   NN  II  N   NN  G    G                |
|           W    W  A    A  R    R  N    N  II  N    N   GGGG   !!!           |
|                                                                             |
|      For optimal performance we recommend to set                            |
|        NCORE= 4 - approx SQRT( number of cores)                             |
|      NCORE specifies how many cores store one orbital (NPAR=cpu/NCORE).     |
|      This setting can  greatly improve the performance of VASP for DFT.     |
|      The default,   NCORE=1            might be grossly inefficient         |
|      on modern multi-core architectures or massively parallel machines.     |
|      Do your own testing !!!!                                               |
|      Unfortunately you need to use the default for GW and RPA calculations. |
|      (for HF NCORE is supported but not extensively tested yet)             |
|                                                                             |
 ----------------------------------------------------------------------------- 


 ----------------------------------------------------------------------------- 
|                                                                             |
|           W    W    AA    RRRRR   N    N  II  N    N   GGGG   !!!           |
|           W    W   A  A   R    R  NN   N  II  NN   N  G    G  !!!           |
|           W    W  A    A  R    R  N N  N  II  N N  N  G       !!!           |
|           W WW W  AAAAAA  RRRRR   N  N N  II  N  N N  G  GGG   !            |
|           WW  WW  A    A  R   R   N   NN  II  N   NN  G    G                |
|           W    W  A    A  R    R  N    N  II  N    N   GGGG   !!!           |
|                                                                             |
|      You have enabled k-point parallelism (KPAR>1).                         |
|      This developmental code was originally  written by Paul Kent at ORNL,  |
|      and carefully double checked in Vienna.                                |
|      GW as well as linear response parallelism added by Martijn Marsman     |
|      and Georg Kresse.                                                      |
|      Carefully verify results versus KPAR=1.                                |
|      Report problems to Paul Kent and Vienna.                               |
|                                                                             |
 ----------------------------------------------------------------------------- 

 POTCAR:    PAW_PBE C 08Apr2002                   
   VRHFIN =C: s2p2                                                              
   LEXCH  = PE                                                                  
   EATOM  =   147.1560 eV,   10.8157 Ry                                         
                                                                                
   TITEL  = PAW_PBE C 08Apr2002                                                 
   LULTRA =        F    use ultrasoft PP ?                                      
   IUNSCR =        1    unscreen: 0-lin 1-nonlin 2-no                           
   RPACOR =    1.200    partial core radius                                     
   POMASS =   12.011; ZVAL   =    4.000    mass and valenz                      
   RCORE  =    1.500    outmost cutoff radius                                   
   RWIGS  =    1.630; RWIGS  =    0.863    wigner-seitz radius (au A)           
   ENMAX  =  400.000; ENMIN  =  300.000 eV                                      
   ICORE  =        2    local potential                                         
   LCOR   =        T    correct aug charges                                     
   LPAW   =        T    paw PP                                                  
   EAUG   =  644.873                                                            
   DEXC   =    0.000                                                            
   RMAX   =    1.529    core radius for proj-oper                               
   RAUG   =    1.300    factor for augmentation sphere                          
   RDEP   =    1.501    radius for radial grids                                 
   RDEPT  =    1.300    core radius for aug-charge                              
                                                                                
   Atomic configuration                                                         
    4 entries                                                                   
     n  l   j            E        occ.                                          
     1  0  0.50      -273.3789   2.0000                                         
     2  0  0.50       -13.7508   2.0000                                         
     2  1  0.50        -5.2854   2.0000                                         
     3  2  1.50        -5.4423   0.0000                                         
   Description                                                                  
     l       E           TYP  RCUT    TYP  RCUT                                 
     0    -13.7508458     23  1.200                                             
     0     -8.2022199     23  1.200                                             
     1     -5.2854383     23  1.500                                             
     1     34.0145650     23  1.500                                             
     2     -5.4423304      7  1.500                                             
  local pseudopotential read in
  partial core-charges read in
  partial kinetic energy density read in
  atomic valenz-charges read in
  non local Contribution for L=           0  read in
    real space projection operators read in
  non local Contribution for L=           0  read in
    real space projection operators read in
  non local Contribution for L=           1  read in
    real space projection operators read in
  non local Contribution for L=           1  read in
    real space projection operators read in
    PAW grid and wavefunctions read in
 
   number of l-projection  operators is LMAX  =           4
   number of lm-projection operators is LMMAX =           8
 
 POTCAR:    PAW_PBE N 08Apr2002                   
   VRHFIN =N: s2p3                                                              
   LEXCH  = PE                                                                  
   EATOM  =   264.5486 eV,   19.4438 Ry                                         
                                                                                
   TITEL  = PAW_PBE N 08Apr2002                                                 
   LULTRA =        F    use ultrasoft PP ?                                      
   IUNSCR =        1    unscreen: 0-lin 1-nonlin 2-no                           
   RPACOR =    1.200    partial core radius                                     
   POMASS =   14.001; ZVAL   =    5.000    mass and valenz                      
   RCORE  =    1.500    outmost cutoff radius                                   
   RWIGS  =    1.400; RWIGS  =    0.741    wigner-seitz radius (au A)           
   ENMAX  =  400.000; ENMIN  =  300.000 eV                                      
   ICORE  =        2    local potential                                         
   LCOR   =        T    correct aug charges                                     
   LPAW   =        T    paw PP                                                  
   EAUG   =  627.112                                                            
   DEXC   =    0.000                                                            
   RMAX   =    1.529    core radius for proj-oper                               
   RAUG   =    1.300    factor for augmentation sphere                          
   RDEP   =    1.514    radius for radial grids                                 
   RDEPT  =    1.338    core radius for aug-charge                              
                                                                                
   Atomic configuration                                                         
    4 entries                                                                   
     n  l   j            E        occ.                                          
     1  0  0.50      -384.7179   2.0000                                         
     2  0  0.50       -18.5828   2.0000                                         
     2  1  0.50        -7.0898   3.0000                                         
     3  2  1.50        -6.8029   0.0000                                         
   Description                                                                  
     l       E           TYP  RCUT    TYP  RCUT                                 
     0    -18.5828119     23  1.200                                             
     0    -13.5018863     23  1.200                                             
     1     -7.0897853     23  1.500                                             
     1      9.5240782     23  1.500                                             
     2     -6.8029130      7  1.500                                             
  local pseudopotential read in
  partial core-charges read in
  partial kinetic energy density read in
  atomic valenz-charges read in
  non local Contribution for L=           0  read in
    real space projection operators read in
  non local Contribution for L=           0  read in
    real space projection operators read in
  non local Contribution for L=           1  read in
    real space projection operators read in
  non local Contribution for L=           1  read in
    real space projection operators read in
    PAW grid and wavefunctions read in
 
   number of l-projection  operators is LMAX  =           4
   number of lm-projection operators is LMMAX =           8
 
 POTCAR:    PAW_PBE Fe 06Sep2000                  
   VRHFIN =Fe:  d7 s1                                                           
   LEXCH  = PE                                                                  
   EATOM  =   594.3153 eV,   43.6809 Ry                                         
                                                                                
   TITEL  = PAW_PBE Fe 06Sep2000                                                
   LULTRA =        F    use ultrasoft PP ?                                      
   IUNSCR =        1    unscreen: 0-lin 1-nonlin 2-no                           
   RPACOR =    2.000    partial core radius                                     
   POMASS =   55.847; ZVAL   =    8.000    mass and valenz                      
   RCORE  =    2.300    outmost cutoff radius                                   
   RWIGS  =    2.460; RWIGS  =    1.302    wigner-seitz radius (au A)           
   ENMAX  =  267.882; ENMIN  =  200.911 eV                                      
   RCLOC  =    1.701    cutoff for local pot                                    
   LCOR   =        T    correct aug charges                                     
   LPAW   =        T    paw PP                                                  
   EAUG   =  511.368                                                            
   DEXC   =    0.000                                                            
   RMAX   =    2.356    core radius for proj-oper                               
   RAUG   =    1.300    factor for augmentation sphere                          
   RDEP   =    2.442    radius for radial grids                                 
   RDEPT  =    1.890    core radius for aug-charge                              
                                                                                
   Atomic configuration                                                         
    9 entries                                                                   
     n  l   j            E        occ.                                          
     1  0  0.50     -6993.8440   2.0000                                         
     2  0  0.50      -814.6047   2.0000                                         
     2  1  1.50      -693.3689   6.0000                                         
     3  0  0.50       -89.4732   2.0000                                         
     3  1  1.50       -55.6373   6.0000                                         
     3  2  2.50        -3.8151   7.0000                                         
     4  0  0.50        -4.2551   1.0000                                         
     4  1  1.50        -3.4015   0.0000                                         
     4  3  2.50        -1.3606   0.0000                                         
   Description                                                                  
     l       E           TYP  RCUT    TYP  RCUT                                 
     2     -3.8151135     23  2.300                                             
     2     -5.1756961     23  2.300                                             
     0     -4.2550963     23  2.300                                             
     0      7.2035603     23  2.300                                             
     1     -2.7211652     23  2.300                                             
     1     18.4316424     23  2.300                                             
  local pseudopotential read in
  partial core-charges read in
  partial kinetic energy density read in
  atomic valenz-charges read in
  non local Contribution for L=           2  read in
    real space projection operators read in
  non local Contribution for L=           2  read in
    real space projection operators read in
  non local Contribution for L=           0  read in
    real space projection operators read in
  non local Contribution for L=           0  read in
    real space projection operators read in
  non local Contribution for L=           1  read in
    real space projection operators read in
  non local Contribution for L=           1  read in
    real space projection operators read in
    PAW grid and wavefunctions read in
 
   number of l-projection  operators is LMAX  =           6
   number of lm-projection operators is LMMAX =          18
 

 ----------------------------------------------------------------------------- 
|                                                                             |
|  ADVICE TO THIS USER RUNNING 'VASP/VAMP'   (HEAR YOUR MASTER'S VOICE ...):  |
|                                                                             |
|      You have a (more or less) 'large supercell' and for larger cells       |
|      it might be more efficient to use real space projection opertators     |
|      So try LREAL= Auto  in the INCAR   file.                               |
|      Mind:          For very  accurate calculation you might also keep the  |
|      reciprocal projection scheme          (i.e. LREAL=.FALSE.)             |
|                                                                             |
 ----------------------------------------------------------------------------- 

  PAW_PBE C 08Apr2002                   :
 energy of atom  1       EATOM= -147.1560
 kinetic energy error for atom=    0.0076 (will be added to EATOM!!)
  PAW_PBE N 08Apr2002                   :
 energy of atom  2       EATOM= -264.5486
 kinetic energy error for atom=    0.0138 (will be added to EATOM!!)
  PAW_PBE Fe 06Sep2000                  :
 energy of atom  3       EATOM= -594.3153
 kinetic energy error for atom=    0.0026 (will be added to EATOM!!)
 
 
 POSCAR:  C  N Fe                                
  positions in cartesian coordinates
  No initial velocities read in
 exchange correlation table for  LEXCH =        8
   RHO(1)=    0.500       N(1)  =     2000
   RHO(2)=  100.500       N(2)  =     4000

 VTST: version 3.2, (02/03/18)

 CHAIN: initializing optimizer
 
 OPT: Using VASP Conjugate-Gradient optimizer
 CHAIN: Read ICHAIN            0
 
 POSCAR:  C  N Fe                                
  positions in cartesian coordinates
  No initial velocities read in
 


--------------------------------------------------------------------------------------------------------


 ion  position               nearest neighbor table
   1  0.221  1.000  0.500-   3 1.41   4 1.43  20 1.43
   2  0.055  0.101  0.500-  34 1.42   3 1.43   7 1.44
   3  0.109  1.000  0.500-   1 1.41  18 1.43   2 1.43
   4  0.277  0.099  0.500-  22 1.41   5 1.42   1 1.43
   5  0.224  0.200  0.500-   4 1.42   7 1.43   8 1.44
   6  0.056  0.301  0.500-   7 1.43  38 1.44  11 1.44
   7  0.111  0.201  0.500-   5 1.43   6 1.43   2 1.44
   8  0.284  0.299  0.500-  51 1.39   9 1.44   5 1.44
   9  0.228  0.399  0.500-   8 1.44  11 1.44  12 1.45
  10  0.056  0.500  0.500-  15 1.44  11 1.44  42 1.45
  11  0.114  0.400  0.500-   6 1.44   9 1.44  10 1.44
  12  0.284  0.500  0.500-  53 1.33   9 1.45  13 1.45
  13  0.228  0.601  0.500-  16 1.44  15 1.44  12 1.45
  14  0.056  0.699  0.500-  19 1.43  46 1.44  15 1.44
  15  0.114  0.600  0.500-  14 1.44  13 1.44  10 1.44
  16  0.284  0.701  0.500-  55 1.39  13 1.44  17 1.44
  17  0.224  0.799  0.500-  20 1.42  19 1.43  16 1.44
  18  0.055  0.899  0.500-  50 1.42   3 1.43  19 1.44
  19  0.111  0.799  0.500-  17 1.43  14 1.43  18 1.44
  20  0.277  0.900  0.500-  28 1.41  17 1.42   1 1.43
  21  0.555  1.000  0.500-  23 1.40  24 1.42  30 1.42
  22  0.388  0.099  0.500-  26 1.41   4 1.41  23 1.42
  23  0.444  1.000  0.500-  21 1.40  28 1.42  22 1.42
  24  0.610  0.099  0.500-  25 1.41  32 1.41  21 1.42
  25  0.555  0.197  0.500-  52 1.38  24 1.41  26 1.42
  26  0.443  0.197  0.500-  51 1.38  22 1.41  25 1.42
  27  0.555  0.803  0.500-  56 1.38  30 1.41  29 1.42
  28  0.388  0.901  0.500-  29 1.41  20 1.41  23 1.42
  29  0.443  0.803  0.500-  55 1.38  28 1.41  27 1.42
  30  0.610  0.901  0.500-  27 1.41  48 1.41  21 1.42
  31  0.889  1.000  0.500-  33 1.41  50 1.43  34 1.43
  32  0.722  0.099  0.500-  24 1.41  37 1.42  33 1.43
  33  0.777  1.000  0.500-  31 1.41  48 1.43  32 1.43
  34  0.943  0.101  0.500-   2 1.42  31 1.43  35 1.44
  35  0.887  0.201  0.500-  37 1.43  38 1.43  34 1.44
  36  0.714  0.299  0.500-  52 1.39  41 1.44  37 1.44
  37  0.774  0.200  0.500-  32 1.42  35 1.43  36 1.44
  38  0.943  0.301  0.500-  35 1.43   6 1.44  39 1.44
  39  0.885  0.400  0.500-  38 1.44  41 1.44  42 1.44
  40  0.714  0.500  0.500-  54 1.33  45 1.45  41 1.45
  41  0.771  0.399  0.500-  36 1.44  39 1.44  40 1.45
  42  0.942  0.500  0.500-  39 1.44  43 1.44  10 1.45
  43  0.885  0.600  0.500-  46 1.44  45 1.44  42 1.44
  44  0.714  0.701  0.500-  56 1.39  45 1.44  49 1.44
  45  0.771  0.601  0.500-  44 1.44  43 1.44  40 1.45
  46  0.943  0.699  0.500-  47 1.43  14 1.44  43 1.44
  47  0.887  0.799  0.500-  49 1.43  46 1.43  50 1.44
  48  0.722  0.900  0.500-  30 1.41  49 1.42  33 1.43
  49  0.774  0.799  0.500-  48 1.42  47 1.43  44 1.44
  50  0.943  0.899  0.500-  18 1.42  31 1.43  47 1.44
  51  0.394  0.295  0.500-  26 1.38   8 1.39  57 1.95
  52  0.604  0.295  0.500-  25 1.38  36 1.39  57 1.95
  53  0.390  0.500  0.500-  12 1.33  58 1.79  57 1.79
  54  0.609  0.500  0.500-  40 1.33  57 1.79  58 1.79
  55  0.394  0.704  0.500-  29 1.38  16 1.39  58 1.95
  56  0.604  0.704  0.500-  27 1.38  44 1.39  58 1.95
  57  0.499  0.410  0.500-  54 1.79  53 1.79  51 1.95  52 1.95  58 2.25
  58  0.499  0.590  0.500-  53 1.79  54 1.79  56 1.95  55 1.95  57 2.25
 
  LATTYP: Found a triclinic cell.
 ALAT       =    17.7738872361
 B/A-ratio  =     0.7131350713
 C/A-ratio  =     1.8016122572
 COS(alpha) =     0.0000697067
 COS(beta)  =     0.5456335080
 COS(gamma) =     0.7130288636
  
  Lattice vectors:
  
 A1 = ( -12.6743036335, -12.4608625257,   0.0000551502)
 A2 = ( -12.6751821566,   0.0010261735,  -0.0019085722)
 A3 = (  -0.0012218429, -24.9206284824, -20.1084196778)


Analysis of symmetry for initial positions (statically):
=====================================================================
 Subroutine PRICEL returns:
 Original cell was already a primitive cell.
 

 Routine SETGRP: Setting up the symmetry group for a 
 triclinic supercell.


 Subroutine GETGRP returns: Found  1 space group operations
 (whereof  1 operations were pure point group operations)
 out of a pool of  2 trial point group operations.


The static configuration has the point symmetry C_1 .


Analysis of symmetry for dynamics (positions and initial velocities):
=====================================================================
 Subroutine PRICEL returns:
 Original cell was already a primitive cell.
 

 Routine SETGRP: Setting up the symmetry group for a 
 triclinic supercell.


 Subroutine GETGRP returns: Found  1 space group operations
 (whereof  1 operations were pure point group operations)
 out of a pool of  2 trial point group operations.


The dynamic configuration has the point symmetry C_1 .


Analysis of structural, dynamic, and magnetic symmetry:
=====================================================================
 Subroutine PRICEL returns:
 Original cell was already a primitive cell.
 

 Routine SETGRP: Setting up the symmetry group for a 
 triclinic supercell.


 Subroutine GETGRP returns: Found  1 space group operations
 (whereof  1 operations were pure point group operations)
 out of a pool of  2 trial point group operations.


The magnetic configuration has the point symmetry C_1 .


 Subroutine INISYM returns: Found  1 space group operations
 (whereof  1 operations are pure point group operations),
 and found     1 'primitive' translations

 
 
 KPOINTS: KPOINTS created by Atomic Simulation Env

Automatic generation of k-mesh.
Space group operators:
 irot       det(A)        alpha          n_x          n_y          n_z        tau_x        tau_y        tau_z
    1     1.000000     0.000001     1.000000     0.000000     0.000000     0.000000     0.000000     0.000000
 
 Subroutine IBZKPT returns following result:
 ===========================================
 
 Found      2 irreducible k-points:
 
 Following reciprocal coordinates:
            Coordinates               Weight
  0.250000  0.250000 -0.000000      2.000000
 -0.250000  0.250000  0.000000      2.000000
 
 Following cartesian coordinates:
            Coordinates               Weight
  0.019725  0.020063  0.000000      2.000000
 -0.019722  0.020060  0.000006      2.000000
 
 
 Subroutine IBZKPT_HF returns following result:
 ==============================================
 
 Found      4 k-points in 1st BZ
 the following      4 k-points will be used (e.g. in the exchange kernel)
 Following reciprocal coordinates:   # in IRBZ
  0.250000  0.250000 -0.000000    0.25000000   1 t-inv F
 -0.250000  0.250000  0.000000    0.25000000   2 t-inv F
 -0.250000 -0.250000  0.000000    0.25000000   1 t-inv T
  0.250000 -0.250000 -0.000000    0.25000000   2 t-inv T


--------------------------------------------------------------------------------------------------------




 Dimension of arrays:
   k-points           NKPTS =      2   k-points in BZ     NKDIM =      4   number of bands    NBANDS=    155
   number of dos      NEDOS =    301   number of ions     NIONS =     58
   non local maximal  LDIM  =      6   non local SUM 2l+1 LMDIM =     18
   total plane-waves  NPLWV = ******
   max r-space proj   IRMAX =      1   max aug-charges    IRDMAX=  15698
   dimension x,y,z NGX =    96 NGY =   96 NGZ =  150
   dimension x,y,z NGXF=   192 NGYF=  192 NGZF=  300
   support grid    NGXF=   192 NGYF=  192 NGZF=  300
   ions per type =              50   6   2
   NGX,Y,Z   is equivalent  to a cutoff of  12.59, 12.81, 12.40 a.u.
   NGXF,Y,Z  is equivalent  to a cutoff of  25.18, 25.61, 24.80 a.u.

 SYSTEM =  unknown system                          
 POSCAR =   C  N Fe                                

 Startparameter for this run:
   NWRITE =      2    write-flag & timer
   PREC   = accura    normal or accurate (medium, high low for compatibility)
   ISTART =      1    job   : 0-new  1-cont  2-samecut
   ICHARG =      0    charge: 1-file 2-atom 10-const
   ISPIN  =      2    spin polarized calculation?
   LNONCOLLINEAR =      F non collinear calculations
   LSORBIT =      F    spin-orbit coupling
   INIWAV =      1    electr: 0-lowe 1-rand  2-diag
   LASPH  =      T    aspherical Exc in radial PAW
   METAGGA=      F    non-selfconsistent MetaGGA calc.

 Electronic Relaxation 1
   ENCUT  =  500.0 eV  36.75 Ry    6.06 a.u.  23.11 22.72 36.67*2*pi/ulx,y,z
   ENINI  =  500.0     initial cutoff
   ENAUG  =  644.9 eV  augmentation charge cutoff
   NELM   =    250;   NELMIN=  2; NELMDL=  0     # of ELM steps 
   EDIFF  = 0.1E-03   stopping-criterion for ELM
   LREAL  =      F    real-space projection
   NLSPLINE    = F    spline interpolate recip. space projectors
   LCOMPAT=      F    compatible to vasp.4.4
   GGA_COMPAT  = T    GGA compatible to vasp.4.4-vasp.4.6
   LMAXPAW     = -100 max onsite density
   LMAXMIX     =    2 max onsite mixed and CHGCAR
   VOSKOWN=      0    Vosko Wilk Nusair interpolation
   ROPT   =    0.00000   0.00000   0.00000
 Ionic relaxation
   EDIFFG = -.3E-01   stopping-criterion for IOM
   NSW    =      0    number of steps for IOM
   NBLOCK =      1;   KBLOCK =      1    inner block; outer block 
   IBRION =     -1    ionic relax: 0-MD 1-quasi-New 2-CG
   NFREE  =      1    steps in history (QN), initial steepest desc. (CG)
   ISIF   =      2    stress and relaxation
   IWAVPR =     10    prediction:  0-non 1-charg 2-wave 3-comb
   ISYM   =      3    0-nonsym 1-usesym 2-fastsym
   LCORR  =      T    Harris-Foulkes like correction to forces

   POTIM  = 0.5000    time-step for ionic-motion
   TEIN   =    0.0    initial temperature
   TEBEG  =    0.0;   TEEND  =   0.0 temperature during run
   SMASS  =  -3.00    Nose mass-parameter (am)
   estimated Nose-frequenzy (Omega)   =  0.10E-29 period in steps =****** mass=  -0.367E-26a.u.
   SCALEE = 1.0000    scale energy and forces
   NPACO  =    256;   APACO  = 16.0  distance and # of slots for P.C.
   PSTRESS=    0.0 pullay stress

  Mass of Ions in am
   POMASS =  12.01 14.00 55.85
  Ionic Valenz
   ZVAL   =   4.00  5.00  8.00
  Atomic Wigner-Seitz radii
   RWIGS  =  -1.00 -1.00 -1.00
  virtual crystal weights 
   VCA    =   1.00  1.00  1.00
   NELECT =     246.0000    total number of electrons
   NUPDOWN=      -1.0000    fix difference up-down

 DOS related values:
   EMIN   =  10.00;   EMAX   =-10.00  energy-range for DOS
   EFERMI =   0.00
   ISMEAR =     0;   SIGMA  =   0.10  broadening in eV -4-tet -1-fermi 0-gaus

 Electronic relaxation 2 (details)
   IALGO  =     53    algorithm
   LDIAG  =      T    sub-space diagonalisation (order eigenvalues)
   LSUBROT=      F    optimize rotation matrix (better conditioning)
   TURBO    =      0    0=normal 1=particle mesh
   IRESTART =      0    0=no restart 2=restart with 2 vectors
   NREBOOT  =      0    no. of reboots
   NMIN     =      0    reboot dimension
   EREF     =   0.00    reference energy to select bands
   IMIX   =      4    mixing-type and parameters
     AMIX     =   0.40;   BMIX     =  1.00
     AMIX_MAG =   1.60;   BMIX_MAG =  1.00
     AMIN     =   0.10
     WC   =   100.;   INIMIX=   1;  MIXPRE=   1;  MAXMIX= -45

 Intra band minimization:
   WEIMIN = 0.0000     energy-eigenvalue tresh-hold
   EBREAK =  0.16E-06  absolut break condition
   DEPER  =   0.30     relativ break condition  

   TIME   =   0.20     timestep for ELM

  volume/ion in A,a.u.               =      54.77       369.63
  Fermi-wavevector in a.u.,A,eV,Ry     =   0.697782  1.318616  6.624668  0.486899
  Thomas-Fermi vector in A             =   1.781204
 
 Write flags
   LWAVE        =      T    write WAVECAR
   LDOWNSAMPLE  =      F    k-point downsampling of WAVECAR
   LCHARG       =      T    write CHGCAR
   LVTOT        =      F    write LOCPOT, total local potential
   LVHAR        =      T    write LOCPOT, Hartree potential only
   LELF         =      F    write electronic localiz. function (ELF)
   LORBIT       =     11    0 simple, 1 ext, 2 COOP (PROOUT), +10 PAW based schemes


 Dipole corrections
   LMONO  =      F    monopole corrections only (constant potential shift)
   LDIPOL =      T    correct potential (dipole corrections)
   IDIPOL =      3    1-x, 2-y, 3-z, 4-all directions 
   EPSILON=  1.0000000 bulk dielectric constant

 Exchange correlation treatment:
   GGA     =    PE    GGA type
   LEXCH   =     8    internal setting for exchange type
   VOSKOWN=      0    Vosko Wilk Nusair interpolation
   EXXOEP  =     0    0=HF, 1=EXX-LHF (local Hartree Fock) 2=EXX OEP
   LHFCALC =     T    Hartree Fock is set to
   LSYMGRAD=     F    symmetrize gradient (conserves proper symmetry)
   PRECFOCK=normal    Normal, Fast or Accurate (Low or Medium for compatibility)
   LRHFCALC=     F    long range Hartree Fock
   LRSCOR  =     F    long range correlation only (use DFT for short range part)
   LTHOMAS =     F    Thomas Fermi screening in HF
   LMODELHF=     F    short range full HF, long range fraction AEXX
   ENCUT4O =  -1.0   cutoff for four orbital integrals eV
   LMAXFOCK=     4    L truncation for augmentation on plane wave grid
   LMAXFOCKAE=  -1    L truncation for all-electron charge restoration on plane wave grid
   NMAXFOCKAE=   1    number of basis functions for all-electron charge restoration
   LFOCKAEDFT=     F  apply the AE augmentation even for DFT
   NKREDX  =     1    reduce k-point grid by
   NKREDY  =     1    reduce k-point grid by
   NKREDZ  =     1    reduce k-point grid by
   SHIFTRED=     F    shift reduced grid of Gamma
   HFKIDENT=     F    idential grid for each k-point
   ODDONLY =     F    use only odd q-grid points
   EVENONLY=     F    use only even q-grid points
   HFALPHA =   -1.0000 decay constant for conv. correction
   MCALPHA =    0.0000 extent of test-charge in conv. correction in multipole expansion
   AEXX    =    0.2500 exact exchange contribution
   HFSCREEN=    0.2000 screening length (either q_TF or 0.3 A-1)
   HFSCREENC=   0.2000 screening length for correlation (either q_TF or 0.3 A-1)
   HFRCUT  =    0.0000 spherical cutoff for potential kernel
   ALDAX   =    0.7500 LDA exchange part
   AGGAX   =    0.7500 GGA exchange part
   ALDAC   =    1.0000 LDA correlation
   AGGAC   =    1.0000 GGA correlation
   ENCUTFOCK=  -1.0 apply spherical cutoff to Coloumb kernel
   NBANDSGWLOW=     1    first orbital included in HF term
   NBLOCK_FOCK=    64    blocking factor in FOCK_ACC
 Linear response parameters
   LEPSILON=     F    determine dielectric tensor
   LRPA    =     F    only Hartree local field effects (RPA)
   LNABLA  =     F    use nabla operator in PAW spheres
   LVEL    =     F    velocity operator in full k-point grid
   LINTERFAST=   F  fast interpolation
   KINTER  =     0    interpolate to denser k-point grid
   CSHIFT  =0.1000    complex shift for real part using Kramers Kronig
   OMEGAMAX=  -1.0    maximum frequency
   DEG_THRESHOLD= 0.2000000E-02 threshold for treating states as degnerate
   RTIME   =   -0.100 relaxation time in fs
  (WPLASMAI=    0.000 imaginary part of plasma frequency in eV, 0.658/RTIME)
   DFIELD  = 0.0000000 0.0000000 0.0000000 field for delta impulse in time
 
 Orbital magnetization related:
   ORBITALMAG=     F  switch on orbital magnetization
   LCHIMAG   =     F  perturbation theory with respect to B field
   DQ        =  0.001000  dq finite difference perturbation B field
   LLRAUG    =     F  two centre corrections for induced B field



--------------------------------------------------------------------------------------------------------


 Static calculation
 charge density and potential will be updated during run
 spin polarized calculation
 Conjugate gradient for all bands (Freysoldt, et al. PRB 79, 241103 (2009))
 perform sub-space diagonalisation
    before iterative eigenvector-optimisation
 modified Broyden-mixing scheme, WC =      100.0
 initial mixing is a Kerker type mixing with AMIX =  0.4000 and BMIX =      1.0000
 Hartree-type preconditioning will be used
 using additional bands           32
 reciprocal scheme for non local part
 use partial core corrections
 no Harris-corrections to forces 
 use gradient corrections 
 use of overlap-Matrix (Vanderbilt PP)
 Gauss-broadening in eV      SIGMA  =   0.10


--------------------------------------------------------------------------------------------------------


  energy-cutoff  :      500.00
  volume of cell :     3176.88
      direct lattice vectors                 reciprocal lattice vectors
    12.675182157 -0.001026173  0.001908572     0.078894332  0.000005560 -0.000011684
    -0.000878523 12.461888699 -0.001963722     0.000006495  0.080244661  0.000012563
     0.002978889 -0.003148916 20.112347123    -0.000007486  0.000007834  0.049720703

  length of vectors
    12.675182342 12.461888885 20.112347590     0.078894333  0.080244662  0.049720705


 
 old parameters found on file WAVECAR:
  energy-cutoff  :      500.00
  volume of cell :     3176.88
      direct lattice vectors                 reciprocal lattice vectors
    12.810000000  0.000000000  0.000000000     0.078064012  0.000000000  0.000000000
     0.000000000 12.400000000  0.000000000     0.000000000  0.080645161  0.000000000
     0.000000000  0.000000000 20.000000000     0.000000000  0.000000000  0.050000000

  length of vectors

 
 k-points in units of 2pi/SCALE and weight: KPOINTS created by Atomic Simulation Env
   0.01972521  0.02006256  0.00000022       0.500
  -0.01972196  0.02005978  0.00000606       0.500
 
 k-points in reciprocal lattice and weights: KPOINTS created by Atomic Simulation Env
   0.25000000  0.25000000 -0.00000000       0.500
  -0.25000000  0.25000000  0.00000000       0.500
 
 position of ions in fractional coordinates (direct lattice) 
   0.22108807  0.99987706  0.50000744
   0.05528433  0.10083402  0.50001586
   0.10947824  0.99989962  0.49999933
   0.27665456  0.09934838  0.50001381
   0.22422518  0.20038922  0.49998661
   0.05587866  0.30101115  0.50002252
   0.11145550  0.20116427  0.50001694
   0.28426569  0.29880797  0.49988735
   0.22763524  0.39893464  0.49991059
   0.05628045  0.49988131  0.50002039
   0.11392351  0.39999523  0.50000263
   0.28444403  0.49992076  0.49982828
   0.22757306  0.60086723  0.49997956
   0.05578383  0.69877674  0.50002147
   0.11386164  0.59979876  0.50002256
   0.28419436  0.70097986  0.50000032
   0.22416822  0.79939848  0.50000842
   0.05524644  0.89897950  0.49999302
   0.11139335  0.79864210  0.50000310
   0.27663780  0.90039914  0.50000363
   0.55462441  0.99983539  0.50005065
   0.38817772  0.09856084  0.50001320
   0.44379280  0.99985104  0.50004751
   0.61023782  0.09853660  0.50002541
   0.55531241  0.19683418  0.49991534
   0.44315280  0.19684685  0.49990137
   0.55526689  0.80285014  0.50001730
   0.38816639  0.90115947  0.50002678
   0.44310212  0.80286129  0.50001212
   0.61023694  0.90113639  0.50003075
   0.88891965  0.99987906  0.49999808
   0.72176187  0.09934309  0.50002423
   0.77731548  0.99986767  0.50000931
   0.94315006  0.10081380  0.50001523
   0.88702979  0.20115402  0.50001954
   0.71423860  0.29875289  0.49990679
   0.77425671  0.20035200  0.49999880
   0.94264942  0.30100393  0.50002478
   0.88457293  0.39996801  0.50000875
   0.71400179  0.49983700  0.49983035
   0.77085997  0.39888543  0.49992215
   0.94218127  0.49987314  0.50002317
   0.88453352  0.59976620  0.50002632
   0.71416262  0.70092717  0.50000358
   0.77081371  0.60081645  0.49998296
   0.94255834  0.69876472  0.50002298
   0.88696116  0.79860726  0.50000372
   0.72175810  0.90037901  0.50000559
   0.77419320  0.79935497  0.50001063
   0.94311789  0.89895684  0.49999214
   0.39403794  0.29524490  0.49977573
   0.60448890  0.29521760  0.49979977
   0.38963502  0.49986456  0.49958326
   0.60882616  0.49987049  0.49955699
   0.39395547  0.70446304  0.49996642
   0.60438908  0.70444432  0.49997239
   0.49924505  0.40969072  0.49953987
   0.49922377  0.59008405  0.49969219
 
 position of ions in cartesian coordinates  (Angst):
   2.80294267 12.45855533 10.05478162
   0.70213986  1.25495114 10.05639999
   1.38826769 12.45895098 10.05440557
   3.50804919  1.23621010 10.05678418
   2.84340834  2.49542366 10.05593861
   0.70949729  3.74953563 10.05614201
   1.41403159  2.50519791 10.05633195
   3.60434604  3.72184586 10.05386368
   2.88645689  4.96967136 10.05402636
   0.71441533  6.22783297 10.05570945
   1.44513924  4.98300472 10.05565833
   3.60642964  6.22809105 10.05228111
   2.88549156  7.48613264 10.05501696
   0.70794584  8.70644624 10.05533962
   1.44417959  7.47293404 10.05566680
   3.60308895  8.73366687 10.05534595
   2.84216016  9.96021039 10.05520099
   0.70095836 11.20135134 10.05437326
   1.41271889  9.95090019 10.05488025
   3.50713296 11.21881551 10.05500637
   7.03057668 12.45769361 10.05628742
   4.92162621  1.22628138 10.05698637
   5.62576573 12.45800236 10.05601261
   7.73627852  1.22575134 10.05765575
   7.04000226  2.45078156 10.05514413
   5.61835873  2.45105459 10.05464907
   7.03889310 10.00288482 10.05600477
   4.92077749 11.22817612 10.05568348
   5.61718421 10.00313886 10.05568642
   7.73556226 11.22766063 10.05618712
  11.26782950 12.45789498 10.05586797
   9.14986546  1.23568732 10.05784340
   9.85322637 12.45786751 10.05588084
  11.95599978  1.25378802 10.05808197
  11.24457699  2.50427428 10.05786457
   9.05433104  3.72071814 10.05507546
   9.81515827  2.49439537 10.05723374
  11.94947821  3.74853557 10.05788001
  11.21326113  4.98187458 10.05725233
   9.05115257  6.22660649 10.05314259
   9.77192935  4.96850059 10.05529582
  11.94336960  6.22682210 10.05745624
  11.21258604  7.47173742 10.05721329
   9.05301497  8.73256907 10.05623217
   9.77116570  7.48494238 10.05612224
  11.94797429  8.70538641 10.05706244
  11.24318219  9.94967017 10.05637297
   9.14911391 11.21810785 10.05589550
   9.81382702  9.95910369 10.05629523
  11.95489074 11.20015784 10.05605017
   4.99573206  3.67733102 10.05183520
   7.66323647  3.67677471 10.05272047
   4.93974396  6.22728354 10.04755408
   7.71803148  6.22713258 10.04744407
   4.99432783  8.77696136 10.05486677
   7.66161211  8.77651210 10.05538854
   6.32915014  5.10343483 10.04706766
   6.32872240  7.35147592 10.04977678
 


--------------------------------------------------------------------------------------------------------


 k-point  1 :   0.2500 0.2500-0.0000  plane waves:   80666
 k-point  2 :  -0.2500 0.2500 0.0000  plane waves:   80678

 maximum and minimum number of plane-waves per node :      2048     1987

 maximum number of plane-waves:     80678
 maximum index in each direction: 
   IXMAX=   23   IYMAX=   22   IZMAX=   36
   IXMIN=  -23   IYMIN=  -22   IZMIN=  -36


 parallel 3D FFT for wavefunctions:
    minimum data exchange during FFTs selected (reduces bandwidth)
 parallel 3D FFT for charge:
    minimum data exchange during FFTs selected (reduces bandwidth)


 FFT grid for exact exchange (Hartree Fock) 
  NGX = 70; NGY = 70; NGZ =112

 
 Radii for the augmentation spheres in the non-local exchange
 for species   1 augmentation radius   0.874 (default was   0.699)
       energy cutoff for augmentation   2000.0
 for species   2 augmentation radius   0.886 (default was   0.709)
       energy cutoff for augmentation   2000.0
 for species   3 augmentation radius   1.263 (default was   1.010)
       energy cutoff for augmentation   2000.0

 real space projection operators:
  total allocation   :       2440.48 KBytes
  max/ min on nodes  :         79.54         48.52

 Maximum index for augmentation-charges in exchange           76
  SETUP_FOCK is finished

 total amount of memory used by VASP MPI-rank0   138108. kBytes
=======================================================================

   base      :      30000. kBytes
   nonl-proj :       3684. kBytes
   fftplans  :      11851. kBytes
   grid      :      28947. kBytes
   one-center:         62. kBytes
   HF        :         23. kBytes
   nonlr-proj:       1582. kBytes
   wavefun   :      61959. kBytes
 
     INWAV:  cpu time    5.1433: real time    5.1599
 Broyden mixing: mesh for mixing (old mesh)
   NGX = 47   NGY = 45   NGZ = 73
  (NGX  =192   NGY  =192   NGZ  =300)
  gives a total of 154395 points

 charge density for first step will be calculated from the start-wavefunctions


--------------------------------------------------------------------------------------------------------


 Maximum index for augmentation-charges          335 (set IRDMAX)


--------------------------------------------------------------------------------------------------------


 initial charge from wavefunction
 First call to EWALD:  gamma=   0.121
 Maximum number of real-space cells 3x 3x 2
 Maximum number of reciprocal cells 2x 2x 4

    FEWALD:  cpu time    0.0035: real time    0.0035


--------------------------------------- Iteration      1(   1)  ---------------------------------------


    POTLOK:  cpu time    1.1332: real time    1.1428
    SETDIJ:  cpu time    1.2225: real time    1.2265
    TRIAL :  cpu time  207.1260: real time  207.8159
    CORREC:  cpu time    0.0013: real time    0.0013
    CHARGE:  cpu time    1.1981: real time    1.2016
    --------------------------------------------
      LOOP:  cpu time  210.7032: real time  211.4123

 eigenvalue-minimisations  :     0
 total energy-change (2. order) :-0.6094643E+03  (-0.4041990E+00)
 number of electron     246.0000007 magnetization       1.9991830
 augmentation part       14.2694177 magnetization       1.7056200

 DIPCOR: dipole corrections for dipol
 direction  3 min pos     1,
 dipolmoment          -0.000000      0.000000     -0.000140 electrons x Angstroem
 Tr[quadrupol]     -6763.441217

 energy correction for charged system         0.000000 eV
 dipol+quadrupol energy correction            0.000000 eV
 added-field ion interaction          0.000000 eV  (added to PSCEN)


 Free energy of the ion-electron system (eV)
  ---------------------------------------------------
  alpha Z        PSCENC =       102.90370969
  Ewald energy   TEWEN  =     40689.29489702
  -Hartree energ DENC   =    -49325.83866053
  -exchange      EXHF   =       558.19576467
  -V(xc)+E(xc)   XCENC  =       625.84065876
  PAW double counting   =     26733.28920774   -26780.94298637
  entropy T*S    EENTRO =        -0.00036607
  eigenvalues    EBANDS =     -3230.28500056
  atomic energy  EATOM  =     10018.07893457
  ---------------------------------------------------
  free energy    TOTEN  =      -609.46434726 eV

  energy without entropy =     -609.46398120  energy(sigma->0) =     -609.46416423
  exchange ACFDT corr.  =        -0.00069534  see jH, gK, PRB 81, 115126


--------------------------------------------------------------------------------------------------------




--------------------------------------- Iteration      1(   2)  ---------------------------------------


    POTLOK:  cpu time    1.1255: real time    1.1289
    SETDIJ:  cpu time    1.2478: real time    1.2512
    TRIAL :  cpu time  209.0662: real time  209.7512
    CORREC:  cpu time    0.0009: real time    0.0009
    CHARGE:  cpu time    1.1954: real time    1.1988
    --------------------------------------------
      LOOP:  cpu time  212.6386: real time  213.3365

 eigenvalue-minimisations  :     0
 total energy-change (2. order) :-0.3364099E+00  (-0.3497555E+00)
 number of electron     246.0000006 magnetization       1.9999996
 augmentation part       14.2240741 magnetization       1.7866008

 DIPCOR: dipole corrections for dipol
 direction  3 min pos     1,
 dipolmoment          -0.000000      0.000000     -0.000349 electrons x Angstroem
 Tr[quadrupol]     -6763.254499

 energy correction for charged system         0.000000 eV
 dipol+quadrupol energy correction            0.000000 eV
 added-field ion interaction          0.000000 eV  (added to PSCEN)


 Free energy of the ion-electron system (eV)
  ---------------------------------------------------
  alpha Z        PSCENC =       102.90370969
  Ewald energy   TEWEN  =     40689.29489702
  -Hartree energ DENC   =    -49310.86300185
  -exchange      EXHF   =       557.95856970
  -V(xc)+E(xc)   XCENC  =       625.39392807
  PAW double counting   =     26863.60838019   -26910.82545240
  entropy T*S    EENTRO =        -0.00011405
  eigenvalues    EBANDS =     -3245.35035610
  atomic energy  EATOM  =     10018.07893457
  ---------------------------------------------------
  free energy    TOTEN  =      -609.80075717 eV

  energy without entropy =     -609.80064312  energy(sigma->0) =     -609.80070015
  exchange ACFDT corr.  =        -0.00027410  see jH, gK, PRB 81, 115126


--------------------------------------------------------------------------------------------------------




--------------------------------------- Iteration      1(   3)  ---------------------------------------


    POTLOK:  cpu time    1.1400: real time    1.1448
    SETDIJ:  cpu time    1.2331: real time    1.2375
    TRIAL :  cpu time  208.5503: real time  209.2595
    CORREC:  cpu time    0.0008: real time    0.0008
    CHARGE:  cpu time    1.1874: real time    1.1909
    --------------------------------------------
      LOOP:  cpu time  212.1140: real time  212.8400

 eigenvalue-minimisations  :     0
 total energy-change (2. order) :-0.2680490E+00  (-0.1963109E+00)
 number of electron     246.0000006 magnetization       2.0001424
 augmentation part       14.2026784 magnetization       1.8641223

 DIPCOR: dipole corrections for dipol
 direction  3 min pos     1,
 dipolmoment          -0.000000      0.000000     -0.000424 electrons x Angstroem
 Tr[quadrupol]     -6763.060604

 energy correction for charged system         0.000000 eV
 dipol+quadrupol energy correction            0.000000 eV
 added-field ion interaction          0.000000 eV  (added to PSCEN)


 Free energy of the ion-electron system (eV)
  ---------------------------------------------------
  alpha Z        PSCENC =       102.90370969
  Ewald energy   TEWEN  =     40689.29489702
  -Hartree energ DENC   =    -49293.70851829
  -exchange      EXHF   =       557.78121776
  -V(xc)+E(xc)   XCENC  =       624.93432313
  PAW double counting   =     27024.93343094   -27071.46872945
  entropy T*S    EENTRO =        -0.00005416
  eigenvalues    EBANDS =     -3262.81795751
  atomic energy  EATOM  =     10018.07893457
  ---------------------------------------------------
  free energy    TOTEN  =      -610.06880620 eV

  energy without entropy =     -610.06875204  energy(sigma->0) =     -610.06877912
  exchange ACFDT corr.  =        -0.00008223  see jH, gK, PRB 81, 115126


--------------------------------------------------------------------------------------------------------




--------------------------------------- Iteration      1(   4)  ---------------------------------------


    POTLOK:  cpu time    1.1381: real time    1.1439
    SETDIJ:  cpu time    1.2648: real time    1.2681
    TRIAL :  cpu time  208.3300: real time  209.0125
    CORREC:  cpu time    0.0008: real time    0.0008
    CHARGE:  cpu time    1.2129: real time    1.2169
    --------------------------------------------
      LOOP:  cpu time  211.9491: real time  212.6490

 eigenvalue-minimisations  :     0
 total energy-change (2. order) :-0.1526216E+00  (-0.1239519E+00)
 number of electron     246.0000006 magnetization       2.0001636
 augmentation part       14.2087626 magnetization       1.9284878

 DIPCOR: dipole corrections for dipol
 direction  3 min pos     1,
 dipolmoment          -0.000000      0.000000     -0.000321 electrons x Angstroem
 Tr[quadrupol]     -6762.984994

 energy correction for charged system         0.000000 eV
 dipol+quadrupol energy correction            0.000000 eV
 added-field ion interaction          0.000000 eV  (added to PSCEN)


 Free energy of the ion-electron system (eV)
  ---------------------------------------------------
  alpha Z        PSCENC =       102.90370969
  Ewald energy   TEWEN  =     40689.29489702
  -Hartree energ DENC   =    -49285.80220758
  -exchange      EXHF   =       557.84922753
  -V(xc)+E(xc)   XCENC  =       624.74737562
  PAW double counting   =     27164.51736302   -27210.77366270
  entropy T*S    EENTRO =        -0.00004806
  eigenvalues    EBANDS =     -3271.03701076
  atomic energy  EATOM  =     10018.07893457
  ---------------------------------------------------
  free energy    TOTEN  =      -610.22142775 eV

  energy without entropy =     -610.22137969  energy(sigma->0) =     -610.22140372
  exchange ACFDT corr.  =        -0.00004286  see jH, gK, PRB 81, 115126


--------------------------------------------------------------------------------------------------------




--------------------------------------- Iteration      1(   5)  ---------------------------------------


    POTLOK:  cpu time    1.1362: real time    1.1394
    SETDIJ:  cpu time    1.2201: real time    1.2235
    TRIAL :  cpu time  209.2872: real time  209.9773
    CORREC:  cpu time    0.0008: real time    0.0008
    CHARGE:  cpu time    1.1914: real time    1.1949
    --------------------------------------------
      LOOP:  cpu time  212.8375: real time  213.5413

 eigenvalue-minimisations  :     0
 total energy-change (2. order) :-0.1018395E+00  (-0.8688776E-01)
 number of electron     246.0000006 magnetization       2.0002179
 augmentation part       14.2197830 magnetization       1.9812292

 DIPCOR: dipole corrections for dipol
 direction  3 min pos     1,
 dipolmoment          -0.000000      0.000000     -0.000256 electrons x Angstroem
 Tr[quadrupol]     -6763.012303

 energy correction for charged system         0.000000 eV
 dipol+quadrupol energy correction            0.000000 eV
 added-field ion interaction          0.000000 eV  (added to PSCEN)


 Free energy of the ion-electron system (eV)
  ---------------------------------------------------
  alpha Z        PSCENC =       102.90370969
  Ewald energy   TEWEN  =     40689.29489702
  -Hartree energ DENC   =    -49286.82933674
  -exchange      EXHF   =       558.10233596
  -V(xc)+E(xc)   XCENC  =       624.80655081
  PAW double counting   =     27266.39100502   -27312.78053613
  entropy T*S    EENTRO =        -0.00006203
  eigenvalues    EBANDS =     -3270.29077937
  atomic energy  EATOM  =     10018.07893457
  ---------------------------------------------------
  free energy    TOTEN  =      -610.32326722 eV

  energy without entropy =     -610.32320519  energy(sigma->0) =     -610.32323620
  exchange ACFDT corr.  =        -0.00004414  see jH, gK, PRB 81, 115126


--------------------------------------------------------------------------------------------------------




--------------------------------------- Iteration      1(   6)  ---------------------------------------


    POTLOK:  cpu time    1.1381: real time    1.1413
    SETDIJ:  cpu time    1.2198: real time    1.2230
    TRIAL :  cpu time  209.2995: real time  209.9974
    CORREC:  cpu time    0.0009: real time    0.0009
    CHARGE:  cpu time    1.2026: real time    1.2062
    --------------------------------------------
      LOOP:  cpu time  212.8633: real time  213.5752

 eigenvalue-minimisations  :     0
 total energy-change (2. order) :-0.7363561E-01  (-0.6168019E-01)
 number of electron     246.0000006 magnetization       2.0003484
 augmentation part       14.2257150 magnetization       2.0259887

 DIPCOR: dipole corrections for dipol
 direction  3 min pos     1,
 dipolmoment          -0.000000      0.000000     -0.000153 electrons x Angstroem
 Tr[quadrupol]     -6763.069393

 energy correction for charged system         0.000000 eV
 dipol+quadrupol energy correction            0.000000 eV
 added-field ion interaction          0.000000 eV  (added to PSCEN)


 Free energy of the ion-electron system (eV)
  ---------------------------------------------------
  alpha Z        PSCENC =       102.90370969
  Ewald energy   TEWEN  =     40689.29489702
  -Hartree energ DENC   =    -49290.80416482
  -exchange      EXHF   =       558.39432467
  -V(xc)+E(xc)   XCENC  =       624.95598066
  PAW double counting   =     27332.29720245   -27378.86665906
  entropy T*S    EENTRO =        -0.00009570
  eigenvalues    EBANDS =     -3266.65106598
  atomic energy  EATOM  =     10018.07893457
  ---------------------------------------------------
  free energy    TOTEN  =      -610.39690283 eV

  energy without entropy =     -610.39680713  energy(sigma->0) =     -610.39685498
  exchange ACFDT corr.  =        -0.00007983  see jH, gK, PRB 81, 115126


--------------------------------------------------------------------------------------------------------




--------------------------------------- Iteration      1(   7)  ---------------------------------------


    POTLOK:  cpu time    1.1342: real time    1.1407
    SETDIJ:  cpu time    1.2247: real time    1.2280
    TRIAL :  cpu time  208.4700: real time  209.1550
    CORREC:  cpu time    0.0008: real time    0.0008
    CHARGE:  cpu time    1.1877: real time    1.1910
    --------------------------------------------
      LOOP:  cpu time  212.0193: real time  212.7215

 eigenvalue-minimisations  :     0
 total energy-change (2. order) :-0.5387368E-01  (-0.4574494E-01)
 number of electron     246.0000006 magnetization       2.0005098
 augmentation part       14.2287436 magnetization       2.0651061

 DIPCOR: dipole corrections for dipol
 direction  3 min pos     1,
 dipolmoment          -0.000000      0.000000     -0.000102 electrons x Angstroem
 Tr[quadrupol]     -6763.111581

 energy correction for charged system         0.000000 eV
 dipol+quadrupol energy correction            0.000000 eV
 added-field ion interaction          0.000000 eV  (added to PSCEN)


 Free energy of the ion-electron system (eV)
  ---------------------------------------------------
  alpha Z        PSCENC =       102.90370969
  Ewald energy   TEWEN  =     40689.29489702
  -Hartree energ DENC   =    -49294.03281144
  -exchange      EXHF   =       558.63514177
  -V(xc)+E(xc)   XCENC  =       625.09159322
  PAW double counting   =     27371.15091364   -27417.80155650
  entropy T*S    EENTRO =        -0.00013579
  eigenvalues    EBANDS =     -3263.77150278
  atomic energy  EATOM  =     10018.07893457
  ---------------------------------------------------
  free energy    TOTEN  =      -610.45077651 eV

  energy without entropy =     -610.45064072  energy(sigma->0) =     -610.45070862
  exchange ACFDT corr.  =        -0.00016536  see jH, gK, PRB 81, 115126


--------------------------------------------------------------------------------------------------------




--------------------------------------- Iteration      1(   8)  ---------------------------------------


    POTLOK:  cpu time    1.1322: real time    1.1353
    SETDIJ:  cpu time    1.2111: real time    1.2143
    TRIAL :  cpu time  209.4269: real time  210.1230
    CORREC:  cpu time    0.0009: real time    0.0009
    CHARGE:  cpu time    1.1861: real time    1.1897
    --------------------------------------------
      LOOP:  cpu time  212.9590: real time  213.6698

 eigenvalue-minimisations  :     0
 total energy-change (2. order) :-0.4095443E-01  (-0.3597173E-01)
 number of electron     246.0000006 magnetization       2.0006231
 augmentation part       14.2313169 magnetization       2.1000440

 DIPCOR: dipole corrections for dipol
 direction  3 min pos     1,
 dipolmoment          -0.000000      0.000000     -0.000086 electrons x Angstroem
 Tr[quadrupol]     -6763.130437

 energy correction for charged system         0.000000 eV
 dipol+quadrupol energy correction            0.000000 eV
 added-field ion interaction          0.000000 eV  (added to PSCEN)


 Free energy of the ion-electron system (eV)
  ---------------------------------------------------
  alpha Z        PSCENC =       102.90370969
  Ewald energy   TEWEN  =     40689.29489702
  -Hartree energ DENC   =    -49295.78426194
  -exchange      EXHF   =       558.80330450
  -V(xc)+E(xc)   XCENC  =       625.18253606
  PAW double counting   =     27392.68014852   -27439.36094396
  entropy T*S    EENTRO =        -0.00016330
  eigenvalues    EBANDS =     -3262.28991961
  atomic energy  EATOM  =     10018.07893457
  ---------------------------------------------------
  free energy    TOTEN  =      -610.49173094 eV

  energy without entropy =     -610.49156765  energy(sigma->0) =     -610.49164930
  exchange ACFDT corr.  =        -0.00026014  see jH, gK, PRB 81, 115126


--------------------------------------------------------------------------------------------------------




--------------------------------------- Iteration      1(   9)  ---------------------------------------


    POTLOK:  cpu time    1.1298: real time    1.1331
    SETDIJ:  cpu time    1.2111: real time    1.2146
    TRIAL :  cpu time  209.5095: real time  210.1998
    CORREC:  cpu time    0.0008: real time    0.0008
    CHARGE:  cpu time    1.1860: real time    1.1895
    --------------------------------------------
      LOOP:  cpu time  213.0392: real time  213.7439

 eigenvalue-minimisations  :     0
 total energy-change (2. order) :-0.3278626E-01  (-0.2930733E-01)
 number of electron     246.0000006 magnetization       2.0006777
 augmentation part       14.2332662 magnetization       2.1319233

 DIPCOR: dipole corrections for dipol
 direction  3 min pos     1,
 dipolmoment          -0.000000      0.000000     -0.000085 electrons x Angstroem
 Tr[quadrupol]     -6763.133225

 energy correction for charged system         0.000000 eV
 dipol+quadrupol energy correction            0.000000 eV
 added-field ion interaction          0.000000 eV  (added to PSCEN)


 Free energy of the ion-electron system (eV)
  ---------------------------------------------------
  alpha Z        PSCENC =       102.90370969
  Ewald energy   TEWEN  =     40689.29489702
  -Hartree energ DENC   =    -49296.43340113
  -exchange      EXHF   =       558.91255125
  -V(xc)+E(xc)   XCENC  =       625.23487652
  PAW double counting   =     27404.24007015   -27450.94835119
  entropy T*S    EENTRO =        -0.00017642
  eigenvalues    EBANDS =     -3261.80764079
  atomic energy  EATOM  =     10018.07893457
  ---------------------------------------------------
  free energy    TOTEN  =      -610.52451721 eV

  energy without entropy =     -610.52434079  energy(sigma->0) =     -610.52442900
  exchange ACFDT corr.  =        -0.00032452  see jH, gK, PRB 81, 115126


--------------------------------------------------------------------------------------------------------




--------------------------------------- Iteration      1(  10)  ---------------------------------------


    POTLOK:  cpu time    1.1255: real time    1.1308
    SETDIJ:  cpu time    1.2164: real time    1.2197
    TRIAL :  cpu time  209.8696: real time  210.5961
    CORREC:  cpu time    0.0009: real time    0.0009
    CHARGE:  cpu time    1.1875: real time    1.1912
    --------------------------------------------
      LOOP:  cpu time  213.4018: real time  214.1460

 eigenvalue-minimisations  :     0
 total energy-change (2. order) :-0.2720844E-01  (-0.2494641E-01)
 number of electron     246.0000006 magnetization       2.0006974
 augmentation part       14.2343890 magnetization       2.1611893

 DIPCOR: dipole corrections for dipol
 direction  3 min pos     1,
 dipolmoment          -0.000000      0.000000     -0.000091 electrons x Angstroem
 Tr[quadrupol]     -6763.129343

 energy correction for charged system         0.000000 eV
 dipol+quadrupol energy correction            0.000000 eV
 added-field ion interaction          0.000000 eV  (added to PSCEN)


 Free energy of the ion-electron system (eV)
  ---------------------------------------------------
  alpha Z        PSCENC =       102.90370969
  Ewald energy   TEWEN  =     40689.29489702
  -Hartree energ DENC   =    -49296.45958395
  -exchange      EXHF   =       558.98615217
  -V(xc)+E(xc)   XCENC  =       625.26436740
  PAW double counting   =     27410.24153998   -27456.97675230
  entropy T*S    EENTRO =        -0.00018119
  eigenvalues    EBANDS =     -3261.88481381
  atomic energy  EATOM  =     10018.07893457
  ---------------------------------------------------
  free energy    TOTEN  =      -610.55172564 eV

  energy without entropy =     -610.55154446  energy(sigma->0) =     -610.55163505
  exchange ACFDT corr.  =        -0.00035373  see jH, gK, PRB 81, 115126


--------------------------------------------------------------------------------------------------------




--------------------------------------- Iteration      1(  11)  ---------------------------------------


    POTLOK:  cpu time    1.1288: real time    1.1319
    SETDIJ:  cpu time    1.2176: real time    1.2208
    TRIAL :  cpu time  209.4274: real time  210.1600
    CORREC:  cpu time    0.0008: real time    0.0008
    CHARGE:  cpu time    1.1847: real time    1.1886
    --------------------------------------------
      LOOP:  cpu time  212.9614: real time  213.7083

 eigenvalue-minimisations  :     0
 total energy-change (2. order) :-0.2363205E-01  (-0.2253659E-01)
 number of electron     246.0000006 magnetization       2.0006927
 augmentation part       14.2352812 magnetization       2.1878247

 DIPCOR: dipole corrections for dipol
 direction  3 min pos     1,
 dipolmoment          -0.000000      0.000000     -0.000086 electrons x Angstroem
 Tr[quadrupol]     -6763.125655

 energy correction for charged system         0.000000 eV
 dipol+quadrupol energy correction            0.000000 eV
 added-field ion interaction          0.000000 eV  (added to PSCEN)


 Free energy of the ion-electron system (eV)
  ---------------------------------------------------
  alpha Z        PSCENC =       102.90370969
  Ewald energy   TEWEN  =     40689.29489702
  -Hartree energ DENC   =    -49296.29358590
  -exchange      EXHF   =       559.04445227
  -V(xc)+E(xc)   XCENC  =       625.28562519
  PAW double counting   =     27413.37476623   -27460.13143937
  entropy T*S    EENTRO =        -0.00018014
  eigenvalues    EBANDS =     -3262.13253620
  atomic energy  EATOM  =     10018.07893457
  ---------------------------------------------------
  free energy    TOTEN  =      -610.57535770 eV

  energy without entropy =     -610.57517755  energy(sigma->0) =     -610.57526763
  exchange ACFDT corr.  =        -0.00036173  see jH, gK, PRB 81, 115126


--------------------------------------------------------------------------------------------------------




--------------------------------------- Iteration      1(  12)  ---------------------------------------


    POTLOK:  cpu time    1.1230: real time    1.1280
    SETDIJ:  cpu time    1.2287: real time    1.2321
    TRIAL :  cpu time  208.8091: real time  210.3424
    CORREC:  cpu time    0.0008: real time    0.0008
    CHARGE:  cpu time    1.1851: real time    1.1911
    --------------------------------------------
      LOOP:  cpu time  212.3489: real time  213.9017

 eigenvalue-minimisations  :     0
 total energy-change (2. order) :-0.2177951E-01  (-0.2161782E-01)
 number of electron     246.0000006 magnetization       2.0006626
 augmentation part       14.2364154 magnetization       2.2119474

 DIPCOR: dipole corrections for dipol
 direction  3 min pos     1,
 dipolmoment          -0.000000      0.000000     -0.000070 electrons x Angstroem
 Tr[quadrupol]     -6763.124674

 energy correction for charged system         0.000000 eV
 dipol+quadrupol energy correction            0.000000 eV
 added-field ion interaction          0.000000 eV  (added to PSCEN)


 Free energy of the ion-electron system (eV)
  ---------------------------------------------------
  alpha Z        PSCENC =       102.90370969
  Ewald energy   TEWEN  =     40689.29489702
  -Hartree energ DENC   =    -49296.19601797
  -exchange      EXHF   =       559.09871739
  -V(xc)+E(xc)   XCENC  =       625.30666864
  PAW double counting   =     27415.45309958   -27462.23085884
  entropy T*S    EENTRO =        -0.00017300
  eigenvalues    EBANDS =     -3262.30610715
  atomic energy  EATOM  =     10018.07893457
  ---------------------------------------------------
  free energy    TOTEN  =      -610.59713720 eV

  energy without entropy =     -610.59696420  energy(sigma->0) =     -610.59705070
  exchange ACFDT corr.  =        -0.00035410  see jH, gK, PRB 81, 115126


--------------------------------------------------------------------------------------------------------




--------------------------------------- Iteration      1(  13)  ---------------------------------------


    POTLOK:  cpu time    1.1256: real time    1.1291
    SETDIJ:  cpu time    1.2221: real time    1.2254
    TRIAL :  cpu time  209.4206: real time  210.1179
    CORREC:  cpu time    0.0009: real time    0.0009
    CHARGE:  cpu time    1.1983: real time    1.2018
    --------------------------------------------
      LOOP:  cpu time  212.9702: real time  213.6818

 eigenvalue-minimisations  :     0
 total energy-change (2. order) :-0.2129499E-01  (-0.2202334E-01)
 number of electron     246.0000006 magnetization       2.0006073
 augmentation part       14.2377570 magnetization       2.2338544

 DIPCOR: dipole corrections for dipol
 direction  3 min pos     1,
 dipolmoment          -0.000000      0.000000     -0.000050 electrons x Angstroem
 Tr[quadrupol]     -6763.125957

 energy correction for charged system         0.000000 eV
 dipol+quadrupol energy correction            0.000000 eV
 added-field ion interaction          0.000000 eV  (added to PSCEN)


 Free energy of the ion-electron system (eV)
  ---------------------------------------------------
  alpha Z        PSCENC =       102.90370969
  Ewald energy   TEWEN  =     40689.29489702
  -Hartree energ DENC   =    -49296.22458622
  -exchange      EXHF   =       559.15232407
  -V(xc)+E(xc)   XCENC  =       625.32902248
  PAW double counting   =     27417.44456015   -27464.24733193
  entropy T*S    EENTRO =        -0.00015972
  eigenvalues    EBANDS =     -3262.34978903
  atomic energy  EATOM  =     10018.07893457
  ---------------------------------------------------
  free energy    TOTEN  =      -610.61843220 eV

  energy without entropy =     -610.61827248  energy(sigma->0) =     -610.61835234
  exchange ACFDT corr.  =        -0.00032932  see jH, gK, PRB 81, 115126


--------------------------------------------------------------------------------------------------------




--------------------------------------- Iteration      1(  14)  ---------------------------------------


    POTLOK:  cpu time    1.1208: real time    1.1239
    SETDIJ:  cpu time    1.2229: real time    1.2263
    TRIAL :  cpu time  209.1016: real time  209.8030
    CORREC:  cpu time    0.0009: real time    0.0009
    CHARGE:  cpu time    1.1859: real time    1.1893
    --------------------------------------------
      LOOP:  cpu time  212.6345: real time  213.3498

 eigenvalue-minimisations  :     0
 total energy-change (2. order) :-0.2207088E-01  (-0.2374470E-01)
 number of electron     246.0000006 magnetization       2.0005377
 augmentation part       14.2390576 magnetization       2.2538617

 DIPCOR: dipole corrections for dipol
 direction  3 min pos     1,
 dipolmoment          -0.000000      0.000000     -0.000031 electrons x Angstroem
 Tr[quadrupol]     -6763.128316

 energy correction for charged system         0.000000 eV
 dipol+quadrupol energy correction            0.000000 eV
 added-field ion interaction          0.000000 eV  (added to PSCEN)


 Free energy of the ion-electron system (eV)
  ---------------------------------------------------
  alpha Z        PSCENC =       102.90370969
  Ewald energy   TEWEN  =     40689.29489702
  -Hartree energ DENC   =    -49296.32900617
  -exchange      EXHF   =       559.20572300
  -V(xc)+E(xc)   XCENC  =       625.35140069
  PAW double counting   =     27419.71798086   -27466.54785263
  entropy T*S    EENTRO =        -0.00014276
  eigenvalues    EBANDS =     -3262.31613038
  atomic energy  EATOM  =     10018.07893457
  ---------------------------------------------------
  free energy    TOTEN  =      -610.64050308 eV

  energy without entropy =     -610.64036032  energy(sigma->0) =     -610.64043170
  exchange ACFDT corr.  =        -0.00028600  see jH, gK, PRB 81, 115126


--------------------------------------------------------------------------------------------------------




--------------------------------------- Iteration      1(  15)  ---------------------------------------


    POTLOK:  cpu time    1.1182: real time    1.1219
    SETDIJ:  cpu time    1.2320: real time    1.2381
    TRIAL :  cpu time  208.8688: real time  209.5497
    CORREC:  cpu time    0.0008: real time    0.0008
    CHARGE:  cpu time    1.1856: real time    1.1922
    --------------------------------------------
      LOOP:  cpu time  212.4078: real time  213.1097

 eigenvalue-minimisations  :     0
 total energy-change (2. order) :-0.2413569E-01  (-0.2683494E-01)
 number of electron     246.0000006 magnetization       2.0004717
 augmentation part       14.2402363 magnetization       2.2721821

 DIPCOR: dipole corrections for dipol
 direction  3 min pos     1,
 dipolmoment          -0.000000      0.000000     -0.000012 electrons x Angstroem
 Tr[quadrupol]     -6763.131161

 energy correction for charged system         0.000000 eV
 dipol+quadrupol energy correction            0.000000 eV
 added-field ion interaction          0.000000 eV  (added to PSCEN)


 Free energy of the ion-electron system (eV)
  ---------------------------------------------------
  alpha Z        PSCENC =       102.90370969
  Ewald energy   TEWEN  =     40689.29489702
  -Hartree energ DENC   =    -49296.45820658
  -exchange      EXHF   =       559.25975800
  -V(xc)+E(xc)   XCENC  =       625.37283864
  PAW double counting   =     27422.33632757   -27469.19154617
  entropy T*S    EENTRO =        -0.00012630
  eigenvalues    EBANDS =     -3262.26120874
  atomic energy  EATOM  =     10018.07893457
  ---------------------------------------------------
  free energy    TOTEN  =      -610.66463877 eV

  energy without entropy =     -610.66451247  energy(sigma->0) =     -610.66457562
  exchange ACFDT corr.  =        -0.00022877  see jH, gK, PRB 81, 115126


--------------------------------------------------------------------------------------------------------




--------------------------------------- Iteration      1(  16)  ---------------------------------------


    POTLOK:  cpu time    1.1216: real time    1.1249
    SETDIJ:  cpu time    1.2180: real time    1.2213
    TRIAL :  cpu time  208.6197: real time  209.3038
    CORREC:  cpu time    0.0009: real time    0.0009
    CHARGE:  cpu time    1.1855: real time    1.1889
    --------------------------------------------
      LOOP:  cpu time  212.1481: real time  212.8468

 eigenvalue-minimisations  :     0
 total energy-change (2. order) :-0.2754328E-01  (-0.3134519E-01)
 number of electron     246.0000006 magnetization       2.0004241
 augmentation part       14.2414453 magnetization       2.2888866

 DIPCOR: dipole corrections for dipol
 direction  3 min pos     1,
 dipolmoment           0.000000     -0.000000      0.000008 electrons x Angstroem
 Tr[quadrupol]     -6763.134654

 energy correction for charged system         0.000000 eV
 dipol+quadrupol energy correction            0.000000 eV
 added-field ion interaction          0.000000 eV  (added to PSCEN)


 Free energy of the ion-electron system (eV)
  ---------------------------------------------------
  alpha Z        PSCENC =       102.90370969
  Ewald energy   TEWEN  =     40689.29489702
  -Hartree energ DENC   =    -49296.60746027
  -exchange      EXHF   =       559.31654655
  -V(xc)+E(xc)   XCENC  =       625.39372496
  PAW double counting   =     27425.20592524   -27472.08409818
  entropy T*S    EENTRO =        -0.00011402
  eigenvalues    EBANDS =     -3262.19423533
  atomic energy  EATOM  =     10018.07893457
  ---------------------------------------------------
  free energy    TOTEN  =      -610.69218205 eV

  energy without entropy =     -610.69206802  energy(sigma->0) =     -610.69212503
  exchange ACFDT corr.  =        -0.00016877  see jH, gK, PRB 81, 115126


--------------------------------------------------------------------------------------------------------




--------------------------------------- Iteration      1(  17)  ---------------------------------------


    POTLOK:  cpu time    1.1224: real time    1.1255
    SETDIJ:  cpu time    1.1978: real time    1.2010
    TRIAL :  cpu time  208.1329: real time  208.8407
    CORREC:  cpu time    0.0009: real time    0.0009
    CHARGE:  cpu time    1.1902: real time    1.1936
    --------------------------------------------
      LOOP:  cpu time  211.6454: real time  212.3675

 eigenvalue-minimisations  :     0
 total energy-change (2. order) :-0.3231862E-01  (-0.3722449E-01)
 number of electron     246.0000006 magnetization       2.0004009
 augmentation part       14.2427981 magnetization       2.3040040

 DIPCOR: dipole corrections for dipol
 direction  3 min pos     1,
 dipolmoment           0.000000     -0.000000      0.000030 electrons x Angstroem
 Tr[quadrupol]     -6763.139291

 energy correction for charged system         0.000000 eV
 dipol+quadrupol energy correction            0.000000 eV
 added-field ion interaction          0.000000 eV  (added to PSCEN)


 Free energy of the ion-electron system (eV)
  ---------------------------------------------------
  alpha Z        PSCENC =       102.90370969
  Ewald energy   TEWEN  =     40689.29489702
  -Hartree energ DENC   =    -49296.80519949
  -exchange      EXHF   =       559.37880190
  -V(xc)+E(xc)   XCENC  =       625.41520052
  PAW double counting   =     27428.19073475   -27475.09235132
  entropy T*S    EENTRO =        -0.00010774
  eigenvalues    EBANDS =     -3262.08911428
  atomic energy  EATOM  =     10018.07893457
  ---------------------------------------------------
  free energy    TOTEN  =      -610.72450067 eV

  energy without entropy =     -610.72439293  energy(sigma->0) =     -610.72444680
  exchange ACFDT corr.  =        -0.00011965  see jH, gK, PRB 81, 115126


--------------------------------------------------------------------------------------------------------




--------------------------------------- Iteration      1(  18)  ---------------------------------------


    POTLOK:  cpu time    1.1191: real time    1.1221
    SETDIJ:  cpu time    1.1958: real time    1.1990
    TRIAL :  cpu time  208.5953: real time  209.2792
    CORREC:  cpu time    0.0009: real time    0.0009
    CHARGE:  cpu time    1.1836: real time    1.1871
    --------------------------------------------
      LOOP:  cpu time  212.0964: real time  212.7943

 eigenvalue-minimisations  :     0
 total energy-change (2. order) :-0.3835856E-01  (-0.4425678E-01)
 number of electron     246.0000006 magnetization       2.0003979
 augmentation part       14.2442953 magnetization       2.3176307

 DIPCOR: dipole corrections for dipol
 direction  3 min pos     1,
 dipolmoment           0.000000     -0.000000      0.000058 electrons x Angstroem
 Tr[quadrupol]     -6763.145444

 energy correction for charged system         0.000000 eV
 dipol+quadrupol energy correction            0.000000 eV
 added-field ion interaction          0.000000 eV  (added to PSCEN)


 Free energy of the ion-electron system (eV)
  ---------------------------------------------------
  alpha Z        PSCENC =       102.90370969
  Ewald energy   TEWEN  =     40689.29489702
  -Hartree energ DENC   =    -49297.07217060
  -exchange      EXHF   =       559.44883355
  -V(xc)+E(xc)   XCENC  =       625.43814153
  PAW double counting   =     27431.19779476   -27478.12528037
  entropy T*S    EENTRO =        -0.00010668
  eigenvalues    EBANDS =     -3261.92761164
  atomic energy  EATOM  =     10018.07893457
  ---------------------------------------------------
  free energy    TOTEN  =      -610.76285923 eV

  energy without entropy =     -610.76275255  energy(sigma->0) =     -610.76280589
  exchange ACFDT corr.  =        -0.00008898  see jH, gK, PRB 81, 115126


--------------------------------------------------------------------------------------------------------




--------------------------------------- Iteration      1(  19)  ---------------------------------------


    POTLOK:  cpu time    1.1189: real time    1.1243
    SETDIJ:  cpu time    1.2050: real time    1.2081
    TRIAL :  cpu time  208.9979: real time  209.6879
    CORREC:  cpu time    0.0009: real time    0.0009
    CHARGE:  cpu time    1.1842: real time    1.1878
    --------------------------------------------
      LOOP:  cpu time  212.5086: real time  213.2152

 eigenvalue-minimisations  :     0
 total energy-change (2. order) :-0.4536727E-01  (-0.5194382E-01)
 number of electron     246.0000006 magnetization       2.0004065
 augmentation part       14.2459215 magnetization       2.3298499

 DIPCOR: dipole corrections for dipol
 direction  3 min pos     1,
 dipolmoment           0.000000     -0.000000      0.000092 electrons x Angstroem
 Tr[quadrupol]     -6763.153238

 energy correction for charged system         0.000000 eV
 dipol+quadrupol energy correction            0.000000 eV
 added-field ion interaction          0.000000 eV  (added to PSCEN)


 Free energy of the ion-electron system (eV)
  ---------------------------------------------------
  alpha Z        PSCENC =       102.90370969
  Ewald energy   TEWEN  =     40689.29489702
  -Hartree energ DENC   =    -49297.41030950
  -exchange      EXHF   =       559.52814924
  -V(xc)+E(xc)   XCENC  =       625.46287275
  PAW double counting   =     27434.19235047   -27481.14819971
  entropy T*S    EENTRO =        -0.00010874
  eigenvalues    EBANDS =     -3261.71052436
  atomic energy  EATOM  =     10018.07893457
  ---------------------------------------------------
  free energy    TOTEN  =      -610.80822650 eV

  energy without entropy =     -610.80811776  energy(sigma->0) =     -610.80817213
  exchange ACFDT corr.  =        -0.00007435  see jH, gK, PRB 81, 115126


--------------------------------------------------------------------------------------------------------




--------------------------------------- Iteration      1(  20)  ---------------------------------------


    POTLOK:  cpu time    1.1192: real time    1.1226
    SETDIJ:  cpu time    1.2180: real time    1.2216
    TRIAL :  cpu time  208.6015: real time  209.2964
    CORREC:  cpu time    0.0009: real time    0.0009
    CHARGE:  cpu time    1.1905: real time    1.1941
    --------------------------------------------
      LOOP:  cpu time  212.1316: real time  212.8419

 eigenvalue-minimisations  :     0
 total energy-change (2. order) :-0.5275826E-01  (-0.5947228E-01)
 number of electron     246.0000006 magnetization       2.0004208
 augmentation part       14.2476952 magnetization       2.3407138

 DIPCOR: dipole corrections for dipol
 direction  3 min pos     1,
[...]
  Kinetic  3640.93899  3688.61509  4216.68422     0.14600     0.09696    -1.24817
  Fock     -324.18537  -323.65782  -315.75893     0.01081     0.01641     0.95016
  -------------------------------------------------------------------------------------
  Total     -44.27629   -41.26700    -0.42839     0.17798     0.01236     0.05864
  in kB     -22.32960   -20.81194    -0.21604     0.08976     0.00624     0.02957
  external pressure =      -14.45 kB  Pullay stress =        0.00 kB


 VOLUME and BASIS-vectors are now :
 -----------------------------------------------------------------------------
  energy-cutoff  :      500.00
  volume of cell :     3176.88
      direct lattice vectors                 reciprocal lattice vectors
    12.675182157 -0.001026173  0.001908572     0.078894332  0.000005560 -0.000011684
    -0.000878523 12.461888699 -0.001963722     0.000006495  0.080244661  0.000012563
     0.002978889 -0.003148916 20.112347123    -0.000007486  0.000007834  0.049720703

  length of vectors
    12.675182342 12.461888885 20.112347590     0.078894333  0.080244662  0.049720705


 FORCES acting on ions:
    Electron-Ion                     Ewald-Force                    Non-Local-Force
 -----------------------------------------------------------------------------------------------
   0.812E+01 -.604E-01 -.139E+00   -.843E+01 -.254E-01 0.141E+00   0.264E+00 -.877E-02 -.160E-03
   -.353E+00 -.173E+01 -.189E+00   0.273E+00 0.180E+01 0.190E+00   0.150E-01 -.779E-01 -.115E-02
   0.118E+02 -.234E-01 -.407E-01   -.119E+02 0.240E-01 0.398E-01   0.158E+00 -.411E-02 0.176E-02
   0.187E+02 0.645E+01 -.338E+00   -.190E+02 -.659E+01 0.340E+00   0.364E+00 0.215E+00 -.344E-02
   0.190E+02 -.236E+00 -.267E+00   -.194E+02 0.152E+00 0.263E+00   0.334E+00 -.714E-02 -.352E-02
   0.515E+01 -.261E+01 -.314E+00   -.524E+01 0.290E+01 0.314E+00   0.821E-01 -.237E+00 0.681E-04
   0.956E+01 0.883E+00 -.283E+00   -.985E+01 -.633E+00 0.283E+00   0.322E+00 -.242E+00 0.406E-04
   0.483E+02 0.304E+00 0.996E-01   -.517E+02 0.253E+00 -.690E-01   0.360E+01 -.509E+00 -.264E-01
   0.268E+02 0.107E+01 -.399E-01   -.271E+02 -.106E+01 0.386E-01   0.302E+00 -.203E-01 0.138E-01
   0.628E+01 0.247E-01 -.309E+00   -.650E+01 -.454E-01 0.307E+00   0.164E+00 -.490E-02 0.114E-02
   0.962E+01 -.220E+01 -.337E+00   -.973E+01 0.239E+01 0.337E+00   0.905E-01 -.158E+00 -.148E-02
   0.714E+02 -.498E-01 0.217E+00   -.750E+02 0.795E-01 -.134E+00   0.398E+01 0.759E-01 -.935E-01
   0.268E+02 -.839E+00 -.418E+00   -.272E+02 0.912E+00 0.422E+00   0.232E+00 0.963E-01 -.127E-01
   0.509E+01 0.264E+01 -.240E+00   -.520E+01 -.291E+01 0.242E+00   0.105E+00 0.233E+00 -.177E-03
   0.969E+01 0.214E+01 -.393E+00   -.976E+01 -.227E+01 0.388E+00   0.903E-01 0.152E+00 0.205E-02
   0.482E+02 -.447E+00 -.423E+00   -.518E+02 -.119E+00 0.433E+00   0.352E+01 0.461E+00 -.109E-01
   0.190E+02 0.230E+00 -.212E+00   -.195E+02 -.230E+00 0.210E+00   0.347E+00 -.335E-01 0.279E-03
   -.347E+00 0.176E+01 0.177E-02   0.277E+00 -.183E+01 -.128E-02   0.696E-02 0.816E-01 -.842E-04
   0.962E+01 -.909E+00 -.861E-01   -.988E+01 0.608E+00 0.851E-01   0.311E+00 0.253E+00 0.218E-02
   0.186E+02 -.647E+01 -.740E-01   -.189E+02 0.670E+01 0.736E-01   0.357E+00 -.154E+00 0.296E-02
   -.735E+01 0.299E-01 -.508E+00   0.695E+01 -.238E-01 0.510E+00   0.299E+00 0.476E-02 -.336E-02
   0.905E+01 0.139E+02 -.476E+00   -.910E+01 -.145E+02 0.472E+00   0.433E-01 0.528E+00 -.345E-02
   0.736E+01 -.575E-01 -.501E+00   -.697E+01 0.708E-01 0.500E+00   -.301E+00 0.138E-02 0.130E-02
   -.905E+01 0.139E+02 -.535E+00   0.909E+01 -.144E+02 0.542E+00   -.337E-01 0.534E+00 -.590E-02
   -.598E+00 0.420E+02 -.123E+00   -.665E+00 -.447E+02 0.134E+00   0.143E+01 0.287E+01 0.170E-01
   0.640E+00 0.420E+02 -.347E-01   0.622E+00 -.448E+02 0.359E-01   -.143E+01 0.287E+01 -.288E-01
   -.845E+00 -.418E+02 -.447E+00   -.618E+00 0.448E+02 0.448E+00   0.134E+01 -.284E+01 0.560E-02
   0.911E+01 -.139E+02 -.303E+00   -.912E+01 0.144E+02 0.302E+00   0.784E-01 -.591E+00 0.135E-02
   0.846E+00 -.418E+02 -.399E+00   0.617E+00 0.448E+02 0.405E+00   -.133E+01 -.284E+01 -.124E-01
   -.910E+01 -.139E+02 -.320E+00   0.911E+01 0.145E+02 0.322E+00   -.839E-01 -.587E+00 0.588E-03
   -.118E+02 -.307E-01 -.209E-01   0.119E+02 0.303E-01 0.209E-01   -.155E+00 -.391E-03 0.128E-02
   -.186E+02 0.649E+01 -.393E+00   0.189E+02 -.664E+01 0.388E+00   -.355E+00 0.208E+00 0.122E-02
   -.810E+01 -.877E-01 -.131E+00   0.840E+01 0.553E-02 0.131E+00   -.263E+00 -.140E-01 0.647E-03
   0.355E+00 -.169E+01 -.173E+00   -.276E+00 0.177E+01 0.174E+00   -.106E-01 -.736E-01 -.567E-03
   -.956E+01 0.841E+00 -.276E+00   0.986E+01 -.589E+00 0.276E+00   -.327E+00 -.246E+00 -.277E-04
   -.483E+02 0.328E+00 -.701E-01   0.517E+02 0.231E+00 0.470E-01   -.360E+01 -.504E+00 0.165E-01
   -.191E+02 -.209E+00 -.312E+00   0.195E+02 0.125E+00 0.317E+00   -.339E+00 -.249E-02 0.153E-03
   -.514E+01 -.262E+01 -.321E+00   0.524E+01 0.291E+01 0.320E+00   -.956E-01 -.239E+00 0.167E-02
   -.962E+01 -.213E+01 -.363E+00   0.973E+01 0.232E+01 0.364E+00   -.936E-01 -.157E+00 -.379E-02
   -.715E+02 0.133E+00 0.236E-01   0.750E+02 -.104E+00 -.672E-01   -.398E+01 0.907E-01 0.498E-01
   -.268E+02 0.978E+00 -.104E+00   0.271E+02 -.966E+00 0.106E+00   -.307E+00 -.156E-01 -.187E-01
   -.627E+01 -.863E-01 -.324E+00   0.649E+01 0.657E-01 0.322E+00   -.169E+00 -.445E-02 0.311E-02
   -.968E+01 0.227E+01 -.407E+00   0.975E+01 -.240E+01 0.411E+00   -.880E-01 0.154E+00 -.459E-02
   -.482E+02 -.370E+00 -.469E+00   0.518E+02 -.197E+00 0.458E+00   -.351E+01 0.463E+00 0.282E-02
   -.268E+02 -.979E+00 -.445E+00   0.272E+02 0.105E+01 0.447E+00   -.226E+00 0.103E+00 0.212E-02
   -.513E+01 0.260E+01 -.253E+00   0.524E+01 -.288E+01 0.252E+00   -.937E-01 0.233E+00 0.680E-03
   -.963E+01 -.930E+00 -.856E-01   0.989E+01 0.633E+00 0.850E-01   -.307E+00 0.256E+00 0.155E-02
   -.186E+02 -.643E+01 -.763E-01   0.190E+02 0.666E+01 0.747E-01   -.360E+00 -.157E+00 0.435E-02
   -.190E+02 0.180E+00 -.218E+00   0.194E+02 -.179E+00 0.221E+00   -.344E+00 -.290E-01 -.122E-02
   0.348E+00 0.177E+01 0.141E-01   -.279E+00 -.184E+01 -.135E-01   -.382E-02 0.861E-01 0.926E-04
   0.232E+02 -.181E+02 0.106E+01   -.133E+02 0.352E+02 -.943E+00   -.951E+01 -.164E+02 -.953E-01
   -.230E+02 -.182E+02 0.473E+00   0.132E+02 0.353E+02 -.723E+00   0.951E+01 -.164E+02 0.224E+00
   0.689E+02 -.112E+01 0.274E+01   -.572E+02 -.125E+00 -.258E+01   -.119E+02 0.762E+00 -.162E+00
   -.688E+02 -.125E+01 0.252E+01   0.571E+02 0.293E-01 -.291E+01   0.119E+02 0.730E+00 0.386E+00
   0.227E+02 0.185E+02 -.434E+00   -.133E+02 -.353E+02 0.483E+00   -.915E+01 0.157E+02 -.598E-01
   -.228E+02 0.183E+02 -.598E+00   0.134E+02 -.350E+02 0.546E+00   0.915E+01 0.157E+02 0.577E-01
   -.178E-01 0.933E+02 0.388E+01   0.165E-01 -.985E+02 -.386E+01   -.446E-02 0.335E+01 -.115E-01
   0.126E+00 -.933E+02 0.196E+01   -.122E+00 0.981E+02 -.192E+01   -.581E-02 -.216E+01 -.229E-01
 -----------------------------------------------------------------------------------------------
   0.839E-02 -.166E+01 -.241E+00   -.274E-12 -.426E-13 -.222E-14   -.722E-02 0.152E+01 0.216E+00
 
 
 POSITION                                       TOTAL-FORCE (eV/Angst)
 -----------------------------------------------------------------------------------
      2.80294     12.45856     10.05478        -0.041418     -0.095289      0.001581
      0.70214      1.25495     10.05640        -0.073077     -0.013756     -0.000071
      1.38827     12.45895     10.05441         0.069047     -0.003774      0.000939
      3.50805      1.23621     10.05678         0.100490      0.092667     -0.002215
      2.84341      2.49542     10.05594        -0.059802     -0.098593     -0.007538
      0.70950      3.74954     10.05614        -0.010697      0.035063      0.000322
      1.41403      2.50520     10.05633         0.048130     -0.001044     -0.000702
      3.60435      3.72185     10.05386         0.390850      0.019158      0.002915
      2.88646      4.96967     10.05403        -0.030395     -0.002447      0.013129
      0.71442      6.22783     10.05571        -0.044207     -0.025848     -0.000538
      1.44514      4.98300     10.05566        -0.016187      0.026642     -0.001428
      3.60643      6.22809     10.05228         0.715837      0.110691     -0.015624
      2.88549      7.48613     10.05502        -0.127068      0.173274     -0.009693
      0.70795      8.70645     10.05534         0.007786     -0.024081      0.002039
      1.44418      7.47293     10.05567         0.015414      0.029271     -0.002549
      3.60309      8.73367     10.05535         0.139493     -0.079438     -0.002039
      2.84216      9.96021     10.05520        -0.073824     -0.028694     -0.001173
      0.70096     11.20135     10.05437        -0.071287      0.017364      0.000410
      1.41272      9.95090     10.05488         0.061795     -0.037153      0.001295
      3.50713     11.21882     10.05501         0.020215      0.062104      0.002771
      7.03058     12.45769     10.05629        -0.087813      0.011250     -0.002222
      4.92163      1.22628     10.05699        -0.003332     -0.016275     -0.006968
      5.62577     12.45800     10.05601         0.084466      0.014746      0.000693
      7.73628      1.22575     10.05766         0.013948     -0.005926      0.001103
      7.04000      2.45078     10.05514         0.239936      0.252351      0.028359
      5.61836      2.45105     10.05465        -0.241003      0.251778     -0.029146
      7.03889     10.00288     10.05600        -0.054351     -0.011475      0.006428
      4.92078     11.22818     10.05568         0.072329     -0.067577      0.001069
      5.61718     10.00314     10.05569         0.057950     -0.012691     -0.007283
      7.73556     11.22766     10.05619        -0.079570     -0.062188      0.002403
     11.26783     12.45789     10.05587        -0.066516     -0.000799      0.001395
      9.14987      1.23569     10.05784        -0.089746      0.081466     -0.004104
      9.85323     12.45787     10.05588         0.038618     -0.097182      0.000302
     11.95600      1.25379     10.05808         0.076513     -0.006961     -0.000122
     11.24458      2.50427     10.05786        -0.049170     -0.005120     -0.000539
      9.05433      3.72072     10.05508        -0.388869      0.027197     -0.005909
      9.81516      2.49440     10.05723         0.056898     -0.093564      0.005241
     11.94948      3.74854     10.05788        -0.004493      0.032866     -0.000048
     11.21326      4.98187     10.05725         0.015658      0.027362     -0.003324
      9.05115      6.22661     10.05314        -0.709217      0.125948      0.008132
      9.77193      4.96850     10.05530         0.025283     -0.003117     -0.017129
     11.94337      6.22682     10.05746         0.037190     -0.025504      0.000712
     11.21259      7.47174     10.05721        -0.016857      0.027582     -0.000624
      9.05301      8.73257     10.05623        -0.136201     -0.077332     -0.007732
      9.77117      7.48494     10.05612         0.134356      0.176405      0.004095
     11.94797      8.70539     10.05706         0.007061     -0.026984     -0.000710
     11.24318      9.94967     10.05637        -0.060982     -0.030097      0.001098
      9.14911     11.21811     10.05590        -0.019812      0.057211      0.003026
      9.81383      9.95910     10.05630         0.074252     -0.022845      0.000989
     11.95489     11.20016     10.05605         0.074184      0.021940      0.000759
      4.99573      3.67733     10.05184        -0.464646     -0.750903      0.011349
      7.66324      3.67677     10.05272         0.447389     -0.750614     -0.006256
      4.93974      6.22728     10.04755        -1.281618     -0.415862     -0.014668
      7.71803      6.22713     10.04744         1.274230     -0.427641      0.028568
      4.99433      8.77696     10.05487        -0.524359      0.336455     -0.015594
      7.66161      8.77651     10.05539         0.534070      0.335254      0.010690
      6.32915      5.10343     10.04707        -0.006575     -0.278637      0.017333
      6.32872      7.35148     10.04978        -0.000296      1.253369      0.006802
 -----------------------------------------------------------------------------------
    total drift:                                0.000712     -0.001986     -0.000041


--------------------------------------------------------------------------------------------------------



  FREE ENERGIE OF THE ION-ELECTRON SYSTEM (eV)
  ---------------------------------------------------
  free  energy   TOTEN  =      -611.61953052 eV

  energy  without entropy=     -611.61929232  energy(sigma->0) =     -611.61941142
 


--------------------------------------------------------------------------------------------------------


    POTLOK:  cpu time    2.3105: real time    2.3182


--------------------------------------------------------------------------------------------------------


 stress matrix after NEB project (eV)
    -44.27629      0.17798      0.05864
      0.17798    -41.26700      0.01245
      0.05836      0.01236     -0.42839
  FORCES: max atom, RMS     1.347480    0.405678
  FORCE total and by dimension    3.089552    1.281618
  Stress total and by dimension   60.527750   44.276285
 writing wavefunctions
     LOOP+:  cpu time24268.6178: real time24358.5184
 vacuum level on the upper side and lower side of the slab         1.480         1.480
    4ORBIT:  cpu time    0.0000: real time    0.0000
 


 total charge     
 
# of ion       s       p       d       tot
------------------------------------------
    1        0.867   1.788   0.000   2.655
    2        0.864   1.764   0.000   2.629
    3        0.867   1.770   0.000   2.637
    4        0.871   1.780   0.000   2.651
    5        0.864   1.766   0.000   2.630
    6        0.862   1.759   0.000   2.621
    7        0.864   1.758   0.000   2.622
    8        0.853   1.710   0.000   2.562
    9        0.854   1.758   0.000   2.612
   10        0.856   1.741   0.000   2.597
   11        0.859   1.740   0.000   2.599
   12        0.860   1.735   0.000   2.595
   13        0.855   1.757   0.000   2.612
   14        0.862   1.759   0.000   2.622
   15        0.859   1.739   0.000   2.599
   16        0.853   1.709   0.000   2.562
   17        0.864   1.767   0.000   2.631
   18        0.865   1.764   0.000   2.629
   19        0.864   1.757   0.000   2.621
   20        0.871   1.780   0.000   2.651
   21        0.871   1.806   0.000   2.677
   22        0.874   1.803   0.000   2.676
   23        0.871   1.806   0.000   2.677
   24        0.874   1.803   0.000   2.677
   25        0.869   1.772   0.000   2.641
   26        0.869   1.772   0.000   2.641
   27        0.869   1.771   0.000   2.639
   28        0.874   1.803   0.000   2.677
   29        0.869   1.771   0.000   2.639
   30        0.874   1.803   0.000   2.677
   31        0.867   1.770   0.000   2.637
   32        0.871   1.780   0.000   2.651
   33        0.867   1.788   0.000   2.655
   34        0.864   1.764   0.000   2.629
   35        0.864   1.758   0.000   2.622
   36        0.853   1.710   0.000   2.563
   37        0.864   1.766   0.000   2.631
   38        0.862   1.759   0.000   2.621
   39        0.859   1.740   0.000   2.599
   40        0.860   1.735   0.000   2.596
   41        0.854   1.758   0.000   2.612
   42        0.856   1.741   0.000   2.596
   43        0.859   1.739   0.000   2.599
   44        0.853   1.709   0.000   2.562
   45        0.855   1.757   0.000   2.612
   46        0.862   1.760   0.000   2.622
   47        0.864   1.758   0.000   2.622
   48        0.871   1.780   0.000   2.651
   49        0.864   1.767   0.000   2.631
   50        0.865   1.764   0.000   2.629
   51        1.230   2.653   0.000   3.882
   52        1.230   2.653   0.000   3.883
   53        1.255   2.601   0.000   3.857
   54        1.255   2.602   0.000   3.857
   55        1.228   2.662   0.000   3.889
   56        1.227   2.662   0.000   3.889
   57        0.471   0.741   6.490   7.702
   58        0.516   0.754   6.373   7.643
--------------------------------------------------
tot         51.592 105.443  12.863 169.898
 


 magnetization (x)
 
# of ion       s       p       d       tot
------------------------------------------
    1        0.000   0.000   0.000   0.001
    2        0.000  -0.002   0.000  -0.002
    3       -0.000  -0.007   0.000  -0.008
    4       -0.001  -0.019   0.000  -0.021
    5        0.000   0.002   0.000   0.002
    6       -0.000  -0.007   0.000  -0.007
    7       -0.000  -0.006   0.000  -0.006
    8       -0.000  -0.008   0.000  -0.008
    9       -0.001  -0.012   0.000  -0.013
   10        0.000  -0.002   0.000  -0.002
   11       -0.001  -0.011   0.000  -0.011
   12       -0.000  -0.006   0.000  -0.006
   13       -0.001  -0.009   0.000  -0.011
   14       -0.000  -0.010   0.000  -0.010
   15       -0.000  -0.008   0.000  -0.009
   16       -0.000  -0.007   0.000  -0.007
   17       -0.000  -0.003   0.000  -0.003
   18        0.000  -0.001   0.000  -0.001
   19       -0.000  -0.004   0.000  -0.004
   20       -0.001  -0.021   0.000  -0.022
   21       -0.000  -0.002   0.000  -0.002
   22        0.000   0.003   0.000   0.003
   23       -0.000  -0.002   0.000  -0.002
   24        0.000   0.003   0.000   0.003
   25       -0.000  -0.013   0.000  -0.013
   26       -0.000  -0.013   0.000  -0.013
   27       -0.000  -0.015   0.000  -0.016
   28        0.000   0.004   0.000   0.004
   29       -0.000  -0.015   0.000  -0.016
   30        0.000   0.004   0.000   0.004
   31       -0.000  -0.007   0.000  -0.008
   32       -0.001  -0.019   0.000  -0.021
   33        0.000   0.000   0.000   0.001
   34        0.000  -0.002   0.000  -0.002
   35       -0.000  -0.006   0.000  -0.006
   36       -0.000  -0.008   0.000  -0.008
   37        0.000   0.002   0.000   0.002
   38       -0.000  -0.007   0.000  -0.007
   39       -0.001  -0.011   0.000  -0.011
   40       -0.000  -0.006   0.000  -0.006
   41       -0.001  -0.011   0.000  -0.013
   42        0.000  -0.002   0.000  -0.002
   43       -0.000  -0.008   0.000  -0.009
   44       -0.000  -0.007   0.000  -0.007
   45       -0.001  -0.009   0.000  -0.010
   46       -0.000  -0.009   0.000  -0.010
   47       -0.000  -0.004   0.000  -0.005
   48       -0.001  -0.021   0.000  -0.022
   49       -0.000  -0.003   0.000  -0.003
   50        0.000  -0.001   0.000  -0.001
   51       -0.005  -0.041   0.000  -0.046
   52       -0.005  -0.041   0.000  -0.046
   53       -0.010  -0.118   0.000  -0.128
   54       -0.010  -0.118   0.000  -0.127
   55       -0.007  -0.073   0.000  -0.080
   56       -0.007  -0.073   0.000  -0.080
   57        0.032   0.003   1.302   1.337
   58        0.002   0.008   1.806   1.816
--------------------------------------------------
tot         -0.026  -0.779   3.108   2.303
 

 total amount of memory used by VASP MPI-rank0   151473. kBytes
=======================================================================

   base      :      30000. kBytes
   nonl-proj :       3684. kBytes
   fftplans  :      11851. kBytes
   grid      :      28947. kBytes
   one-center:         62. kBytes
   HF        :         23. kBytes
   nonlr-proj:      14947. kBytes
   wavefun   :      61959. kBytes
 
  
  
 General timing and accounting informations for this job:
 ========================================================
  
                  Total CPU time used (sec):    24332.129
                            User time (sec):    24250.054
                          System time (sec):       82.074
                         Elapsed time (sec):    24428.994
  
                   Maximum memory used (kb):      390476.
                   Average memory used (kb):           0.
  
                          Minor page faults:      1971317
                          Major page faults:            1
                 Voluntary context switches:       289124
