 vasp.5.4.4.18Apr17-6-g9f103f2a35 (build Feb 25 2019 10:51:38) complex          
  
 executed on             LinuxIFC date 2021.08.09  05:23:23
 running on   32 total cores
 distrk:  each k-point on   32 cores,    1 groups
 distr:  one band on NCORES_PER_BAND=  32 cores,    1 groups


--------------------------------------------------------------------------------------------------------


 INCAR:
 POTCAR:    PAW_PBE C 08Apr2002                   
 POTCAR:    PAW_PBE N 08Apr2002                   
 POTCAR:    PAW_PBE Ni 02Aug2007                  
 POTCAR:    PAW_PBE Fe 06Sep2000                  

 ----------------------------------------------------------------------------- 
|                                                                             |
|           W    W    AA    RRRRR   N    N  II  N    N   GGGG   !!!           |
|           W    W   A  A   R    R  NN   N  II  NN   N  G    G  !!!           |
|           W    W  A    A  R    R  N N  N  II  N N  N  G       !!!           |
|           W WW W  AAAAAA  RRRRR   N  N N  II  N  N N  G  GGG   !            |
|           WW  WW  A    A  R   R   N   NN  II  N   NN  G    G                |
|           W    W  A    A  R    R  N    N  II  N    N   GGGG   !!!           |
|                                                                             |
|      For optimal performance we recommend to set                            |
|        NCORE= 4 - approx SQRT( number of cores)                             |
|      NCORE specifies how many cores store one orbital (NPAR=cpu/NCORE).     |
|      This setting can  greatly improve the performance of VASP for DFT.     |
|      The default,   NCORE=1            might be grossly inefficient         |
|      on modern multi-core architectures or massively parallel machines.     |
|      Do your own testing !!!!                                               |
|      Unfortunately you need to use the default for GW and RPA calculations. |
|      (for HF NCORE is supported but not extensively tested yet)             |
|                                                                             |
 ----------------------------------------------------------------------------- 

 POTCAR:    PAW_PBE C 08Apr2002                   
   VRHFIN =C: s2p2                                                              
   LEXCH  = PE                                                                  
   EATOM  =   147.1560 eV,   10.8157 Ry                                         
                                                                                
   TITEL  = PAW_PBE C 08Apr2002                                                 
   LULTRA =        F    use ultrasoft PP ?                                      
   IUNSCR =        1    unscreen: 0-lin 1-nonlin 2-no                           
   RPACOR =    1.200    partial core radius                                     
   POMASS =   12.011; ZVAL   =    4.000    mass and valenz                      
   RCORE  =    1.500    outmost cutoff radius                                   
   RWIGS  =    1.630; RWIGS  =    0.863    wigner-seitz radius (au A)           
   ENMAX  =  400.000; ENMIN  =  300.000 eV                                      
   ICORE  =        2    local potential                                         
   LCOR   =        T    correct aug charges                                     
   LPAW   =        T    paw PP                                                  
   EAUG   =  644.873                                                            
   DEXC   =    0.000                                                            
   RMAX   =    1.529    core radius for proj-oper                               
   RAUG   =    1.300    factor for augmentation sphere                          
   RDEP   =    1.501    radius for radial grids                                 
   RDEPT  =    1.300    core radius for aug-charge                              
                                                                                
   Atomic configuration                                                         
    4 entries                                                                   
     n  l   j            E        occ.                                          
     1  0  0.50      -273.3789   2.0000                                         
     2  0  0.50       -13.7508   2.0000                                         
     2  1  0.50        -5.2854   2.0000                                         
     3  2  1.50        -5.4423   0.0000                                         
   Description                                                                  
     l       E           TYP  RCUT    TYP  RCUT                                 
     0    -13.7508458     23  1.200                                             
     0     -8.2022199     23  1.200                                             
     1     -5.2854383     23  1.500                                             
     1     34.0145650     23  1.500                                             
     2     -5.4423304      7  1.500                                             
  local pseudopotential read in
  partial core-charges read in
  partial kinetic energy density read in
  atomic valenz-charges read in
  non local Contribution for L=           0  read in
    real space projection operators read in
  non local Contribution for L=           0  read in
    real space projection operators read in
  non local Contribution for L=           1  read in
    real space projection operators read in
  non local Contribution for L=           1  read in
    real space projection operators read in
    PAW grid and wavefunctions read in
 
   number of l-projection  operators is LMAX  =           4
   number of lm-projection operators is LMMAX =           8
 
 POTCAR:    PAW_PBE N 08Apr2002                   
   VRHFIN =N: s2p3                                                              
   LEXCH  = PE                                                                  
   EATOM  =   264.5486 eV,   19.4438 Ry                                         
                                                                                
   TITEL  = PAW_PBE N 08Apr2002                                                 
   LULTRA =        F    use ultrasoft PP ?                                      
   IUNSCR =        1    unscreen: 0-lin 1-nonlin 2-no                           
   RPACOR =    1.200    partial core radius                                     
   POMASS =   14.001; ZVAL   =    5.000    mass and valenz                      
   RCORE  =    1.500    outmost cutoff radius                                   
   RWIGS  =    1.400; RWIGS  =    0.741    wigner-seitz radius (au A)           
   ENMAX  =  400.000; ENMIN  =  300.000 eV                                      
   ICORE  =        2    local potential                                         
   LCOR   =        T    correct aug charges                                     
   LPAW   =        T    paw PP                                                  
   EAUG   =  627.112                                                            
   DEXC   =    0.000                                                            
   RMAX   =    1.529    core radius for proj-oper                               
   RAUG   =    1.300    factor for augmentation sphere                          
   RDEP   =    1.514    radius for radial grids                                 
   RDEPT  =    1.338    core radius for aug-charge                              
                                                                                
   Atomic configuration                                                         
    4 entries                                                                   
     n  l   j            E        occ.                                          
     1  0  0.50      -384.7179   2.0000                                         
     2  0  0.50       -18.5828   2.0000                                         
     2  1  0.50        -7.0898   3.0000                                         
     3  2  1.50        -6.8029   0.0000                                         
   Description                                                                  
     l       E           TYP  RCUT    TYP  RCUT                                 
     0    -18.5828119     23  1.200                                             
     0    -13.5018863     23  1.200                                             
     1     -7.0897853     23  1.500                                             
     1      9.5240782     23  1.500                                             
     2     -6.8029130      7  1.500                                             
  local pseudopotential read in
  partial core-charges read in
  partial kinetic energy density read in
  atomic valenz-charges read in
  non local Contribution for L=           0  read in
    real space projection operators read in
  non local Contribution for L=           0  read in
    real space projection operators read in
  non local Contribution for L=           1  read in
    real space projection operators read in
  non local Contribution for L=           1  read in
    real space projection operators read in
    PAW grid and wavefunctions read in
 
   number of l-projection  operators is LMAX  =           4
   number of lm-projection operators is LMMAX =           8
 
 POTCAR:    PAW_PBE Ni 02Aug2007                  
   VRHFIN =Ni:                                                                  
   LEXCH  = PE                                                                  
   EATOM  =  1077.6739 eV,   79.2068 Ry                                         
                                                                                
   TITEL  = PAW_PBE Ni 02Aug2007                                                
   LULTRA =        F    use ultrasoft PP ?                                      
   IUNSCR =        1    unscreen: 0-lin 1-nonlin 2-no                           
   RPACOR =    2.000    partial core radius                                     
   POMASS =   58.690; ZVAL   =   10.000    mass and valenz                      
   RCORE  =    2.300    outmost cutoff radius                                   
   RWIGS  =    2.430; RWIGS  =    1.286    wigner-seitz radius (au A)           
   ENMAX  =  269.532; ENMIN  =  202.149 eV                                      
   RCLOC  =    1.201    cutoff for local pot                                    
   LCOR   =        T    correct aug charges                                     
   LPAW   =        T    paw PP                                                  
   EAUG   =  544.565                                                            
   DEXC   =    0.000                                                            
   RMAX   =    2.357    core radius for proj-oper                               
   RAUG   =    1.300    factor for augmentation sphere                          
   RDEP   =    2.390    radius for radial grids                                 
   RDEPT  =    1.838    core radius for aug-charge                              
                                                                                
   Atomic configuration                                                         
    9 entries                                                                   
     n  l   j            E        occ.                                          
     1  0  0.50     -8206.4253   2.0000                                         
     2  0  0.50      -976.1748   2.0000                                         
     2  1  1.50      -839.0571   6.0000                                         
     3  0  0.50      -105.9991   2.0000                                         
     3  1  1.50       -66.4603   6.0000                                         
     3  2  2.50        -4.6458   9.0000                                         
     4  0  0.50        -4.4926   1.0000                                         
     4  1  1.50        -4.0817   0.0000                                         
     4  3  2.50        -1.3606   0.0000                                         
   Description                                                                  
     l       E           TYP  RCUT    TYP  RCUT                                 
     2     -4.6457903     23  2.300                                             
     2     -6.0063729     23  2.300                                             
     0     -4.4925590     23  2.300                                             
     0      5.0102601     23  2.300                                             
     1     -2.7211652     23  2.300                                             
     1     16.5183231     23  2.300                                             
  local pseudopotential read in
  partial core-charges read in
  partial kinetic energy density read in
  atomic valenz-charges read in
  non local Contribution for L=           2  read in
    real space projection operators read in
  non local Contribution for L=           2  read in
    real space projection operators read in
  non local Contribution for L=           0  read in
    real space projection operators read in
  non local Contribution for L=           0  read in
    real space projection operators read in
  non local Contribution for L=           1  read in
    real space projection operators read in
  non local Contribution for L=           1  read in
    real space projection operators read in
    PAW grid and wavefunctions read in
 
   number of l-projection  operators is LMAX  =           6
   number of lm-projection operators is LMMAX =          18
 
 POTCAR:    PAW_PBE Fe 06Sep2000                  
   VRHFIN =Fe:  d7 s1                                                           
   LEXCH  = PE                                                                  
   EATOM  =   594.3153 eV,   43.6809 Ry                                         
                                                                                
   TITEL  = PAW_PBE Fe 06Sep2000                                                
   LULTRA =        F    use ultrasoft PP ?                                      
   IUNSCR =        1    unscreen: 0-lin 1-nonlin 2-no                           
   RPACOR =    2.000    partial core radius                                     
   POMASS =   55.847; ZVAL   =    8.000    mass and valenz                      
   RCORE  =    2.300    outmost cutoff radius                                   
   RWIGS  =    2.460; RWIGS  =    1.302    wigner-seitz radius (au A)           
   ENMAX  =  267.882; ENMIN  =  200.911 eV                                      
   RCLOC  =    1.701    cutoff for local pot                                    
   LCOR   =        T    correct aug charges                                     
   LPAW   =        T    paw PP                                                  
   EAUG   =  511.368                                                            
   DEXC   =    0.000                                                            
   RMAX   =    2.356    core radius for proj-oper                               
   RAUG   =    1.300    factor for augmentation sphere                          
   RDEP   =    2.442    radius for radial grids                                 
   RDEPT  =    1.890    core radius for aug-charge                              
                                                                                
   Atomic configuration                                                         
    9 entries                                                                   
     n  l   j            E        occ.                                          
     1  0  0.50     -6993.8440   2.0000                                         
     2  0  0.50      -814.6047   2.0000                                         
     2  1  1.50      -693.3689   6.0000                                         
     3  0  0.50       -89.4732   2.0000                                         
     3  1  1.50       -55.6373   6.0000                                         
     3  2  2.50        -3.8151   7.0000                                         
     4  0  0.50        -4.2551   1.0000                                         
     4  1  1.50        -3.4015   0.0000                                         
     4  3  2.50        -1.3606   0.0000                                         
   Description                                                                  
     l       E           TYP  RCUT    TYP  RCUT                                 
     2     -3.8151135     23  2.300                                             
     2     -5.1756961     23  2.300                                             
     0     -4.2550963     23  2.300                                             
     0      7.2035603     23  2.300                                             
     1     -2.7211652     23  2.300                                             
     1     18.4316424     23  2.300                                             
  local pseudopotential read in
  partial core-charges read in
  partial kinetic energy density read in
  atomic valenz-charges read in
  non local Contribution for L=           2  read in
    real space projection operators read in
  non local Contribution for L=           2  read in
    real space projection operators read in
  non local Contribution for L=           0  read in
    real space projection operators read in
  non local Contribution for L=           0  read in
    real space projection operators read in
  non local Contribution for L=           1  read in
    real space projection operators read in
  non local Contribution for L=           1  read in
    real space projection operators read in
    PAW grid and wavefunctions read in
 
   number of l-projection  operators is LMAX  =           6
   number of lm-projection operators is LMMAX =          18
 

 ----------------------------------------------------------------------------- 
|                                                                             |
|  ADVICE TO THIS USER RUNNING 'VASP/VAMP'   (HEAR YOUR MASTER'S VOICE ...):  |
|                                                                             |
|      You have a (more or less) 'large supercell' and for larger cells       |
|      it might be more efficient to use real space projection opertators     |
|      So try LREAL= Auto  in the INCAR   file.                               |
|      Mind:          For very  accurate calculation you might also keep the  |
|      reciprocal projection scheme          (i.e. LREAL=.FALSE.)             |
|                                                                             |
 ----------------------------------------------------------------------------- 

  PAW_PBE C 08Apr2002                   :
 energy of atom  1       EATOM= -147.1560
 kinetic energy error for atom=    0.0076 (will be added to EATOM!!)
  PAW_PBE N 08Apr2002                   :
 energy of atom  2       EATOM= -264.5486
 kinetic energy error for atom=    0.0138 (will be added to EATOM!!)
  PAW_PBE Ni 02Aug2007                  :
 energy of atom  3       EATOM=-1077.6739
 kinetic energy error for atom=    0.0030 (will be added to EATOM!!)
  PAW_PBE Fe 06Sep2000                  :
 energy of atom  4       EATOM= -594.3153
 kinetic energy error for atom=    0.0026 (will be added to EATOM!!)
 
 
 POSCAR:  C  N Ni Fe                             
  positions in cartesian coordinates
  No initial velocities read in
 exchange correlation table for  LEXCH =        8
   RHO(1)=    0.500       N(1)  =     2000
   RHO(2)=  100.500       N(2)  =     4000

 VTST: version 3.2, (02/03/18)

 CHAIN: initializing optimizer
 
 OPT: Using VASP Conjugate-Gradient optimizer
 CHAIN: Read ICHAIN            0
 
 POSCAR:  C  N Ni Fe                             
  positions in cartesian coordinates
  No initial velocities read in
 


--------------------------------------------------------------------------------------------------------


 ion  position               nearest neighbor table
   1  0.227  0.003  0.500-  18 1.44   4 1.46   3 1.46
   2  0.057  0.100  0.500-   7 1.43   3 1.43  33 1.45
   3  0.114  0.001  0.500-   2 1.43  16 1.43   1 1.46
   4  0.282  0.106  0.500-   5 1.46   1 1.46  20 1.46
   5  0.222  0.205  0.500-  53 1.37   7 1.45   4 1.46
   6  0.051  0.299  0.500-  10 1.41  37 1.43   7 1.43
   7  0.111  0.201  0.500-   2 1.43   6 1.43   5 1.45
   8  0.210  0.397  0.500-  53 1.36  10 1.40  11 1.42
   9  0.049  0.500  0.500-  41 1.41  14 1.42  10 1.42
  10  0.103  0.399  0.500-   8 1.40   6 1.41   9 1.42
  11  0.265  0.497  0.499-  55 1.33   8 1.42  12 1.43
  12  0.212  0.599  0.500-  14 1.41  50 1.42  11 1.43
  13  0.053  0.701  0.500-  14 1.41  45 1.43  17 1.44
  14  0.104  0.600  0.500-  12 1.41  13 1.41   9 1.42
  15  0.223  0.798  0.500-  50 1.43  17 1.45  18 1.46
  16  0.058  0.901  0.500-  17 1.43   3 1.43  49 1.45
  17  0.112  0.800  0.500-  16 1.43  13 1.44  15 1.45
  18  0.280  0.900  0.500-   1 1.44  28 1.46  15 1.46
  19  0.557  0.999  0.500-  22 1.42  29 1.43  21 1.44
  20  0.395  0.106  0.500-  54 1.40  21 1.46   4 1.46
  21  0.447  0.001  0.500-  19 1.44  28 1.45  20 1.46
  22  0.614  0.099  0.500-  23 1.41  19 1.42  31 1.44
  23  0.558  0.197  0.500-  54 1.37  22 1.41  24 1.45
  24  0.612  0.301  0.500-  51 1.42  35 1.43  23 1.45
  25  0.609  0.501  0.500-  56 1.40  51 1.45  39 1.45
  26  0.616  0.698  0.500-  56 1.37  43 1.42  27 1.46
  27  0.558  0.800  0.500-  52 1.42  29 1.42  26 1.46
  28  0.392  0.898  0.500-  52 1.44  21 1.45  18 1.46
  29  0.614  0.900  0.500-  27 1.42  19 1.43  47 1.44
  30  0.891  1.000  0.500-  33 1.42  49 1.42  32 1.44
  31  0.724  0.099  0.500-  36 1.42  32 1.42  22 1.44
  32  0.780  1.000  0.500-  47 1.42  31 1.42  30 1.44
  33  0.946  0.100  0.500-  30 1.42  34 1.43   2 1.45
  34  0.888  0.199  0.500-  37 1.41  36 1.43  33 1.43
  35  0.722  0.299  0.500-  40 1.42  36 1.43  24 1.43
  36  0.778  0.199  0.500-  31 1.42  35 1.43  34 1.43
  37  0.941  0.299  0.500-  34 1.41   6 1.43  38 1.43
  38  0.886  0.399  0.500-  41 1.42  37 1.43  40 1.43
  39  0.720  0.500  0.500-  40 1.43  44 1.43  25 1.45
  40  0.776  0.400  0.500-  35 1.42  39 1.43  38 1.43
  41  0.941  0.500  0.500-   9 1.41  42 1.42  38 1.42
  42  0.887  0.600  0.500-  41 1.42  44 1.43  45 1.43
  43  0.725  0.700  0.500-  44 1.42  26 1.42  48 1.43
  44  0.777  0.599  0.500-  43 1.42  42 1.43  39 1.43
  45  0.943  0.701  0.500-  46 1.42  13 1.43  42 1.43
  46  0.889  0.801  0.500-  45 1.42  48 1.43  49 1.43
  47  0.724  0.900  0.500-  48 1.42  32 1.42  29 1.44
  48  0.780  0.801  0.500-  47 1.42  43 1.43  46 1.43
  49  0.947  0.901  0.500-  30 1.42  46 1.43  16 1.45
  50  0.273  0.695  0.500-  12 1.42  15 1.43  58 1.92
  51  0.553  0.398  0.499-  24 1.42  25 1.45  57 1.91
  52  0.449  0.799  0.500-  27 1.42  28 1.44  58 1.94
  53  0.269  0.305  0.499-   8 1.36   5 1.37  57 1.96
  54  0.453  0.201  0.499-  23 1.37  20 1.40  57 1.94
  55  0.368  0.495  0.499-  11 1.33  57 1.84  58 1.94
  56  0.561  0.603  0.499-  26 1.37  25 1.40  58 2.01
  57  0.413  0.353  0.499-  55 1.84  51 1.91  54 1.94  53 1.96
  58  0.413  0.646  0.499-  50 1.92  55 1.94  52 1.94  56 2.01
 
  LATTYP: Found a triclinic cell.
 ALAT       =    13.0179540525
 B/A-ratio  =     1.8234317464
 C/A-ratio  =     0.9445643999
 COS(alpha) =     0.0006757244
 COS(beta)  =     0.0013674243
 COS(gamma) =     0.5485924201
  
  Lattice vectors:
  
 A1 = (  13.0179465013,  -0.0140215187,  -0.0000043504)
 A2 = (  13.0221311007,  -0.0127655424,  19.8465552818)
 A3 = (   0.0035700286, -12.2962954354,  -0.0003137477)


Analysis of symmetry for initial positions (statically):
=====================================================================
 Subroutine PRICEL returns:
 Original cell was already a primitive cell.
 

 Routine SETGRP: Setting up the symmetry group for a 
 triclinic supercell.


 Subroutine GETGRP returns: Found  1 space group operations
 (whereof  1 operations were pure point group operations)
 out of a pool of  2 trial point group operations.


The static configuration has the point symmetry C_1 .


Analysis of symmetry for dynamics (positions and initial velocities):
=====================================================================
 Subroutine PRICEL returns:
 Original cell was already a primitive cell.
 

 Routine SETGRP: Setting up the symmetry group for a 
 triclinic supercell.


 Subroutine GETGRP returns: Found  1 space group operations
 (whereof  1 operations were pure point group operations)
 out of a pool of  2 trial point group operations.


The dynamic configuration has the point symmetry C_1 .


Analysis of structural, dynamic, and magnetic symmetry:
=====================================================================
 Subroutine PRICEL returns:
 Original cell was already a primitive cell.
 

 Routine SETGRP: Setting up the symmetry group for a 
 triclinic supercell.


 Subroutine GETGRP returns: Found  1 space group operations
 (whereof  1 operations were pure point group operations)
 out of a pool of  2 trial point group operations.


The magnetic configuration has the point symmetry C_1 .


 Subroutine INISYM returns: Found  1 space group operations
 (whereof  1 operations are pure point group operations),
 and found     1 'primitive' translations

 
 
 KPOINTS: KPOINTS created by Atomic Simulation Env

Automatic generation of k-mesh.
Space group operators:
 irot       det(A)        alpha          n_x          n_y          n_z        tau_x        tau_y        tau_z
    1     1.000000     0.000000     1.000000     0.000000     0.000000     0.000000     0.000000     0.000000
 
 Subroutine IBZKPT returns following result:
 ===========================================
 
 Found      2 irreducible k-points:
 
 Following reciprocal coordinates:
            Coordinates               Weight
  0.250000  0.250000  0.000000      2.000000
 -0.250000  0.250000  0.000000      2.000000
 
 Following cartesian coordinates:
            Coordinates               Weight
  0.019226  0.020337 -0.000005      2.000000
 -0.019182  0.020326  0.000003      2.000000
 
 
 Subroutine IBZKPT_HF returns following result:
 ==============================================
 
 Found      4 k-points in 1st BZ
 the following      4 k-points will be used (e.g. in the exchange kernel)
 Following reciprocal coordinates:   # in IRBZ
  0.250000  0.250000  0.000000    0.25000000   1 t-inv F
 -0.250000  0.250000  0.000000    0.25000000   2 t-inv F
 -0.250000 -0.250000  0.000000    0.25000000   1 t-inv T
  0.250000 -0.250000  0.000000    0.25000000   2 t-inv T


--------------------------------------------------------------------------------------------------------




 Dimension of arrays:
   k-points           NKPTS =      2   k-points in BZ     NKDIM =      4   number of bands    NBANDS=    157
   number of dos      NEDOS =    301   number of ions     NIONS =     58
   non local maximal  LDIM  =      6   non local SUM 2l+1 LMDIM =     18
   total plane-waves  NPLWV = ******
   max r-space proj   IRMAX =      1   max aug-charges    IRDMAX=  14730
   dimension x,y,z NGX =    96 NGY =   90 NGZ =  150
   dimension x,y,z NGXF=   192 NGYF=  180 NGZF=  300
   support grid    NGXF=   192 NGYF=  180 NGZF=  300
   ions per type =              52   4   1   1
   NGX,Y,Z   is equivalent  to a cutoff of  12.26, 12.17, 12.56 a.u.
   NGXF,Y,Z  is equivalent  to a cutoff of  24.52, 24.34, 25.13 a.u.

 SYSTEM =  unknown system                          
 POSCAR =   C  N Ni Fe                             

 Startparameter for this run:
   NWRITE =      2    write-flag & timer
   PREC   = accura    normal or accurate (medium, high low for compatibility)
   ISTART =      1    job   : 0-new  1-cont  2-samecut
   ICHARG =      0    charge: 1-file 2-atom 10-const
   ISPIN  =      2    spin polarized calculation?
   LNONCOLLINEAR =      F non collinear calculations
   LSORBIT =      F    spin-orbit coupling
   INIWAV =      1    electr: 0-lowe 1-rand  2-diag
   LASPH  =      T    aspherical Exc in radial PAW
   METAGGA=      F    non-selfconsistent MetaGGA calc.

 Electronic Relaxation 1
   ENCUT  =  500.0 eV  36.75 Ry    6.06 a.u.  23.73 22.42 36.18*2*pi/ulx,y,z
   ENINI  =  500.0     initial cutoff
   ENAUG  =  644.9 eV  augmentation charge cutoff
   NELM   =    250;   NELMIN=  2; NELMDL=  0     # of ELM steps 
   EDIFF  = 0.1E-03   stopping-criterion for ELM
   LREAL  =      F    real-space projection
   NLSPLINE    = F    spline interpolate recip. space projectors
   LCOMPAT=      F    compatible to vasp.4.4
   GGA_COMPAT  = T    GGA compatible to vasp.4.4-vasp.4.6
   LMAXPAW     = -100 max onsite density
   LMAXMIX     =    2 max onsite mixed and CHGCAR
   VOSKOWN=      0    Vosko Wilk Nusair interpolation
   ROPT   =    0.00000   0.00000   0.00000   0.00000
 Ionic relaxation
   EDIFFG = -.3E-01   stopping-criterion for IOM
   NSW    =      0    number of steps for IOM
   NBLOCK =      1;   KBLOCK =      1    inner block; outer block 
   IBRION =     -1    ionic relax: 0-MD 1-quasi-New 2-CG
   NFREE  =      1    steps in history (QN), initial steepest desc. (CG)
   ISIF   =      2    stress and relaxation
   IWAVPR =     10    prediction:  0-non 1-charg 2-wave 3-comb
   ISYM   =      3    0-nonsym 1-usesym 2-fastsym
   LCORR  =      T    Harris-Foulkes like correction to forces

   POTIM  = 0.5000    time-step for ionic-motion
   TEIN   =    0.0    initial temperature
   TEBEG  =    0.0;   TEEND  =   0.0 temperature during run
   SMASS  =  -3.00    Nose mass-parameter (am)
   estimated Nose-frequenzy (Omega)   =  0.10E-29 period in steps =****** mass=  -0.387E-26a.u.
   SCALEE = 1.0000    scale energy and forces
   NPACO  =    256;   APACO  = 16.0  distance and # of slots for P.C.
   PSTRESS=    0.0 pullay stress

  Mass of Ions in am
   POMASS =  12.01 14.00 58.69 55.85
  Ionic Valenz
   ZVAL   =   4.00  5.00 10.00  8.00
  Atomic Wigner-Seitz radii
   RWIGS  =  -1.00 -1.00 -1.00 -1.00
  virtual crystal weights 
   VCA    =   1.00  1.00  1.00  1.00
   NELECT =     246.0000    total number of electrons
   NUPDOWN=      -1.0000    fix difference up-down

 DOS related values:
   EMIN   =  10.00;   EMAX   =-10.00  energy-range for DOS
   EFERMI =   0.00
   ISMEAR =     0;   SIGMA  =   0.10  broadening in eV -4-tet -1-fermi 0-gaus

 Electronic relaxation 2 (details)
   IALGO  =     53    algorithm
   LDIAG  =      T    sub-space diagonalisation (order eigenvalues)
   LSUBROT=      F    optimize rotation matrix (better conditioning)
   TURBO    =      0    0=normal 1=particle mesh
   IRESTART =      0    0=no restart 2=restart with 2 vectors
   NREBOOT  =      0    no. of reboots
   NMIN     =      0    reboot dimension
   EREF     =   0.00    reference energy to select bands
   IMIX   =      4    mixing-type and parameters
     AMIX     =   0.40;   BMIX     =  1.00
     AMIX_MAG =   1.60;   BMIX_MAG =  1.00
     AMIN     =   0.10
     WC   =   100.;   INIMIX=   1;  MIXPRE=   1;  MAXMIX= -45

 Intra band minimization:
   WEIMIN = 0.0000     energy-eigenvalue tresh-hold
   EBREAK =  0.16E-06  absolut break condition
   DEPER  =   0.30     relativ break condition  

   TIME   =   0.20     timestep for ELM

  volume/ion in A,a.u.               =      54.77       369.63
  Fermi-wavevector in a.u.,A,eV,Ry     =   0.697781  1.318615  6.624657  0.486899
  Thomas-Fermi vector in A             =   1.781203
 
 Write flags
   LWAVE        =      T    write WAVECAR
   LDOWNSAMPLE  =      F    k-point downsampling of WAVECAR
   LCHARG       =      T    write CHGCAR
   LVTOT        =      F    write LOCPOT, total local potential
   LVHAR        =      F    write LOCPOT, Hartree potential only
   LELF         =      F    write electronic localiz. function (ELF)
   LORBIT       =     11    0 simple, 1 ext, 2 COOP (PROOUT), +10 PAW based schemes


 Dipole corrections
   LMONO  =      F    monopole corrections only (constant potential shift)
   LDIPOL =      T    correct potential (dipole corrections)
   IDIPOL =      3    1-x, 2-y, 3-z, 4-all directions 
   EPSILON=  1.0000000 bulk dielectric constant

 Exchange correlation treatment:
   GGA     =    PE    GGA type
   LEXCH   =     8    internal setting for exchange type
   VOSKOWN=      0    Vosko Wilk Nusair interpolation
   EXXOEP  =     0    0=HF, 1=EXX-LHF (local Hartree Fock) 2=EXX OEP
   LHFCALC =     T    Hartree Fock is set to
   LSYMGRAD=     F    symmetrize gradient (conserves proper symmetry)
   PRECFOCK=normal    Normal, Fast or Accurate (Low or Medium for compatibility)
   LRHFCALC=     F    long range Hartree Fock
   LRSCOR  =     F    long range correlation only (use DFT for short range part)
   LTHOMAS =     F    Thomas Fermi screening in HF
   LMODELHF=     F    short range full HF, long range fraction AEXX
   ENCUT4O =  -1.0   cutoff for four orbital integrals eV
   LMAXFOCK=     4    L truncation for augmentation on plane wave grid
   LMAXFOCKAE=  -1    L truncation for all-electron charge restoration on plane wave grid
   NMAXFOCKAE=   1    number of basis functions for all-electron charge restoration
   LFOCKAEDFT=     F  apply the AE augmentation even for DFT
   NKREDX  =     1    reduce k-point grid by
   NKREDY  =     1    reduce k-point grid by
   NKREDZ  =     1    reduce k-point grid by
   SHIFTRED=     F    shift reduced grid of Gamma
   HFKIDENT=     F    idential grid for each k-point
   ODDONLY =     F    use only odd q-grid points
   EVENONLY=     F    use only even q-grid points
   HFALPHA =   -1.0000 decay constant for conv. correction
   MCALPHA =    0.0000 extent of test-charge in conv. correction in multipole expansion
   AEXX    =    0.2500 exact exchange contribution
   HFSCREEN=    0.2000 screening length (either q_TF or 0.3 A-1)
   HFSCREENC=   0.2000 screening length for correlation (either q_TF or 0.3 A-1)
   HFRCUT  =    0.0000 spherical cutoff for potential kernel
   ALDAX   =    0.7500 LDA exchange part
   AGGAX   =    0.7500 GGA exchange part
   ALDAC   =    1.0000 LDA correlation
   AGGAC   =    1.0000 GGA correlation
   ENCUTFOCK=  -1.0 apply spherical cutoff to Coloumb kernel
   NBANDSGWLOW=     1    first orbital included in HF term
   NBLOCK_FOCK=    64    blocking factor in FOCK_ACC
 Linear response parameters
   LEPSILON=     F    determine dielectric tensor
   LRPA    =     F    only Hartree local field effects (RPA)
   LNABLA  =     F    use nabla operator in PAW spheres
   LVEL    =     F    velocity operator in full k-point grid
   LINTERFAST=   F  fast interpolation
   KINTER  =     0    interpolate to denser k-point grid
   CSHIFT  =0.1000    complex shift for real part using Kramers Kronig
   OMEGAMAX=  -1.0    maximum frequency
   DEG_THRESHOLD= 0.2000000E-02 threshold for treating states as degnerate
   RTIME   =   -0.100 relaxation time in fs
  (WPLASMAI=    0.000 imaginary part of plasma frequency in eV, 0.658/RTIME)
   DFIELD  = 0.0000000 0.0000000 0.0000000 field for delta impulse in time
 
 Orbital magnetization related:
   ORBITALMAG=     F  switch on orbital magnetization
   LCHIMAG   =     F  perturbation theory with respect to B field
   DQ        =  0.001000  dq finite difference perturbation B field
   LLRAUG    =     F  two centre corrections for induced B field



--------------------------------------------------------------------------------------------------------


 Static calculation
 charge density and potential will be updated during run
 spin polarized calculation
 Conjugate gradient for all bands (Freysoldt, et al. PRB 79, 241103 (2009))
 perform sub-space diagonalisation
    before iterative eigenvector-optimisation
 modified Broyden-mixing scheme, WC =      100.0
 initial mixing is a Kerker type mixing with AMIX =  0.4000 and BMIX =      1.0000
 Hartree-type preconditioning will be used
 using additional bands           34
 reciprocal scheme for non local part
 use partial core corrections
 no Harris-corrections to forces 
 use gradient corrections 
 use of overlap-Matrix (Vanderbilt PP)
 Gauss-broadening in eV      SIGMA  =   0.10


--------------------------------------------------------------------------------------------------------


  energy-cutoff  :      500.00
  volume of cell :     3176.89
      direct lattice vectors                 reciprocal lattice vectors
    13.017946501 -0.014021519 -0.000004350     0.076817055  0.000022303 -0.000016198
    -0.003570029 12.296295435  0.000313748     0.000087595  0.081325332 -0.000005165
     0.004184599  0.001255976 19.846559632     0.000000015 -0.000001286  0.050386567

  length of vectors
    13.017954053 12.296295958 19.846560113     0.076817060  0.081325380  0.050386567


 
 old parameters found on file WAVECAR:
  energy-cutoff  :      500.00
  volume of cell :     3176.89
      direct lattice vectors                 reciprocal lattice vectors
    12.974100000  0.000000000  0.000000000     0.077076637 -0.000061074 -0.000016141
     0.009697377 12.238296158  0.000000000     0.000000000  0.081710721 -0.000003124
     0.004190466  0.000764932 20.007999547     0.000000000  0.000000000  0.049980009

  length of vectors

 
 k-points in units of 2pi/SCALE and weight: KPOINTS created by Atomic Simulation Env
   0.01922616  0.02033691 -0.00000534       0.500
  -0.01918237  0.02032576  0.00000276       0.500
 
 k-points in reciprocal lattice and weights: KPOINTS created by Atomic Simulation Env
   0.25000000  0.25000000  0.00000000       0.500
  -0.25000000  0.25000000  0.00000000       0.500
 
 position of ions in fractional coordinates (direct lattice) 
   0.22669744  0.00250283  0.49978140
   0.05689781  0.09987852  0.49996039
   0.11420653  0.00094201  0.49990704
   0.28223607  0.10579260  0.49961117
   0.22210511  0.20548587  0.49959428
   0.05092892  0.29851006  0.50004747
   0.11056273  0.20100455  0.49987778
   0.21025244  0.39710757  0.49959754
   0.04905938  0.49977453  0.50018890
   0.10280067  0.39902554  0.50001800
   0.26545121  0.49695336  0.49933854
   0.21232256  0.59904658  0.49970530
   0.05276451  0.70113491  0.50013663
   0.10400113  0.59980414  0.50008806
   0.22273624  0.79831436  0.49982004
   0.05759239  0.90087861  0.50001548
   0.11157567  0.79994405  0.50001077
   0.28011553  0.89998241  0.49979098
   0.55740531  0.99906193  0.49993744
   0.39469606  0.10570520  0.49958300
   0.44695669  0.00107130  0.49979355
   0.61353838  0.09858646  0.49991239
   0.55840885  0.19746854  0.49962006
   0.61246904  0.30067436  0.49957404
   0.60871461  0.50070004  0.49951073
   0.61566588  0.69769301  0.49977669
   0.55844259  0.79971080  0.49987063
   0.39188571  0.89849889  0.49978885
   0.61381521  0.89955396  0.50002313
   0.89066776  0.99989260  0.50010288
   0.72386546  0.09907667  0.50005276
   0.77984016  0.99982387  0.50012264
   0.94581637  0.09971623  0.50007575
   0.88809902  0.19866994  0.50010728
   0.72232936  0.29913622  0.49987243
   0.77821167  0.19906926  0.50003963
   0.94130751  0.29901785  0.50014269
   0.88597310  0.39921977  0.50014892
   0.72044364  0.49961078  0.49982709
   0.77616033  0.39958604  0.49996114
   0.94067257  0.49956290  0.50021715
   0.88711304  0.60019538  0.50015090
   0.72460760  0.70001840  0.49995323
   0.77745536  0.59928996  0.49997916
   0.94286294  0.70062081  0.50015895
   0.88940794  0.80109476  0.50011077
   0.72416586  0.90028497  0.50009768
   0.77951325  0.80075429  0.50007458
   0.94654997  0.90056188  0.50008601
   0.27262706  0.69503995  0.49955814
   0.55324010  0.39801517  0.49930083
   0.44916068  0.79872098  0.49974287
   0.26895632  0.30544406  0.49933325
   0.45288488  0.20113149  0.49940393
   0.36776570  0.49529223  0.49878509
   0.56116420  0.60253572  0.49948163
   0.41265398  0.35313009  0.49900837
   0.41260953  0.64559076  0.49918396
 
 position of ions in cartesian coordinates  (Angst):
   2.95321761  0.02822467  9.91894119
   0.74242819  1.22796592  9.92252476
   1.48882311  0.01060970  9.92143461
   3.67584701  1.29752717  9.91559486
   2.89270950  2.52422813  9.91529124
   0.66401677  3.67048182  9.92431529
   1.44067392  2.47068893  9.92091677
   2.73772791  4.88063146  9.91541598
   0.63896124  6.14531560  9.92718544
   1.33892148  4.90572256  9.92376176
   3.45594507  6.10759045  9.91030684
   2.76395614  7.36370422  9.91761812
   0.68647535  8.62125026  9.92621121
   1.35383245  7.37453872  9.92521527
   2.89881004  9.81381385  9.91995781
   0.74861080 11.07729004  9.92386937
   1.45172268  9.83541187  9.92374408
   3.64540746 11.06314969  9.91941264
   7.25479786 12.27757293  9.92234918
   5.13984536  1.29487555  9.91503525
   5.82054583  0.00753370  9.91918088
   7.98874975  1.20427332  9.92156934
   7.27072226  2.42092930  9.91579893
   7.97410625  3.68922051  9.91491757
   7.92451703  6.14884787  9.91372396
   8.01430604  8.57103453  9.91906406
   7.26901258  9.82627786  9.92096078
   5.10043090 11.04334069  9.91936941
   7.98949456 11.05320263  9.92401850
  11.59318829 12.28311438  9.92563146
   9.42498070  1.20875441  9.92435489
  10.15044086 12.28382325  9.92602416
  12.31432348  1.21350658  9.92481043
  11.56260904  2.43107985  9.92546733
   9.40426886  3.66876707  9.92083867
  10.13209973  2.43753082  9.92412533
  12.25491617  3.66424140  9.92620153
  11.53421806  4.89712973  9.92635678
   9.37900470  6.13388776  9.92000168
  10.10467932  4.90317298  9.92263065
  12.24593490  6.13021155  9.92774209
  11.54834034  7.36836916  9.92645920
   9.43249602  8.59810095  9.92256813
  10.12082495  7.35877323  9.92305078
  12.27373099  8.60244822  9.92665010
  11.57749779  9.83865516  9.92572564
   9.42603104 11.06064422  9.92549783
  10.14689571  9.83600938  9.92500781
  12.32101456 11.06093102  9.92526525
   3.54865356  8.54322132  9.91472723
   7.20271841  4.88698201  9.90952626
   5.84638950  9.81563888  9.91842529
   3.50225802  3.75268634  9.91014179
   5.89700287  2.46744935  9.91151101
   4.78787320  6.08572939  9.89932188
   7.30514457  7.40171624  9.91317863
   5.37273491  4.33703266  9.90370831
   5.37111285  7.93321626  9.90728505
 


--------------------------------------------------------------------------------------------------------


 k-point  1 :   0.2500 0.2500 0.0000  plane waves:   80654
 k-point  2 :  -0.2500 0.2500 0.0000  plane waves:   80677

 maximum and minimum number of plane-waves per node :      2544     2495

 maximum number of plane-waves:     80677
 maximum index in each direction: 
   IXMAX=   23   IYMAX=   22   IZMAX=   36
   IXMIN=  -23   IYMIN=  -22   IZMIN=  -36


 parallel 3D FFT for wavefunctions:
    minimum data exchange during FFTs selected (reduces bandwidth)
 parallel 3D FFT for charge:
    minimum data exchange during FFTs selected (reduces bandwidth)


 FFT grid for exact exchange (Hartree Fock) 
  NGX = 72; NGY = 70; NGZ =112

 
 Radii for the augmentation spheres in the non-local exchange
 for species   1 augmentation radius   0.874 (default was   0.699)
       energy cutoff for augmentation   2000.0
 for species   2 augmentation radius   0.886 (default was   0.709)
       energy cutoff for augmentation   2000.0
 for species   3 augmentation radius   1.224 (default was   0.979)
       energy cutoff for augmentation   2000.0
 for species   4 augmentation radius   1.263 (default was   1.010)
       energy cutoff for augmentation   2000.0

 real space projection operators:
  total allocation   :       2475.31 KBytes
  max/ min on nodes  :        126.12         43.52

 Maximum index for augmentation-charges in exchange          142
  SETUP_FOCK is finished

 total amount of memory used by VASP MPI-rank0   162796. kBytes
=======================================================================

   base      :      30000. kBytes
   nonl-proj :       5308. kBytes
   fftplans  :      13453. kBytes
   grid      :      34560. kBytes
   one-center:         62. kBytes
   HF        :         23. kBytes
   nonlr-proj:       1681. kBytes
   wavefun   :      77709. kBytes
 
     INWAV:  cpu time    3.5345: real time    3.5350
 Broyden mixing: mesh for mixing (old mesh)
   NGX = 47   NGY = 45   NGZ = 73
  (NGX  =192   NGY  =180   NGZ  =300)
  gives a total of 154395 points

 charge density for first step will be calculated from the start-wavefunctions


--------------------------------------------------------------------------------------------------------


 Maximum index for augmentation-charges          208 (set IRDMAX)


--------------------------------------------------------------------------------------------------------


 initial charge from wavefunction
 First call to EWALD:  gamma=   0.121
 Maximum number of real-space cells 3x 3x 2
 Maximum number of reciprocal cells 2x 2x 4

    FEWALD:  cpu time    0.0035: real time    0.0035


--------------------------------------- Iteration      1(   1)  ---------------------------------------


    POTLOK:  cpu time    1.3111: real time    1.3117
    SETDIJ:  cpu time    2.0907: real time    2.0917
    TRIAL :  cpu time  533.9031: real time  534.0087
    CORREC:  cpu time    0.0022: real time    0.0025
    CHARGE:  cpu time    1.6681: real time    1.6683
    --------------------------------------------
      LOOP:  cpu time  538.9911: real time  539.1018

 eigenvalue-minimisations  :     0
 total energy-change (2. order) :-0.6034590E+03  (-0.4718537E+00)
 number of electron     246.0000013 magnetization       3.4286872
 augmentation part       15.9513605 magnetization       2.1188615

 DIPCOR: dipole corrections for dipol
 direction  3 min pos     1,
 dipolmoment          -0.000000     -0.000000     -0.001095 electrons x Angstroem
 Tr[quadrupol]     -6627.922766

 energy correction for charged system         0.000000 eV
 dipol+quadrupol energy correction            0.000000 eV
 added-field ion interaction          0.000000 eV  (added to PSCEN)


 Free energy of the ion-electron system (eV)
  ---------------------------------------------------
  alpha Z        PSCENC =       100.00603472
  Ewald energy   TEWEN  =     39163.12519022
  -Hartree energ DENC   =    -48055.98642233
  -exchange      EXHF   =       558.98002757
  -V(xc)+E(xc)   XCENC  =       636.02239539
  PAW double counting   =     26558.89681313   -26659.87138370
  entropy T*S    EENTRO =        -0.04208746
  eigenvalues    EBANDS =     -3174.63612260
  atomic energy  EATOM  =     10270.04882705
  ---------------------------------------------------
  free energy    TOTEN  =      -603.45899343 eV

  energy without entropy =     -603.41690597  energy(sigma->0) =     -603.43794970
  exchange ACFDT corr.  =        -0.03966728  see jH, gK, PRB 81, 115126


--------------------------------------------------------------------------------------------------------




--------------------------------------- Iteration      1(   2)  ---------------------------------------


    POTLOK:  cpu time    1.3184: real time    1.3185
    SETDIJ:  cpu time    2.0864: real time    2.0876
    TRIAL :  cpu time  533.4494: real time  533.5213
    CORREC:  cpu time    0.0023: real time    0.0025
    CHARGE:  cpu time    1.6607: real time    1.6607
    --------------------------------------------
      LOOP:  cpu time  538.5195: real time  538.5930

 eigenvalue-minimisations  :     0
 total energy-change (2. order) :-0.3723532E+00  (-0.4011719E+00)
 number of electron     246.0000013 magnetization       3.4702004
 augmentation part       15.9294174 magnetization       2.1599645

 DIPCOR: dipole corrections for dipol
 direction  3 min pos     1,
 dipolmoment          -0.000000     -0.000000     -0.001676 electrons x Angstroem
 Tr[quadrupol]     -6627.763569

 energy correction for charged system         0.000000 eV
 dipol+quadrupol energy correction            0.000000 eV
 added-field ion interaction          0.000000 eV  (added to PSCEN)


 Free energy of the ion-electron system (eV)
  ---------------------------------------------------
  alpha Z        PSCENC =       100.00603477
  Ewald energy   TEWEN  =     39163.12519022
  -Hartree energ DENC   =    -48046.36624436
  -exchange      EXHF   =       558.93075079
  -V(xc)+E(xc)   XCENC  =       635.75876751
  PAW double counting   =     26687.01842320   -26788.71471261
  entropy T*S    EENTRO =        -0.03945493
  eigenvalues    EBANDS =     -3183.59629575
  atomic energy  EATOM  =     10270.04882705
  ---------------------------------------------------
  free energy    TOTEN  =      -603.83134664 eV

  energy without entropy =     -603.79189171  energy(sigma->0) =     -603.81161917
  exchange ACFDT corr.  =        -0.03475327  see jH, gK, PRB 81, 115126


--------------------------------------------------------------------------------------------------------




--------------------------------------- Iteration      1(   3)  ---------------------------------------


    POTLOK:  cpu time    1.3262: real time    1.3265
    SETDIJ:  cpu time    2.0851: real time    2.0852
    TRIAL :  cpu time  531.2275: real time  531.3273
    CORREC:  cpu time    0.0023: real time    0.0025
    CHARGE:  cpu time    1.6587: real time    1.6588
    --------------------------------------------
      LOOP:  cpu time  536.3018: real time  536.4023

 eigenvalue-minimisations  :     0
 total energy-change (2. order) :-0.3175121E+00  (-0.2461322E+00)
 number of electron     246.0000014 magnetization       3.5164761
 augmentation part       15.9003742 magnetization       2.1960309

 DIPCOR: dipole corrections for dipol
 direction  3 min pos     1,
 dipolmoment          -0.000000     -0.000000     -0.001892 electrons x Angstroem
 Tr[quadrupol]     -6627.582097

 energy correction for charged system         0.000000 eV
 dipol+quadrupol energy correction            0.000000 eV
 added-field ion interaction          0.000000 eV  (added to PSCEN)


 Free energy of the ion-electron system (eV)
  ---------------------------------------------------
  alpha Z        PSCENC =       100.00603479
  Ewald energy   TEWEN  =     39163.12519022
  -Hartree energ DENC   =    -48030.71684867
  -exchange      EXHF   =       558.85874569
  -V(xc)+E(xc)   XCENC  =       635.36720318
  PAW double counting   =     26843.39348544   -26944.57611541
  entropy T*S    EENTRO =        -0.03683134
  eigenvalues    EBANDS =     -3199.61592614
  atomic energy  EATOM  =     10270.04882705
  ---------------------------------------------------
  free energy    TOTEN  =      -604.14885877 eV

  energy without entropy =     -604.11202743  energy(sigma->0) =     -604.13044310
  exchange ACFDT corr.  =        -0.02991656  see jH, gK, PRB 81, 115126


--------------------------------------------------------------------------------------------------------




--------------------------------------- Iteration      1(   4)  ---------------------------------------


    POTLOK:  cpu time    1.3266: real time    1.3266
    SETDIJ:  cpu time    2.0822: real time    2.0822
    TRIAL :  cpu time  529.7515: real time  529.8264
    CORREC:  cpu time    0.0021: real time    0.0024
    CHARGE:  cpu time    1.6576: real time    1.6578
    --------------------------------------------
      LOOP:  cpu time  534.8221: real time  534.8974

 eigenvalue-minimisations  :     0
 total energy-change (2. order) :-0.1886546E+00  (-0.1448935E+00)
 number of electron     246.0000014 magnetization       3.5646563
 augmentation part       15.8993740 magnetization       2.2220218

 DIPCOR: dipole corrections for dipol
 direction  3 min pos     1,
 dipolmoment          -0.000000     -0.000000     -0.001737 electrons x Angstroem
 Tr[quadrupol]     -6627.497236

 energy correction for charged system         0.000000 eV
 dipol+quadrupol energy correction            0.000000 eV
 added-field ion interaction          0.000000 eV  (added to PSCEN)


 Free energy of the ion-electron system (eV)
  ---------------------------------------------------
  alpha Z        PSCENC =       100.00603477
  Ewald energy   TEWEN  =     39163.12519022
  -Hartree energ DENC   =    -48020.89284725
  -exchange      EXHF   =       558.95314612
  -V(xc)+E(xc)   XCENC  =       635.14738034
  PAW double counting   =     26978.62182350   -27078.98904790
  entropy T*S    EENTRO =        -0.03431755
  eigenvalues    EBANDS =     -3210.32118893
  atomic energy  EATOM  =     10270.04882705
  ---------------------------------------------------
  free energy    TOTEN  =      -604.33751341 eV

  energy without entropy =     -604.30319586  energy(sigma->0) =     -604.32035464
  exchange ACFDT corr.  =        -0.02592308  see jH, gK, PRB 81, 115126


--------------------------------------------------------------------------------------------------------




--------------------------------------- Iteration      1(   5)  ---------------------------------------


    POTLOK:  cpu time    1.3244: real time    1.3245
    SETDIJ:  cpu time    2.0820: real time    2.0820
    TRIAL :  cpu time  528.9339: real time  529.0122
    CORREC:  cpu time    0.0023: real time    0.0025
    CHARGE:  cpu time    1.6581: real time    1.6581
    --------------------------------------------
      LOOP:  cpu time  534.0028: real time  534.0814

 eigenvalue-minimisations  :     0
 total energy-change (2. order) :-0.1188379E+00  (-0.9883058E-01)
 number of electron     246.0000014 magnetization       3.6094974
 augmentation part       15.9117570 magnetization       2.2391916

 DIPCOR: dipole corrections for dipol
 direction  3 min pos     1,
 dipolmoment          -0.000000     -0.000000     -0.001490 electrons x Angstroem
 Tr[quadrupol]     -6627.521497

 energy correction for charged system         0.000000 eV
 dipol+quadrupol energy correction            0.000000 eV
 added-field ion interaction          0.000000 eV  (added to PSCEN)


 Free energy of the ion-electron system (eV)
  ---------------------------------------------------
  alpha Z        PSCENC =       100.00603475
  Ewald energy   TEWEN  =     39163.12519022
  -Hartree energ DENC   =    -48021.49011853
  -exchange      EXHF   =       559.24448286
  -V(xc)+E(xc)   XCENC  =       635.19634515
  PAW double counting   =     27081.42257750   -27181.79541224
  entropy T*S    EENTRO =        -0.03197230
  eigenvalues    EBANDS =     -3210.17996050
  atomic energy  EATOM  =     10270.04882705
  ---------------------------------------------------
  free energy    TOTEN  =      -604.45635128 eV

  energy without entropy =     -604.42437899  energy(sigma->0) =     -604.44036513
  exchange ACFDT corr.  =        -0.02278488  see jH, gK, PRB 81, 115126


--------------------------------------------------------------------------------------------------------




--------------------------------------- Iteration      1(   6)  ---------------------------------------


    POTLOK:  cpu time    1.3243: real time    1.3244
    SETDIJ:  cpu time    2.0848: real time    2.0847
    TRIAL :  cpu time  528.4095: real time  528.4889
    CORREC:  cpu time    0.0022: real time    0.0024
    CHARGE:  cpu time    1.6649: real time    1.6649
    --------------------------------------------
      LOOP:  cpu time  533.4878: real time  533.5675

 eigenvalue-minimisations  :     0
 total energy-change (2. order) :-0.8262625E-01  (-0.6646213E-01)
 number of electron     246.0000014 magnetization       3.6499972
 augmentation part       15.9193162 magnetization       2.2511299

 DIPCOR: dipole corrections for dipol
 direction  3 min pos     1,
 dipolmoment          -0.000000     -0.000000     -0.001312 electrons x Angstroem
 Tr[quadrupol]     -6627.586011

 energy correction for charged system         0.000000 eV
 dipol+quadrupol energy correction            0.000000 eV
 added-field ion interaction          0.000000 eV  (added to PSCEN)


 Free energy of the ion-electron system (eV)
  ---------------------------------------------------
  alpha Z        PSCENC =       100.00603474
  Ewald energy   TEWEN  =     39163.12519022
  -Hartree energ DENC   =    -48026.39169427
  -exchange      EXHF   =       559.57919767
  -V(xc)+E(xc)   XCENC  =       635.35474499
  PAW double counting   =     27151.12740476   -27251.84951791
  entropy T*S    EENTRO =        -0.02979610
  eigenvalues    EBANDS =     -3205.50719249
  atomic energy  EATOM  =     10270.04882705
  ---------------------------------------------------
  free energy    TOTEN  =      -604.53897753 eV

  energy without entropy =     -604.50918143  energy(sigma->0) =     -604.52407948
  exchange ACFDT corr.  =        -0.02030153  see jH, gK, PRB 81, 115126


--------------------------------------------------------------------------------------------------------




--------------------------------------- Iteration      1(   7)  ---------------------------------------


    POTLOK:  cpu time    1.3210: real time    1.3211
    SETDIJ:  cpu time    2.0866: real time    2.0868
    TRIAL :  cpu time  527.8152: real time  527.9003
    CORREC:  cpu time    0.0022: real time    0.0024
    CHARGE:  cpu time    1.6565: real time    1.6566
    --------------------------------------------
      LOOP:  cpu time  532.8849: real time  532.9719

 eigenvalue-minimisations  :     0
 total energy-change (2. order) :-0.5738707E-01  (-0.4685614E-01)
 number of electron     246.0000014 magnetization       3.6872700
 augmentation part       15.9205452 magnetization       2.2604870

 DIPCOR: dipole corrections for dipol
 direction  3 min pos     1,
 dipolmoment          -0.000000     -0.000000     -0.001205 electrons x Angstroem
 Tr[quadrupol]     -6627.637631

 energy correction for charged system         0.000000 eV
 dipol+quadrupol energy correction            0.000000 eV
 added-field ion interaction          0.000000 eV  (added to PSCEN)


 Free energy of the ion-electron system (eV)
  ---------------------------------------------------
  alpha Z        PSCENC =       100.00603473
  Ewald energy   TEWEN  =     39163.12519022
  -Hartree energ DENC   =    -48030.21746109
  -exchange      EXHF   =       559.84369424
  -V(xc)+E(xc)   XCENC  =       635.48678162
  PAW double counting   =     27193.27184670   -27294.15273476
  entropy T*S    EENTRO =        -0.02773705
  eigenvalues    EBANDS =     -3201.97874722
  atomic energy  EATOM  =     10270.04882705
  ---------------------------------------------------
  free energy    TOTEN  =      -604.59636460 eV

  energy without entropy =     -604.56862755  energy(sigma->0) =     -604.58249608
  exchange ACFDT corr.  =        -0.01826551  see jH, gK, PRB 81, 115126


--------------------------------------------------------------------------------------------------------




--------------------------------------- Iteration      1(   8)  ---------------------------------------


    POTLOK:  cpu time    1.3251: real time    1.3252
    SETDIJ:  cpu time    2.0838: real time    2.0838
    TRIAL :  cpu time  527.4831: real time  527.5623
    CORREC:  cpu time    0.0022: real time    0.0024
    CHARGE:  cpu time    1.6570: real time    1.6571
    --------------------------------------------
      LOOP:  cpu time  532.5535: real time  532.6330

 eigenvalue-minimisations  :     0
 total energy-change (2. order) :-0.4097351E-01  (-0.3300483E-01)
 number of electron     246.0000014 magnetization       3.7221425
 augmentation part       15.9216670 magnetization       2.2685714

 DIPCOR: dipole corrections for dipol
 direction  3 min pos     1,
 dipolmoment          -0.000000     -0.000000     -0.001160 electrons x Angstroem
 Tr[quadrupol]     -6627.662909

 energy correction for charged system         0.000000 eV
 dipol+quadrupol energy correction            0.000000 eV
 added-field ion interaction          0.000000 eV  (added to PSCEN)


 Free energy of the ion-electron system (eV)
  ---------------------------------------------------
  alpha Z        PSCENC =       100.00603473
  Ewald energy   TEWEN  =     39163.12519022
  -Hartree energ DENC   =    -48031.87290415
  -exchange      EXHF   =       560.01949885
  -V(xc)+E(xc)   XCENC  =       635.56201179
  PAW double counting   =     27216.42390447   -27317.27714882
  entropy T*S    EENTRO =        -0.02573950
  eigenvalues    EBANDS =     -3200.64501522
  atomic energy  EATOM  =     10270.04882705
  ---------------------------------------------------
  free energy    TOTEN  =      -604.63733811 eV

  energy without entropy =     -604.61159861  energy(sigma->0) =     -604.62446836
  exchange ACFDT corr.  =        -0.01651184  see jH, gK, PRB 81, 115126


--------------------------------------------------------------------------------------------------------




--------------------------------------- Iteration      1(   9)  ---------------------------------------


    POTLOK:  cpu time    1.3167: real time    1.3167
    SETDIJ:  cpu time    2.0810: real time    2.0810
    TRIAL :  cpu time  527.3298: real time  527.3929
    CORREC:  cpu time    0.0022: real time    0.0024
    CHARGE:  cpu time    1.6548: real time    1.6549
    --------------------------------------------
      LOOP:  cpu time  532.3864: real time  532.4519

 eigenvalue-minimisations  :     0
 total energy-change (2. order) :-0.2935212E-01  (-0.2415485E-01)
 number of electron     246.0000014 magnetization       3.7547344
 augmentation part       15.9244212 magnetization       2.2759200

 DIPCOR: dipole corrections for dipol
 direction  3 min pos     1,
 dipolmoment          -0.000000     -0.000000     -0.001153 electrons x Angstroem
 Tr[quadrupol]     -6627.670644

 energy correction for charged system         0.000000 eV
 dipol+quadrupol energy correction            0.000000 eV
 added-field ion interaction          0.000000 eV  (added to PSCEN)


 Free energy of the ion-electron system (eV)
  ---------------------------------------------------
  alpha Z        PSCENC =       100.00603473
  Ewald energy   TEWEN  =     39163.12519022
  -Hartree energ DENC   =    -48032.45114179
  -exchange      EXHF   =       560.13599080
  -V(xc)+E(xc)   XCENC  =       635.60442339
  PAW double counting   =     27228.78597315   -27329.64595492
  entropy T*S    EENTRO =        -0.02377412
  eigenvalues    EBANDS =     -3200.25029337
  atomic energy  EATOM  =     10270.04882705
  ---------------------------------------------------
  free energy    TOTEN  =      -604.66669023 eV

  energy without entropy =     -604.64291611  energy(sigma->0) =     -604.65480317
  exchange ACFDT corr.  =        -0.01492924  see jH, gK, PRB 81, 115126


--------------------------------------------------------------------------------------------------------




--------------------------------------- Iteration      1(  10)  ---------------------------------------


    POTLOK:  cpu time    1.3127: real time    1.3129
    SETDIJ:  cpu time    2.0835: real time    2.0835
    TRIAL :  cpu time  528.4598: real time  528.5498
    CORREC:  cpu time    0.0022: real time    0.0024
    CHARGE:  cpu time    1.6540: real time    1.6541
    --------------------------------------------
      LOOP:  cpu time  533.5146: real time  533.6051

 eigenvalue-minimisations  :     0
 total energy-change (2. order) :-0.2175876E-01  (-0.1790271E-01)
 number of electron     246.0000014 magnetization       3.7848809
 augmentation part       15.9268303 magnetization       2.2827363

 DIPCOR: dipole corrections for dipol
 direction  3 min pos     1,
 dipolmoment          -0.000000     -0.000000     -0.001156 electrons x Angstroem
 Tr[quadrupol]     -6627.671288

 energy correction for charged system         0.000000 eV
 dipol+quadrupol energy correction            0.000000 eV
 added-field ion interaction          0.000000 eV  (added to PSCEN)


 Free energy of the ion-electron system (eV)
  ---------------------------------------------------
  alpha Z        PSCENC =       100.00603473
  Ewald energy   TEWEN  =     39163.12519022
  -Hartree energ DENC   =    -48032.72078112
  -exchange      EXHF   =       560.21888569
  -V(xc)+E(xc)   XCENC  =       635.63255315
  PAW double counting   =     27235.41833553   -27336.36693935
  entropy T*S    EENTRO =        -0.02183667
  eigenvalues    EBANDS =     -3200.02678077
  atomic energy  EATOM  =     10270.04882705
  ---------------------------------------------------
  free energy    TOTEN  =      -604.68844899 eV

  energy without entropy =     -604.66661231  energy(sigma->0) =     -604.67753065
  exchange ACFDT corr.  =        -0.01345620  see jH, gK, PRB 81, 115126


--------------------------------------------------------------------------------------------------------




--------------------------------------- Iteration      1(  11)  ---------------------------------------


    POTLOK:  cpu time    1.3069: real time    1.3070
    SETDIJ:  cpu time    2.0841: real time    2.0842
    TRIAL :  cpu time  528.1874: real time  528.2740
    CORREC:  cpu time    0.0022: real time    0.0024
    CHARGE:  cpu time    1.6539: real time    1.6539
    --------------------------------------------
      LOOP:  cpu time  533.2368: real time  533.3237

 eigenvalue-minimisations  :     0
 total energy-change (2. order) :-0.1626077E-01  (-0.1345701E-01)
 number of electron     246.0000014 magnetization       3.8124291
 augmentation part       15.9277374 magnetization       2.2890185

 DIPCOR: dipole corrections for dipol
 direction  3 min pos     1,
 dipolmoment          -0.000000     -0.000000     -0.001148 electrons x Angstroem
 Tr[quadrupol]     -6627.670208

 energy correction for charged system         0.000000 eV
 dipol+quadrupol energy correction            0.000000 eV
 added-field ion interaction          0.000000 eV  (added to PSCEN)


 Free energy of the ion-electron system (eV)
  ---------------------------------------------------
  alpha Z        PSCENC =       100.00603473
  Ewald energy   TEWEN  =     39163.12519022
  -Hartree energ DENC   =    -48032.81332890
  -exchange      EXHF   =       560.28103367
  -V(xc)+E(xc)   XCENC  =       635.65145881
  PAW double counting   =     27238.92548999   -27339.96401350
  entropy T*S    EENTRO =        -0.01993742
  eigenvalues    EBANDS =     -3199.94356515
  atomic energy  EATOM  =     10270.04882705
  ---------------------------------------------------
  free energy    TOTEN  =      -604.70470976 eV

  energy without entropy =     -604.68477234  energy(sigma->0) =     -604.69474105
  exchange ACFDT corr.  =        -0.01206633  see jH, gK, PRB 81, 115126


--------------------------------------------------------------------------------------------------------




--------------------------------------- Iteration      1(  12)  ---------------------------------------


    POTLOK:  cpu time    1.3082: real time    1.3083
    SETDIJ:  cpu time    2.0809: real time    2.0810
    TRIAL :  cpu time  527.7820: real time  527.8859
    CORREC:  cpu time    0.0022: real time    0.0025
    CHARGE:  cpu time    1.6534: real time    1.6534
    --------------------------------------------
      LOOP:  cpu time  532.8292: real time  532.9354

 eigenvalue-minimisations  :     0
 total energy-change (2. order) :-0.1235188E-01  (-0.1032106E-01)
 number of electron     246.0000014 magnetization       3.8372952
 augmentation part       15.9277644 magnetization       2.2946686

 DIPCOR: dipole corrections for dipol
 direction  3 min pos     1,
 dipolmoment          -0.000000     -0.000000     -0.001128 electrons x Angstroem
 Tr[quadrupol]     -6627.669401

 energy correction for charged system         0.000000 eV
 dipol+quadrupol energy correction            0.000000 eV
 added-field ion interaction          0.000000 eV  (added to PSCEN)


 Free energy of the ion-electron system (eV)
  ---------------------------------------------------
  alpha Z        PSCENC =       100.00603473
  Ewald energy   TEWEN  =     39163.12519022
  -Hartree energ DENC   =    -48032.75959407
  -exchange      EXHF   =       560.32992284
  -V(xc)+E(xc)   XCENC  =       635.66374294
  PAW double counting   =     27240.89146068   -27341.97165450
  entropy T*S    EENTRO =        -0.01809467
  eigenvalues    EBANDS =     -3200.03105409
  atomic energy  EATOM  =     10270.04882705
  ---------------------------------------------------
  free energy    TOTEN  =      -604.71706163 eV

  energy without entropy =     -604.69896696  energy(sigma->0) =     -604.70801430
  exchange ACFDT corr.  =        -0.01075374  see jH, gK, PRB 81, 115126


--------------------------------------------------------------------------------------------------------




--------------------------------------- Iteration      1(  13)  ---------------------------------------


    POTLOK:  cpu time    1.3040: real time    1.3041
    SETDIJ:  cpu time    2.0768: real time    2.0768
    TRIAL :  cpu time  527.5031: real time  527.5559
    CORREC:  cpu time    0.0020: real time    0.0022
    CHARGE:  cpu time    1.6703: real time    1.6860
    --------------------------------------------
      LOOP:  cpu time  532.5589: real time  532.6277

 eigenvalue-minimisations  :     0
 total energy-change (2. order) :-0.9529541E-02  (-0.7974925E-02)
 number of electron     246.0000014 magnetization       3.8594514
 augmentation part       15.9280619 magnetization       2.2996616

 DIPCOR: dipole corrections for dipol
 direction  3 min pos     1,
 dipolmoment          -0.000000     -0.000000     -0.001108 electrons x Angstroem
 Tr[quadrupol]     -6627.669468

 energy correction for charged system         0.000000 eV
 dipol+quadrupol energy correction            0.000000 eV
 added-field ion interaction          0.000000 eV  (added to PSCEN)


 Free energy of the ion-electron system (eV)
  ---------------------------------------------------
  alpha Z        PSCENC =       100.00603472
  Ewald energy   TEWEN  =     39163.12519022
  -Hartree energ DENC   =    -48032.67810151
  -exchange      EXHF   =       560.37107934
  -V(xc)+E(xc)   XCENC  =       635.67327060
  PAW double counting   =     27242.43010393   -27343.51910162
  entropy T*S    EENTRO =        -0.01633152
  eigenvalues    EBANDS =     -3200.16579924
  atomic energy  EATOM  =     10270.04882705
  ---------------------------------------------------
  free energy    TOTEN  =      -604.72659117 eV

  energy without entropy =     -604.71025966  energy(sigma->0) =     -604.71842541
  exchange ACFDT corr.  =        -0.00952329  see jH, gK, PRB 81, 115126


--------------------------------------------------------------------------------------------------------




--------------------------------------- Iteration      1(  14)  ---------------------------------------


    POTLOK:  cpu time    1.3031: real time    1.3032
    SETDIJ:  cpu time    2.0815: real time    2.0816
    TRIAL :  cpu time  527.6949: real time  527.7606
    CORREC:  cpu time    0.0022: real time    0.0024
    CHARGE:  cpu time    1.6550: real time    1.6552
    --------------------------------------------
      LOOP:  cpu time  532.7391: real time  532.8054

 eigenvalue-minimisations  :     0
 total energy-change (2. order) :-0.7405082E-02  (-0.6233944E-02)
 number of electron     246.0000014 magnetization       3.8789258
 augmentation part       15.9288005 magnetization       2.3040423

 DIPCOR: dipole corrections for dipol
 direction  3 min pos     1,
 dipolmoment          -0.000000     -0.000000     -0.001089 electrons x Angstroem
 Tr[quadrupol]     -6627.670549

 energy correction for charged system         0.000000 eV
 dipol+quadrupol energy correction            0.000000 eV
 added-field ion interaction          0.000000 eV  (added to PSCEN)


 Free energy of the ion-electron system (eV)
  ---------------------------------------------------
  alpha Z        PSCENC =       100.00603472
  Ewald energy   TEWEN  =     39163.12519022
  -Hartree energ DENC   =    -48032.70104110
  -exchange      EXHF   =       560.40832663
  -V(xc)+E(xc)   XCENC  =       635.68362350
  PAW double counting   =     27244.12431026   -27345.22749714
  entropy T*S    EENTRO =        -0.01467224
  eigenvalues    EBANDS =     -3200.18543888
  atomic energy  EATOM  =     10270.04882705
  ---------------------------------------------------
  free energy    TOTEN  =      -604.73399626 eV

  energy without entropy =     -604.71932401  energy(sigma->0) =     -604.72666013
  exchange ACFDT corr.  =        -0.00838443  see jH, gK, PRB 81, 115126


--------------------------------------------------------------------------------------------------------




--------------------------------------- Iteration      1(  15)  ---------------------------------------


    POTLOK:  cpu time    1.3021: real time    1.3022
    SETDIJ:  cpu time    2.0792: real time    2.0792
    TRIAL :  cpu time  528.5881: real time  528.6722
    CORREC:  cpu time    0.0023: real time    0.0025
    CHARGE:  cpu time    1.6524: real time    1.6525
    --------------------------------------------
      LOOP:  cpu time  533.6265: real time  533.7110

 eigenvalue-minimisations  :     0
 total energy-change (2. order) :-0.5814642E-02  (-0.4913877E-02)
 number of electron     246.0000014 magnetization       3.8958177
 augmentation part       15.9295242 magnetization       2.3078779

 DIPCOR: dipole corrections for dipol
 direction  3 min pos     1,
 dipolmoment          -0.000000     -0.000000     -0.001074 electrons x Angstroem
 Tr[quadrupol]     -6627.672066

 energy correction for charged system         0.000000 eV
 dipol+quadrupol energy correction            0.000000 eV
 added-field ion interaction          0.000000 eV  (added to PSCEN)


 Free energy of the ion-electron system (eV)
  ---------------------------------------------------
  alpha Z        PSCENC =       100.00603472
  Ewald energy   TEWEN  =     39163.12519022
  -Hartree energ DENC   =    -48032.81057042
  -exchange      EXHF   =       560.44211737
  -V(xc)+E(xc)   XCENC  =       635.69466369
  PAW double counting   =     27246.05835562   -27347.18820922
  entropy T*S    EENTRO =        -0.01313765
  eigenvalues    EBANDS =     -3200.10154769
  atomic energy  EATOM  =     10270.04882705
  ---------------------------------------------------
  free energy    TOTEN  =      -604.73981090 eV

  energy without entropy =     -604.72667325  energy(sigma->0) =     -604.73324207
  exchange ACFDT corr.  =        -0.00734689  see jH, gK, PRB 81, 115126


--------------------------------------------------------------------------------------------------------




--------------------------------------- Iteration      1(  16)  ---------------------------------------


    POTLOK:  cpu time    1.3026: real time    1.3027
    SETDIJ:  cpu time    2.0775: real time    2.0775
    TRIAL :  cpu time  527.7284: real time  527.8137
    CORREC:  cpu time    0.0022: real time    0.0024
    CHARGE:  cpu time    1.6495: real time    1.6495
    --------------------------------------------
      LOOP:  cpu time  532.7625: real time  532.8481

 eigenvalue-minimisations  :     0
 total energy-change (2. order) :-0.4598754E-02  (-0.3904179E-02)
 number of electron     246.0000014 magnetization       3.9102983
 augmentation part       15.9299669 magnetization       2.3112316

 DIPCOR: dipole corrections for dipol
 direction  3 min pos     1,
 dipolmoment          -0.000000     -0.000000     -0.001066 electrons x Angstroem
 Tr[quadrupol]     -6627.673309

 energy correction for charged system         0.000000 eV
 dipol+quadrupol energy correction            0.000000 eV
 added-field ion interaction          0.000000 eV  (added to PSCEN)


 Free energy of the ion-electron system (eV)
  ---------------------------------------------------
  alpha Z        PSCENC =       100.00603472
  Ewald energy   TEWEN  =     39163.12519022
  -Hartree energ DENC   =    -48032.91592082
  -exchange      EXHF   =       560.47151093
  -V(xc)+E(xc)   XCENC  =       635.70452970
  PAW double counting   =     27248.05522252   -27349.21051190
  entropy T*S    EENTRO =        -0.01174161
  eigenvalues    EBANDS =     -3200.01615444
  atomic energy  EATOM  =     10270.04882705
  ---------------------------------------------------
  free energy    TOTEN  =      -604.74440965 eV

  energy without entropy =     -604.73266804  energy(sigma->0) =     -604.73853885
  exchange ACFDT corr.  =        -0.00641725  see jH, gK, PRB 81, 115126


--------------------------------------------------------------------------------------------------------




--------------------------------------- Iteration      1(  17)  ---------------------------------------


    POTLOK:  cpu time    1.2977: real time    1.2978
    SETDIJ:  cpu time    2.0782: real time    2.0783
    TRIAL :  cpu time  527.6314: real time  527.7151
    CORREC:  cpu time    0.0021: real time    0.0023
    CHARGE:  cpu time    1.6510: real time    1.6513
    --------------------------------------------
      LOOP:  cpu time  532.6628: real time  532.7473

 eigenvalue-minimisations  :     0
 total energy-change (2. order) :-0.3665539E-02  (-0.3128599E-02)
 number of electron     246.0000014 magnetization       3.9225920
 augmentation part       15.9302015 magnetization       2.3141595

 DIPCOR: dipole corrections for dipol
 direction  3 min pos     1,
 dipolmoment          -0.000000     -0.000000     -0.001062 electrons x Angstroem
 Tr[quadrupol]     -6627.673998

 energy correction for charged system         0.000000 eV
 dipol+quadrupol energy correction            0.000000 eV
 added-field ion interaction          0.000000 eV  (added to PSCEN)


 Free energy of the ion-electron system (eV)
  ---------------------------------------------------
  alpha Z        PSCENC =       100.00603472
  Ewald energy   TEWEN  =     39163.12519022
  -Hartree energ DENC   =    -48032.97142369
  -exchange      EXHF   =       560.49636525
  -V(xc)+E(xc)   XCENC  =       635.71239159
  PAW double counting   =     27249.93054286   -27351.10176364
  entropy T*S    EENTRO =        -0.01049012
  eigenvalues    EBANDS =     -3199.98249794
  atomic energy  EATOM  =     10270.04882705
  ---------------------------------------------------
  free energy    TOTEN  =      -604.74807519 eV

  energy without entropy =     -604.73758507  energy(sigma->0) =     -604.74283013
  exchange ACFDT corr.  =        -0.00559727  see jH, gK, PRB 81, 115126


--------------------------------------------------------------------------------------------------------




--------------------------------------- Iteration      1(  18)  ---------------------------------------


    POTLOK:  cpu time    1.3019: real time    1.3020
    SETDIJ:  cpu time    2.0777: real time    2.0777
    TRIAL :  cpu time  528.1691: real time  528.2589
    CORREC:  cpu time    0.0021: real time    0.0023
    CHARGE:  cpu time    1.6514: real time    1.6514
    --------------------------------------------
      LOOP:  cpu time  533.2049: real time  533.2969

 eigenvalue-minimisations  :     0
 total energy-change (2. order) :-0.2945256E-02  (-0.2524995E-02)
 number of electron     246.0000014 magnetization       3.9329501
 augmentation part       15.9304223 magnetization       2.3167170

 DIPCOR: dipole corrections for dipol
 direction  3 min pos     1,
 dipolmoment          -0.000000     -0.000000     -0.001058 electrons x Angstroem
 Tr[quadrupol]     -6627.674280

 energy correction for charged system         0.000000 eV
 dipol+quadrupol energy correction            0.000000 eV
 added-field ion interaction          0.000000 eV  (added to PSCEN)


 Free energy of the ion-electron system (eV)
  ---------------------------------------------------
  alpha Z        PSCENC =       100.00603472
  Ewald energy   TEWEN  =     39163.12519022
  -Hartree energ DENC   =    -48032.99104484
  -exchange      EXHF   =       560.51748603
  -V(xc)+E(xc)   XCENC  =       635.71873010
  PAW double counting   =     27251.59206339   -27352.77214469
  entropy T*S    EENTRO =        -0.00938216
[...]
  augment   181.16880   176.74197   204.60457     2.87458     0.06010    -0.02529
  Kinetic  3620.88771  3596.09622  4093.66301     0.20570     0.01399     0.13128
  Fock     -352.40250  -348.59817  -337.66926    -2.22611    -0.00076     0.01711
  -------------------------------------------------------------------------------------
  Total     -43.64669   -44.27718    -0.35696    -0.19875     0.00738     0.01536
  in kB     -22.01203   -22.33000    -0.18002    -0.10024     0.00372     0.00775
  external pressure =      -14.84 kB  Pullay stress =        0.00 kB


 VOLUME and BASIS-vectors are now :
 -----------------------------------------------------------------------------
  energy-cutoff  :      500.00
  volume of cell :     3176.89
      direct lattice vectors                 reciprocal lattice vectors
    13.017946501 -0.014021519 -0.000004350     0.076817055  0.000022303 -0.000016198
    -0.003570029 12.296295435  0.000313748     0.000087595  0.081325332 -0.000005165
     0.004184599  0.001255976 19.846559632     0.000000015 -0.000001286  0.050386567

  length of vectors
    13.017954053 12.296295958 19.846560113     0.076817060  0.081325380  0.050386567


 FORCES acting on ions:
    Electron-Ion                     Ewald-Force                    Non-Local-Force
 -----------------------------------------------------------------------------------------------
   0.243E+01 0.508E+01 -.102E-01   -.175E+01 -.552E+01 0.138E-01   -.488E+00 0.241E+00 -.422E-02
   0.439E+01 0.101E+02 -.410E+00   -.437E+01 -.105E+02 0.410E+00   -.214E-01 0.378E+00 -.274E-03
   -.969E+01 0.631E+01 -.165E+00   0.987E+01 -.652E+01 0.161E+00   -.285E+00 0.184E+00 0.501E-02
   0.533E+01 0.225E+02 0.633E+00   -.521E+01 -.226E+02 -.638E+00   -.112E+00 0.150E+00 0.589E-02
   0.209E+02 0.583E+02 0.493E+00   -.219E+02 -.616E+02 -.479E+00   0.112E+01 0.344E+01 -.120E-01
   0.168E+02 0.134E+02 -.114E+01   -.170E+02 -.136E+02 0.114E+01   0.355E+00 0.171E+00 -.892E-03
   0.601E+01 0.183E+02 -.361E+00   -.614E+01 -.186E+02 0.362E+00   0.347E-01 0.368E+00 -.146E-02
   0.480E+02 -.237E+02 -.965E-02   -.496E+02 0.264E+02 0.237E-01   0.150E+01 -.315E+01 -.150E-01
   0.787E+01 -.581E+01 -.201E+01   -.801E+01 0.624E+01 0.201E+01   0.225E-01 -.380E+00 -.546E-02
   0.253E+02 -.684E+01 -.153E+01   -.257E+02 0.719E+01 0.153E+01   0.490E+00 -.365E+00 -.101E-01
   0.591E+02 -.307E+02 0.111E+01   -.597E+02 0.314E+02 -.111E+01   0.171E+01 -.424E+00 -.307E-02
   0.143E+02 -.232E+02 -.244E+00   -.137E+02 0.244E+02 0.236E+00   -.566E+00 -.781E+00 0.533E-02
   0.299E+01 -.146E+02 -.139E+01   -.255E+01 0.148E+02 0.139E+01   -.300E+00 -.270E+00 -.235E-02
   0.102E+02 -.101E+02 -.167E+01   -.100E+02 0.103E+02 0.167E+01   -.263E+00 -.104E+00 -.475E-02
   -.946E+01 -.135E+02 -.295E+00   0.101E+02 0.130E+02 0.299E+00   -.642E+00 0.343E+00 -.729E-02
   -.441E+00 -.273E+01 -.563E+00   0.729E+00 0.264E+01 0.564E+00   -.253E+00 0.158E+00 -.858E-03
   -.615E+01 -.617E+01 -.783E+00   0.685E+01 0.617E+01 0.780E+00   -.655E+00 -.435E-01 0.671E-04
   -.228E+01 0.702E+01 -.111E+00   0.247E+01 -.755E+01 0.104E+00   -.328E+00 0.684E+00 0.492E-02
   0.278E+01 0.132E+02 -.862E+00   -.298E+01 -.136E+02 0.856E+00   0.156E+00 0.270E+00 0.172E-02
   0.293E+02 0.434E+02 0.486E+00   -.312E+02 -.460E+02 -.478E+00   0.202E+01 0.277E+01 -.753E-02
   0.117E+02 0.165E+02 -.360E+00   -.122E+02 -.172E+02 0.362E+00   0.544E+00 0.697E+00 -.393E-02
   -.160E+02 0.142E+02 -.801E+00   0.162E+02 -.143E+02 0.806E+00   -.213E+00 0.159E+00 -.742E-02
   -.491E+02 0.149E+02 0.278E+00   0.524E+02 -.144E+02 -.270E+00   -.361E+01 -.749E+00 -.717E-02
   -.293E+02 -.425E+00 0.656E+00   0.286E+02 0.260E+01 -.664E+00   0.750E+00 -.170E+01 0.955E-02
   -.645E+01 0.221E+02 0.922E+00   0.729E+01 -.272E+02 -.923E+00   -.600E+00 0.480E+01 0.295E-02
   -.160E+02 -.370E+02 -.272E+00   0.174E+02 0.401E+02 0.289E+00   -.156E+01 -.339E+01 -.191E-01
   0.492E+00 -.755E+01 -.676E+00   -.223E+01 0.830E+01 0.673E+00   0.140E+01 -.549E+00 0.852E-04
   0.111E+02 0.842E+01 -.294E+00   -.112E+02 -.950E+01 0.292E+00   0.129E+00 0.944E+00 -.136E-02
   -.246E+01 -.398E+00 -.115E+01   0.235E+01 0.132E+00 0.115E+01   0.723E-01 0.275E+00 -.628E-02
   0.175E+01 0.245E+01 -.757E+00   -.159E+01 -.250E+01 0.755E+00   -.904E-01 0.375E-01 0.216E-02
   -.251E+01 0.591E+01 -.981E+00   0.265E+01 -.577E+01 0.979E+00   -.124E+00 -.153E+00 0.510E-04
   -.799E+01 0.214E+01 -.109E+01   0.797E+01 -.209E+01 0.109E+01   -.270E-01 -.417E-01 -.410E-02
   -.591E+01 0.298E+01 -.747E+00   0.597E+01 -.303E+01 0.748E+00   -.408E-01 0.381E-01 -.113E-02
   0.152E+01 0.827E+01 -.965E+00   -.169E+01 -.835E+01 0.964E+00   0.185E+00 0.112E+00 0.736E-03
   -.733E+01 0.332E+01 -.329E+00   0.682E+01 -.338E+01 0.329E+00   0.592E+00 0.360E-01 0.520E-04
   -.623E+01 0.963E+00 -.866E+00   0.609E+01 -.779E+00 0.866E+00   0.153E+00 -.146E+00 -.212E-02
   0.343E+01 0.113E+01 -.129E+01   -.387E+01 -.115E+01 0.129E+01   0.342E+00 0.328E-01 -.182E-02
   0.341E+01 0.126E+01 -.132E+01   -.359E+01 -.136E+01 0.132E+01   0.184E+00 0.355E-01 -.121E-02
   -.341E+01 0.222E+01 -.141E+00   0.290E+01 -.270E+01 0.141E+00   0.434E+00 0.496E+00 -.527E-03
   -.420E+01 -.278E+01 -.589E+00   0.397E+01 0.249E+01 0.585E+00   0.180E+00 0.186E+00 0.260E-02
   0.752E+01 -.195E+01 -.168E+01   -.739E+01 0.193E+01 0.168E+01   -.373E-01 0.338E-01 -.235E-02
   0.699E+00 -.587E+01 -.118E+01   -.372E+00 0.592E+01 0.118E+01   -.236E+00 -.692E-02 -.639E-03
   -.953E+01 -.107E+02 -.502E+00   0.101E+02 0.110E+02 0.504E+00   -.487E+00 -.349E+00 -.107E-02
   -.734E+01 0.181E+01 -.510E+00   0.741E+01 -.212E+01 0.507E+00   -.151E+00 0.343E+00 0.272E-02
   -.995E+00 -.290E+01 -.113E+01   0.102E+01 0.296E+01 0.113E+01   -.154E+00 -.732E-01 0.312E-03
   -.106E+01 -.592E+01 -.739E+00   0.110E+01 0.606E+01 0.738E+00   -.600E-01 -.170E+00 0.273E-02
   0.142E+01 -.621E+00 -.104E+01   -.151E+01 0.724E+00 0.104E+01   0.123E+00 -.976E-01 0.574E-03
   -.416E+01 -.215E+01 -.794E+00   0.432E+01 0.255E+01 0.797E+00   -.158E+00 -.351E+00 -.224E-02
   -.765E+01 0.781E+00 -.653E+00   0.786E+01 -.708E+00 0.654E+00   -.229E+00 -.106E-01 0.262E-03
   -.257E+02 -.399E+02 0.914E+00   0.312E+02 0.400E+02 -.969E+00   -.608E+01 -.182E+00 0.576E-01
   -.164E+02 -.378E+02 0.182E+01   0.710E+01 0.371E+02 -.187E+01   0.919E+01 0.502E+00 0.536E-01
   0.351E+02 0.444E+01 -.352E+00   -.388E+02 -.954E+01 0.337E+00   0.392E+01 0.541E+01 0.131E-01
   0.277E+01 0.494E+02 0.236E+01   0.194E+02 -.483E+02 -.254E+01   -.210E+02 -.984E+00 0.176E+00
   0.227E+02 0.332E+02 0.162E+01   -.327E+02 -.151E+02 -.174E+01   0.949E+01 -.171E+02 0.116E+00
   -.729E+02 -.668E+02 0.674E+01   0.934E+02 0.674E+02 -.700E+01   -.202E+02 -.741E+00 0.258E+00
   0.373E+02 0.163E+02 0.143E+01   -.574E+02 -.175E+02 -.153E+01   0.191E+02 0.123E+01 0.967E-01
   -.496E+02 0.111E+02 0.764E+01   0.527E+02 -.811E+01 -.763E+01   -.335E+01 -.356E+01 -.620E-02
   -.104E+02 -.483E+02 0.494E+01   0.790E+01 0.494E+02 -.491E+01   0.294E+01 -.173E+01 -.321E-01
 -----------------------------------------------------------------------------------------------
   0.592E+01 0.137E+02 -.713E+00   0.807E-12 -.263E-12 -.622E-14   -.517E+01 -.131E+02 0.643E+00
 
 
 POSITION                                       TOTAL-FORCE (eV/Angst)
 -----------------------------------------------------------------------------------
      2.95322      0.02822      9.91894         0.161467     -0.193265     -0.000862
      0.74243      1.22797      9.92252         0.007198     -0.020608     -0.000010
      1.48882      0.01061      9.92143        -0.130530     -0.011586      0.000509
      3.67585      1.29753      9.91559        -0.005190      0.037576      0.001772
      2.89271      2.52423      9.91529         0.173147      0.299772      0.000829
      0.66402      3.67048      9.92432         0.171856     -0.038101     -0.002355
      1.44067      2.47069      9.92092        -0.102145      0.070966      0.000065
      2.73773      4.88063      9.91542        -0.003604     -0.588687     -0.001773
      0.63896      6.14532      9.92719        -0.121338      0.034114     -0.005197
      1.33892      4.90572      9.92376         0.132532     -0.044922     -0.005070
      3.45595      6.10759      9.91031         1.216302      0.212888     -0.008916
      2.76396      7.36370      9.91762         0.012775      0.418131     -0.002191
      0.68648      8.62125      9.92621         0.125837     -0.098941     -0.003001
      1.35383      7.37454      9.92522        -0.061155      0.127701     -0.005951
      2.89881      9.81381      9.91996        -0.003582     -0.084797     -0.003126
      0.74861     11.07729      9.92387         0.029540      0.068569      0.000021
      1.45172      9.83541      9.92374         0.006900     -0.049646     -0.002028
      3.64541     11.06315      9.91941        -0.150201      0.196304     -0.001851
      7.25480     12.27757      9.92235        -0.032502     -0.033562     -0.003605
      5.13985      1.29488      9.91504         0.200658      0.262400      0.000742
      5.82055      0.00753      9.91918         0.077302     -0.040589     -0.001946
      7.98875      1.20427      9.92157        -0.016306      0.113735     -0.003105
      7.27072      2.42093      9.91580        -0.423816     -0.224086      0.000412
      7.97411      3.68922      9.91492         0.055390      0.392051      0.001766
      7.92452      6.14885      9.91372         0.213311      0.009408      0.002416
      8.01431      8.57103      9.91906        -0.205245     -0.491419     -0.002989
      7.26901      9.82628      9.92096        -0.271306      0.178047     -0.003026
      5.10043     11.04334      9.91937         0.106126     -0.086708     -0.003386
      7.98949     11.05320      9.92402        -0.034502      0.018389     -0.003384
     11.59319     12.28311      9.92563         0.074536     -0.009510      0.000249
      9.42498      1.20875      9.92435         0.008407     -0.014618     -0.002770
     10.15044     12.28382      9.92602        -0.060731      0.000125     -0.002024
     12.31432      1.21351      9.92481         0.001354     -0.019839     -0.000499
     11.56261      2.43108      9.92547         0.027099      0.039798     -0.001116
      9.40427      3.66877      9.92084         0.109769     -0.016301      0.000064
     10.13210      2.43753      9.92413         0.025441      0.026171     -0.001711
     12.25492      3.66424      9.92620        -0.090359      0.000039     -0.001650
     11.53422      4.89713      9.92636         0.021188     -0.053182     -0.001986
      9.37900      6.13389      9.92000        -0.054115      0.039782     -0.000427
     10.10468      4.90317      9.92263        -0.048964     -0.091092     -0.000955
     12.24593      6.13021      9.92774         0.101434      0.020676     -0.002524
     11.54834      7.36837      9.92646         0.079127      0.035930      0.000021
      9.43250      8.59810      9.92257         0.086837     -0.062369      0.000745
     10.12082      7.35877      9.92305        -0.089339      0.060539      0.000522
     12.27373      8.60245      9.92665        -0.134948     -0.010565      0.000293
     11.57750      9.83866      9.92573        -0.021220     -0.048377      0.001731
      9.42603     11.06064      9.92550         0.041765     -0.000735     -0.002053
     10.14690      9.83601      9.92501        -0.003709      0.036083      0.000565
     12.32101     11.06093      9.92527        -0.041061      0.065384      0.001326
      3.54865      8.54322      9.91473        -0.874616     -0.087499      0.005198
      7.20272      4.88698      9.90953         0.364332     -0.233866      0.006756
      5.84639      9.81564      9.91843         0.425463      0.575928     -0.002220
      3.50226      3.75269      9.91014        -0.650105      0.058682      0.008591
      5.89700      2.46745      9.91151         0.289494     -0.525993      0.007396
      4.78787      6.08573      9.89932        -1.383012     -0.220801      0.018629
      7.30514      7.40172      9.91318         0.696295      0.202051      0.003871
      5.37273      4.33703      9.90371        -0.063438     -0.155877      0.011732
      5.37111      7.93322      9.90729         0.034160     -0.043698      0.007492
 -----------------------------------------------------------------------------------
    total drift:                               -0.002940      0.003192     -0.002644


--------------------------------------------------------------------------------------------------------



  FREE ENERGIE OF THE ION-ELECTRON SYSTEM (eV)
  ---------------------------------------------------
  free  energy   TOTEN  =      -604.76742764 eV

  energy  without entropy=     -604.76537736  energy(sigma->0) =     -604.76640250
 


--------------------------------------------------------------------------------------------------------


    POTLOK:  cpu time    3.3728: real time    3.3734


--------------------------------------------------------------------------------------------------------


 stress matrix after NEB project (eV)
    -43.64669     -0.19660      0.01536
     -0.19875    -44.27718      0.00743
      0.01521      0.00738     -0.35696
  FORCES: max atom, RMS     1.400650    0.378955
  FORCE total and by dimension    2.886036    1.383012
  Stress total and by dimension   62.174818   44.277178
 writing wavefunctions
     LOOP+:  cpu time28921.2489: real time28926.2971
    4ORBIT:  cpu time    0.0000: real time    0.0000
 


 total charge     
 
# of ion       s       p       d       tot
------------------------------------------
    1        0.854   1.707   0.000   2.561
    2        0.864   1.757   0.000   2.621
    3        0.860   1.741   0.000   2.601
    4        0.844   1.731   0.000   2.575
    5        0.854   1.705   0.000   2.559
    6        0.872   1.776   0.000   2.648
    7        0.863   1.760   0.000   2.623
    8        0.878   1.785   0.000   2.663
    9        0.870   1.792   0.000   2.662
   10        0.876   1.813   0.000   2.689
   11        0.886   1.772   0.000   2.658
   12        0.880   1.784   0.000   2.663
   13        0.867   1.772   0.000   2.640
   14        0.875   1.794   0.000   2.668
   15        0.858   1.730   0.000   2.588
   16        0.863   1.753   0.000   2.616
   17        0.863   1.751   0.000   2.614
   18        0.856   1.728   0.000   2.584
   19        0.867   1.758   0.000   2.625
   20        0.847   1.680   0.000   2.526
   21        0.859   1.731   0.000   2.590
   22        0.868   1.787   0.000   2.655
   23        0.869   1.731   0.000   2.600
   24        0.868   1.756   0.000   2.624
   25        0.849   1.683   0.000   2.532
   26        0.867   1.728   0.000   2.595
   27        0.869   1.751   0.000   2.620
   28        0.856   1.719   0.000   2.576
   29        0.866   1.770   0.000   2.636
   30        0.867   1.767   0.000   2.633
   31        0.868   1.773   0.000   2.641
   32        0.866   1.767   0.000   2.633
   33        0.863   1.762   0.000   2.626
   34        0.869   1.772   0.000   2.641
   35        0.869   1.768   0.000   2.637
   36        0.866   1.776   0.000   2.643
   37        0.868   1.783   0.000   2.651
   38        0.867   1.770   0.000   2.637
   39        0.863   1.754   0.000   2.617
   40        0.867   1.776   0.000   2.642
   41        0.872   1.786   0.000   2.658
   42        0.866   1.777   0.000   2.644
   43        0.870   1.791   0.000   2.661
   44        0.871   1.763   0.000   2.634
   45        0.868   1.767   0.000   2.635
   46        0.867   1.773   0.000   2.640
   47        0.867   1.771   0.000   2.639
   48        0.866   1.773   0.000   2.639
   49        0.864   1.760   0.000   2.624
   50        0.872   1.668   0.000   2.540
   51        0.868   1.627   0.000   2.496
   52        0.867   1.665   0.000   2.532
   53        1.238   2.663   0.000   3.901
   54        1.230   2.644   0.000   3.874
   55        1.256   2.568   0.000   3.824
   56        1.235   2.653   0.000   3.888
   57        0.511   0.623   8.392   9.526
   58        0.498   0.661   6.041   7.200
--------------------------------------------------
tot         50.987 102.946  14.433 168.366
 


 magnetization (x)
 
# of ion       s       p       d       tot
------------------------------------------
    1        0.000   0.005   0.000   0.005
    2        0.001   0.020   0.000   0.021
    3       -0.001  -0.014   0.000  -0.015
    4        0.001   0.018   0.000   0.019
    5        0.001   0.010   0.000   0.011
    6        0.001   0.016   0.000   0.017
    7       -0.001  -0.010   0.000  -0.011
    8        0.003   0.052   0.000   0.055
    9        0.003   0.053   0.000   0.056
   10       -0.002  -0.018   0.000  -0.020
   11       -0.000  -0.003   0.000  -0.003
   12        0.003   0.039   0.000   0.043
   13        0.001   0.015   0.000   0.016
   14       -0.002  -0.017   0.000  -0.019
   15        0.001   0.021   0.000   0.022
   16        0.001   0.016   0.000   0.017
   17       -0.002  -0.015   0.000  -0.016
   18        0.000   0.005   0.000   0.006
   19        0.001   0.013   0.000   0.014
   20        0.001   0.012   0.000   0.012
   21       -0.002  -0.015   0.000  -0.017
   22       -0.001  -0.008   0.000  -0.009
   23        0.002   0.033   0.000   0.035
   24       -0.002  -0.019   0.000  -0.021
   25       -0.002  -0.017   0.000  -0.019
   26       -0.000  -0.008   0.000  -0.009
   27        0.003   0.026   0.000   0.029
   28        0.001   0.018   0.000   0.019
   29       -0.001  -0.012   0.000  -0.014
   30        0.001   0.013   0.000   0.014
   31        0.002   0.030   0.000   0.033
   32       -0.002  -0.017   0.000  -0.019
   33       -0.001  -0.012   0.000  -0.013
   34        0.001   0.018   0.000   0.019
   35        0.001   0.019   0.000   0.020
   36       -0.001  -0.012   0.000  -0.013
   37       -0.002  -0.018   0.000  -0.020
   38        0.003   0.036   0.000   0.039
   39        0.002   0.027   0.000   0.029
   40       -0.002  -0.019   0.000  -0.021
   41       -0.002  -0.021   0.000  -0.023
   42        0.002   0.025   0.000   0.026
   43        0.001   0.019   0.000   0.020
   44       -0.001  -0.015   0.000  -0.016
   45       -0.001  -0.016   0.000  -0.017
   46        0.002   0.022   0.000   0.024
   47        0.002   0.027   0.000   0.029
   48       -0.001  -0.010   0.000  -0.011
   49       -0.001  -0.013   0.000  -0.015
   50       -0.018  -0.073   0.000  -0.091
   51        0.004   0.060   0.000   0.064
   52       -0.016  -0.062   0.000  -0.077
   53       -0.000   0.010   0.000   0.010
   54       -0.000   0.006   0.000   0.006
   55        0.003   0.119   0.000   0.122
   56        0.001   0.047   0.000   0.048
   57       -0.000   0.008   0.018   0.026
   58        0.062   0.024   2.895   2.981
--------------------------------------------------
tot          0.048   0.436   2.913   3.397
 

 total amount of memory used by VASP MPI-rank0   176539. kBytes
=======================================================================

   base      :      30000. kBytes
   nonl-proj :       5308. kBytes
   fftplans  :      13453. kBytes
   grid      :      34560. kBytes
   one-center:         62. kBytes
   HF        :         23. kBytes
   nonlr-proj:      15424. kBytes
   wavefun   :      77709. kBytes
 
  
  
 General timing and accounting informations for this job:
 ========================================================
  
                  Total CPU time used (sec):    29011.143
                            User time (sec):    28966.210
                          System time (sec):       44.933
                         Elapsed time (sec):    29017.782
  
                   Maximum memory used (kb):      416532.
                   Average memory used (kb):           0.
  
                          Minor page faults:       273879
                          Major page faults:            5
                 Voluntary context switches:         1432
