 vasp.5.4.4.18Apr17-6-g9f103f2a35 (build Feb 25 2019 10:51:38) complex          
  
 executed on             LinuxIFC date 2021.06.16  14:40:07
 running on   48 total cores
 distrk:  each k-point on   24 cores,    2 groups
 distr:  one band on NCORES_PER_BAND=  24 cores,    1 groups


--------------------------------------------------------------------------------------------------------


 INCAR:
 POTCAR:    PAW_PBE C 08Apr2002                   
 POTCAR:    PAW_PBE N 08Apr2002                   
 POTCAR:    PAW_PBE Ni 02Aug2007                  
 POTCAR:    PAW_PBE Fe 06Sep2000                  

 ----------------------------------------------------------------------------- 
|                                                                             |
|           W    W    AA    RRRRR   N    N  II  N    N   GGGG   !!!           |
|           W    W   A  A   R    R  NN   N  II  NN   N  G    G  !!!           |
|           W    W  A    A  R    R  N N  N  II  N N  N  G       !!!           |
|           W WW W  AAAAAA  RRRRR   N  N N  II  N  N N  G  GGG   !            |
|           WW  WW  A    A  R   R   N   NN  II  N   NN  G    G                |
|           W    W  A    A  R    R  N    N  II  N    N   GGGG   !!!           |
|                                                                             |
|      For optimal performance we recommend to set                            |
|        NCORE= 4 - approx SQRT( number of cores)                             |
|      NCORE specifies how many cores store one orbital (NPAR=cpu/NCORE).     |
|      This setting can  greatly improve the performance of VASP for DFT.     |
|      The default,   NCORE=1            might be grossly inefficient         |
|      on modern multi-core architectures or massively parallel machines.     |
|      Do your own testing !!!!                                               |
|      Unfortunately you need to use the default for GW and RPA calculations. |
|      (for HF NCORE is supported but not extensively tested yet)             |
|                                                                             |
 ----------------------------------------------------------------------------- 


 ----------------------------------------------------------------------------- 
|                                                                             |
|           W    W    AA    RRRRR   N    N  II  N    N   GGGG   !!!           |
|           W    W   A  A   R    R  NN   N  II  NN   N  G    G  !!!           |
|           W    W  A    A  R    R  N N  N  II  N N  N  G       !!!           |
|           W WW W  AAAAAA  RRRRR   N  N N  II  N  N N  G  GGG   !            |
|           WW  WW  A    A  R   R   N   NN  II  N   NN  G    G                |
|           W    W  A    A  R    R  N    N  II  N    N   GGGG   !!!           |
|                                                                             |
|      You have enabled k-point parallelism (KPAR>1).                         |
|      This developmental code was originally  written by Paul Kent at ORNL,  |
|      and carefully double checked in Vienna.                                |
|      GW as well as linear response parallelism added by Martijn Marsman     |
|      and Georg Kresse.                                                      |
|      Carefully verify results versus KPAR=1.                                |
|      Report problems to Paul Kent and Vienna.                               |
|                                                                             |
 ----------------------------------------------------------------------------- 

 POTCAR:    PAW_PBE C 08Apr2002                   
   VRHFIN =C: s2p2                                                              
   LEXCH  = PE                                                                  
   EATOM  =   147.1560 eV,   10.8157 Ry                                         
                                                                                
   TITEL  = PAW_PBE C 08Apr2002                                                 
   LULTRA =        F    use ultrasoft PP ?                                      
   IUNSCR =        1    unscreen: 0-lin 1-nonlin 2-no                           
   RPACOR =    1.200    partial core radius                                     
   POMASS =   12.011; ZVAL   =    4.000    mass and valenz                      
   RCORE  =    1.500    outmost cutoff radius                                   
   RWIGS  =    1.630; RWIGS  =    0.863    wigner-seitz radius (au A)           
   ENMAX  =  400.000; ENMIN  =  300.000 eV                                      
   ICORE  =        2    local potential                                         
   LCOR   =        T    correct aug charges                                     
   LPAW   =        T    paw PP                                                  
   EAUG   =  644.873                                                            
   DEXC   =    0.000                                                            
   RMAX   =    1.529    core radius for proj-oper                               
   RAUG   =    1.300    factor for augmentation sphere                          
   RDEP   =    1.501    radius for radial grids                                 
   RDEPT  =    1.300    core radius for aug-charge                              
                                                                                
   Atomic configuration                                                         
    4 entries                                                                   
     n  l   j            E        occ.                                          
     1  0  0.50      -273.3789   2.0000                                         
     2  0  0.50       -13.7508   2.0000                                         
     2  1  0.50        -5.2854   2.0000                                         
     3  2  1.50        -5.4423   0.0000                                         
   Description                                                                  
     l       E           TYP  RCUT    TYP  RCUT                                 
     0    -13.7508458     23  1.200                                             
     0     -8.2022199     23  1.200                                             
     1     -5.2854383     23  1.500                                             
     1     34.0145650     23  1.500                                             
     2     -5.4423304      7  1.500                                             
  local pseudopotential read in
  partial core-charges read in
  partial kinetic energy density read in
  atomic valenz-charges read in
  non local Contribution for L=           0  read in
    real space projection operators read in
  non local Contribution for L=           0  read in
    real space projection operators read in
  non local Contribution for L=           1  read in
    real space projection operators read in
  non local Contribution for L=           1  read in
    real space projection operators read in
    PAW grid and wavefunctions read in
 
   number of l-projection  operators is LMAX  =           4
   number of lm-projection operators is LMMAX =           8
 
 POTCAR:    PAW_PBE N 08Apr2002                   
   VRHFIN =N: s2p3                                                              
   LEXCH  = PE                                                                  
   EATOM  =   264.5486 eV,   19.4438 Ry                                         
                                                                                
   TITEL  = PAW_PBE N 08Apr2002                                                 
   LULTRA =        F    use ultrasoft PP ?                                      
   IUNSCR =        1    unscreen: 0-lin 1-nonlin 2-no                           
   RPACOR =    1.200    partial core radius                                     
   POMASS =   14.001; ZVAL   =    5.000    mass and valenz                      
   RCORE  =    1.500    outmost cutoff radius                                   
   RWIGS  =    1.400; RWIGS  =    0.741    wigner-seitz radius (au A)           
   ENMAX  =  400.000; ENMIN  =  300.000 eV                                      
   ICORE  =        2    local potential                                         
   LCOR   =        T    correct aug charges                                     
   LPAW   =        T    paw PP                                                  
   EAUG   =  627.112                                                            
   DEXC   =    0.000                                                            
   RMAX   =    1.529    core radius for proj-oper                               
   RAUG   =    1.300    factor for augmentation sphere                          
   RDEP   =    1.514    radius for radial grids                                 
   RDEPT  =    1.338    core radius for aug-charge                              
                                                                                
   Atomic configuration                                                         
    4 entries                                                                   
     n  l   j            E        occ.                                          
     1  0  0.50      -384.7179   2.0000                                         
     2  0  0.50       -18.5828   2.0000                                         
     2  1  0.50        -7.0898   3.0000                                         
     3  2  1.50        -6.8029   0.0000                                         
   Description                                                                  
     l       E           TYP  RCUT    TYP  RCUT                                 
     0    -18.5828119     23  1.200                                             
     0    -13.5018863     23  1.200                                             
     1     -7.0897853     23  1.500                                             
     1      9.5240782     23  1.500                                             
     2     -6.8029130      7  1.500                                             
  local pseudopotential read in
  partial core-charges read in
  partial kinetic energy density read in
  atomic valenz-charges read in
  non local Contribution for L=           0  read in
    real space projection operators read in
  non local Contribution for L=           0  read in
    real space projection operators read in
  non local Contribution for L=           1  read in
    real space projection operators read in
  non local Contribution for L=           1  read in
    real space projection operators read in
    PAW grid and wavefunctions read in
 
   number of l-projection  operators is LMAX  =           4
   number of lm-projection operators is LMMAX =           8
 
 POTCAR:    PAW_PBE Ni 02Aug2007                  
   VRHFIN =Ni:                                                                  
   LEXCH  = PE                                                                  
   EATOM  =  1077.6739 eV,   79.2068 Ry                                         
                                                                                
   TITEL  = PAW_PBE Ni 02Aug2007                                                
   LULTRA =        F    use ultrasoft PP ?                                      
   IUNSCR =        1    unscreen: 0-lin 1-nonlin 2-no                           
   RPACOR =    2.000    partial core radius                                     
   POMASS =   58.690; ZVAL   =   10.000    mass and valenz                      
   RCORE  =    2.300    outmost cutoff radius                                   
   RWIGS  =    2.430; RWIGS  =    1.286    wigner-seitz radius (au A)           
   ENMAX  =  269.532; ENMIN  =  202.149 eV                                      
   RCLOC  =    1.201    cutoff for local pot                                    
   LCOR   =        T    correct aug charges                                     
   LPAW   =        T    paw PP                                                  
   EAUG   =  544.565                                                            
   DEXC   =    0.000                                                            
   RMAX   =    2.357    core radius for proj-oper                               
   RAUG   =    1.300    factor for augmentation sphere                          
   RDEP   =    2.390    radius for radial grids                                 
   RDEPT  =    1.838    core radius for aug-charge                              
                                                                                
   Atomic configuration                                                         
    9 entries                                                                   
     n  l   j            E        occ.                                          
     1  0  0.50     -8206.4253   2.0000                                         
     2  0  0.50      -976.1748   2.0000                                         
     2  1  1.50      -839.0571   6.0000                                         
     3  0  0.50      -105.9991   2.0000                                         
     3  1  1.50       -66.4603   6.0000                                         
     3  2  2.50        -4.6458   9.0000                                         
     4  0  0.50        -4.4926   1.0000                                         
     4  1  1.50        -4.0817   0.0000                                         
     4  3  2.50        -1.3606   0.0000                                         
   Description                                                                  
     l       E           TYP  RCUT    TYP  RCUT                                 
     2     -4.6457903     23  2.300                                             
     2     -6.0063729     23  2.300                                             
     0     -4.4925590     23  2.300                                             
     0      5.0102601     23  2.300                                             
     1     -2.7211652     23  2.300                                             
     1     16.5183231     23  2.300                                             
  local pseudopotential read in
  partial core-charges read in
  partial kinetic energy density read in
  atomic valenz-charges read in
  non local Contribution for L=           2  read in
    real space projection operators read in
  non local Contribution for L=           2  read in
    real space projection operators read in
  non local Contribution for L=           0  read in
    real space projection operators read in
  non local Contribution for L=           0  read in
    real space projection operators read in
  non local Contribution for L=           1  read in
    real space projection operators read in
  non local Contribution for L=           1  read in
    real space projection operators read in
    PAW grid and wavefunctions read in
 
   number of l-projection  operators is LMAX  =           6
   number of lm-projection operators is LMMAX =          18
 
 POTCAR:    PAW_PBE Fe 06Sep2000                  
   VRHFIN =Fe:  d7 s1                                                           
   LEXCH  = PE                                                                  
   EATOM  =   594.3153 eV,   43.6809 Ry                                         
                                                                                
   TITEL  = PAW_PBE Fe 06Sep2000                                                
   LULTRA =        F    use ultrasoft PP ?                                      
   IUNSCR =        1    unscreen: 0-lin 1-nonlin 2-no                           
   RPACOR =    2.000    partial core radius                                     
   POMASS =   55.847; ZVAL   =    8.000    mass and valenz                      
   RCORE  =    2.300    outmost cutoff radius                                   
   RWIGS  =    2.460; RWIGS  =    1.302    wigner-seitz radius (au A)           
   ENMAX  =  267.882; ENMIN  =  200.911 eV                                      
   RCLOC  =    1.701    cutoff for local pot                                    
   LCOR   =        T    correct aug charges                                     
   LPAW   =        T    paw PP                                                  
   EAUG   =  511.368                                                            
   DEXC   =    0.000                                                            
   RMAX   =    2.356    core radius for proj-oper                               
   RAUG   =    1.300    factor for augmentation sphere                          
   RDEP   =    2.442    radius for radial grids                                 
   RDEPT  =    1.890    core radius for aug-charge                              
                                                                                
   Atomic configuration                                                         
    9 entries                                                                   
     n  l   j            E        occ.                                          
     1  0  0.50     -6993.8440   2.0000                                         
     2  0  0.50      -814.6047   2.0000                                         
     2  1  1.50      -693.3689   6.0000                                         
     3  0  0.50       -89.4732   2.0000                                         
     3  1  1.50       -55.6373   6.0000                                         
     3  2  2.50        -3.8151   7.0000                                         
     4  0  0.50        -4.2551   1.0000                                         
     4  1  1.50        -3.4015   0.0000                                         
     4  3  2.50        -1.3606   0.0000                                         
   Description                                                                  
     l       E           TYP  RCUT    TYP  RCUT                                 
     2     -3.8151135     23  2.300                                             
     2     -5.1756961     23  2.300                                             
     0     -4.2550963     23  2.300                                             
     0      7.2035603     23  2.300                                             
     1     -2.7211652     23  2.300                                             
     1     18.4316424     23  2.300                                             
  local pseudopotential read in
  partial core-charges read in
  partial kinetic energy density read in
  atomic valenz-charges read in
  non local Contribution for L=           2  read in
    real space projection operators read in
  non local Contribution for L=           2  read in
    real space projection operators read in
  non local Contribution for L=           0  read in
    real space projection operators read in
  non local Contribution for L=           0  read in
    real space projection operators read in
  non local Contribution for L=           1  read in
    real space projection operators read in
  non local Contribution for L=           1  read in
    real space projection operators read in
    PAW grid and wavefunctions read in
 
   number of l-projection  operators is LMAX  =           6
   number of lm-projection operators is LMMAX =          18
 

 ----------------------------------------------------------------------------- 
|                                                                             |
|  ADVICE TO THIS USER RUNNING 'VASP/VAMP'   (HEAR YOUR MASTER'S VOICE ...):  |
|                                                                             |
|      You have a (more or less) 'large supercell' and for larger cells       |
|      it might be more efficient to use real space projection opertators     |
|      So try LREAL= Auto  in the INCAR   file.                               |
|      Mind:          For very  accurate calculation you might also keep the  |
|      reciprocal projection scheme          (i.e. LREAL=.FALSE.)             |
|                                                                             |
 ----------------------------------------------------------------------------- 

  PAW_PBE C 08Apr2002                   :
 energy of atom  1       EATOM= -147.1560
 kinetic energy error for atom=    0.0076 (will be added to EATOM!!)
  PAW_PBE N 08Apr2002                   :
 energy of atom  2       EATOM= -264.5486
 kinetic energy error for atom=    0.0138 (will be added to EATOM!!)
  PAW_PBE Ni 02Aug2007                  :
 energy of atom  3       EATOM=-1077.6739
 kinetic energy error for atom=    0.0030 (will be added to EATOM!!)
  PAW_PBE Fe 06Sep2000                  :
 energy of atom  4       EATOM= -594.3153
 kinetic energy error for atom=    0.0026 (will be added to EATOM!!)
 
 
 POSCAR:  C  N Ni Fe                             
  positions in cartesian coordinates
  No initial velocities read in
 exchange correlation table for  LEXCH =        8
   RHO(1)=    0.500       N(1)  =     2000
   RHO(2)=  100.500       N(2)  =     4000

 VTST: version 3.2, (02/03/18)

 CHAIN: initializing optimizer
 
 OPT: Using VASP Conjugate-Gradient optimizer
 CHAIN: Read ICHAIN            0
 
 POSCAR:  C  N Ni Fe                             
  positions in cartesian coordinates
  No initial velocities read in
 


--------------------------------------------------------------------------------------------------------


 ion  position               nearest neighbor table
   1  0.222  0.002  0.500-  19 1.42   3 1.42   4 1.43
   2  0.056  0.102  0.500-   3 1.42  33 1.43   7 1.44
   3  0.110  0.001  0.500-   2 1.42   1 1.42  17 1.43
   4  0.278  0.102  0.499-  21 1.42   5 1.43   1 1.43
   5  0.225  0.205  0.498-   4 1.43   7 1.44   8 1.45
   6  0.057  0.302  0.499-   7 1.42  11 1.43  37 1.44
   7  0.113  0.203  0.499-   6 1.42   5 1.44   2 1.44
   8  0.286  0.304  0.497-  50 1.38   5 1.45   9 1.46
   9  0.228  0.407  0.500-  49 1.37  11 1.46   8 1.46
  10  0.056  0.501  0.500-  14 1.42  11 1.42  40 1.45
  11  0.114  0.402  0.499-  10 1.42   6 1.43   9 1.46
  12  0.225  0.598  0.502-  49 1.36  14 1.44  15 1.45
  13  0.054  0.699  0.500-  14 1.42  18 1.42  44 1.44
  14  0.112  0.600  0.500-  10 1.42  13 1.42  12 1.44
  15  0.280  0.701  0.503-  52 1.37  16 1.43  12 1.45
  16  0.222  0.800  0.502-  15 1.43  19 1.43  18 1.43
  17  0.054  0.900  0.500-  18 1.42  48 1.43   3 1.43
  18  0.110  0.800  0.501-  17 1.42  13 1.42  16 1.43
  19  0.277  0.901  0.501-  27 1.42   1 1.42  16 1.43
  20  0.555  0.999  0.501-  22 1.41  23 1.42  29 1.42
  21  0.389  0.102  0.499-   4 1.42  22 1.43  25 1.43
  22  0.444  0.001  0.501-  20 1.41  27 1.42  21 1.43
  23  0.610  0.099  0.499-  24 1.42  31 1.42  20 1.42
  24  0.557  0.200  0.496-  51 1.36  23 1.42  25 1.45
  25  0.444  0.203  0.496-  50 1.37  21 1.43  24 1.45
  26  0.554  0.797  0.504-  53 1.38  29 1.43  28 1.44
  27  0.388  0.901  0.502-  19 1.42  28 1.42  22 1.42
  28  0.441  0.800  0.504-  52 1.37  27 1.42  26 1.44
  29  0.609  0.898  0.502-  46 1.42  20 1.42  26 1.43
  30  0.888  1.000  0.501-  48 1.42  32 1.42  33 1.43
  31  0.722  0.099  0.500-  23 1.42  32 1.42  36 1.43
  32  0.777  0.999  0.501-  31 1.42  30 1.42  46 1.43
  33  0.944  0.101  0.500-  34 1.42   2 1.43  30 1.43
  34  0.889  0.201  0.499-  37 1.42  33 1.42  36 1.43
  35  0.718  0.299  0.496-  51 1.36  36 1.43  39 1.46
  36  0.776  0.200  0.499-  31 1.43  35 1.43  34 1.43
  37  0.944  0.301  0.499-  34 1.42  38 1.43   6 1.44
  38  0.886  0.400  0.498-  40 1.42  37 1.43  39 1.45
  39  0.772  0.403  0.497-  54 1.36  38 1.45  35 1.46
  40  0.942  0.500  0.499-  41 1.42  38 1.42  10 1.45
  41  0.884  0.599  0.499-  40 1.42  44 1.43  43 1.46
  42  0.713  0.697  0.502-  53 1.38  47 1.45  43 1.46
  43  0.770  0.594  0.499-  54 1.37  41 1.46  42 1.46
  44  0.941  0.698  0.500-  45 1.42  41 1.43  13 1.44
  45  0.886  0.798  0.501-  44 1.42  47 1.44  48 1.44
  46  0.720  0.898  0.502-  29 1.42  47 1.42  32 1.43
  47  0.773  0.796  0.501-  46 1.42  45 1.44  42 1.45
  48  0.942  0.899  0.501-  30 1.42  17 1.43  45 1.44
  49  0.281  0.504  0.502-  12 1.36   9 1.37
  50  0.394  0.302  0.494-  25 1.37   8 1.38  55 2.09
  51  0.611  0.296  0.493-  24 1.36  35 1.36  55 1.91
  52  0.388  0.703  0.505-  15 1.37  28 1.37  56 1.97
  53  0.604  0.698  0.505-  26 1.38  42 1.38  56 2.10
  54  0.717  0.497  0.497-  39 1.36  43 1.37
  55  0.516  0.414  0.481-  51 1.91  50 2.09  56 2.24
  56  0.486  0.582  0.520-  52 1.97  53 2.10  55 2.24
 
  LATTYP: Found a triclinic cell.
 ALAT       =    26.9006269587
 B/A-ratio  =     0.4732677799
 C/A-ratio  =     0.4583908033
 COS(alpha) =     0.0000767945
 COS(beta)  =     0.4581789988
 COS(gamma) =     0.4734946735
  
  Lattice vectors:
  
 A1 = (  12.7373035787, -12.3243242096, -20.2364982419)
 A2 = (  12.7312000000,   0.0000000000,   0.0000000000)
 A3 = (   0.0009469528, -12.3309999636,   0.0000000000)


Analysis of symmetry for initial positions (statically):
=====================================================================
 Subroutine PRICEL returns:
 Original cell was already a primitive cell.
 

 Routine SETGRP: Setting up the symmetry group for a 
 triclinic supercell.


 Subroutine GETGRP returns: Found  1 space group operations
 (whereof  1 operations were pure point group operations)
 out of a pool of  2 trial point group operations.


The static configuration has the point symmetry C_1 .


Analysis of symmetry for dynamics (positions and initial velocities):
=====================================================================
 Subroutine PRICEL returns:
 Original cell was already a primitive cell.
 

 Routine SETGRP: Setting up the symmetry group for a 
 triclinic supercell.


 Subroutine GETGRP returns: Found  1 space group operations
 (whereof  1 operations were pure point group operations)
 out of a pool of  2 trial point group operations.


The dynamic configuration has the point symmetry C_1 .


Analysis of structural, dynamic, and magnetic symmetry:
=====================================================================
 Subroutine PRICEL returns:
 Original cell was already a primitive cell.
 

 Routine SETGRP: Setting up the symmetry group for a 
 triclinic supercell.


 Subroutine GETGRP returns: Found  1 space group operations
 (whereof  1 operations were pure point group operations)
 out of a pool of  2 trial point group operations.


The magnetic configuration has the point symmetry C_1 .


 Subroutine INISYM returns: Found  1 space group operations
 (whereof  1 operations are pure point group operations),
 and found     1 'primitive' translations

 
 
 KPOINTS: KPOINTS created by Atomic Simulation Env

Automatic generation of k-mesh.
Space group operators:
 irot       det(A)        alpha          n_x          n_y          n_z        tau_x        tau_y        tau_z
    1     1.000000     0.000000     1.000000     0.000000     0.000000     0.000000     0.000000     0.000000
 
 Subroutine IBZKPT returns following result:
 ===========================================
 
 Found      2 irreducible k-points:
 
 Following reciprocal coordinates:
            Coordinates               Weight
  0.250000  0.250000 -0.000000      2.000000
 -0.250000  0.250000  0.000000      2.000000
 
 Following cartesian coordinates:
            Coordinates               Weight
  0.019637  0.020276  0.000012      2.000000
 -0.019637  0.020273  0.000002      2.000000
 
 
 Subroutine IBZKPT_HF returns following result:
 ==============================================
 
 Found      4 k-points in 1st BZ
 the following      4 k-points will be used (e.g. in the exchange kernel)
 Following reciprocal coordinates:   # in IRBZ
  0.250000  0.250000 -0.000000    0.25000000   1 t-inv F
 -0.250000  0.250000  0.000000    0.25000000   2 t-inv F
 -0.250000 -0.250000  0.000000    0.25000000   1 t-inv T
  0.250000 -0.250000 -0.000000    0.25000000   2 t-inv T


--------------------------------------------------------------------------------------------------------




 Dimension of arrays:
   k-points           NKPTS =      2   k-points in BZ     NKDIM =      4   number of bands    NBANDS=    153
   number of dos      NEDOS =    301   number of ions     NIONS =     56
   non local maximal  LDIM  =      6   non local SUM 2l+1 LMDIM =     18
   total plane-waves  NPLWV = ******
   max r-space proj   IRMAX =      1   max aug-charges    IRDMAX=  14730
   dimension x,y,z NGX =    96 NGY =   90 NGZ =  150
   dimension x,y,z NGXF=   192 NGYF=  180 NGZF=  300
   support grid    NGXF=   192 NGYF=  180 NGZF=  300
   ions per type =              48   6   1   1
   NGX,Y,Z   is equivalent  to a cutoff of  12.54, 12.13, 12.32 a.u.
   NGXF,Y,Z  is equivalent  to a cutoff of  25.07, 24.27, 24.65 a.u.

 SYSTEM =  unknown system                          
 POSCAR =   C  N Ni Fe                             

 Startparameter for this run:
   NWRITE =      2    write-flag & timer
   PREC   = accura    normal or accurate (medium, high low for compatibility)
   ISTART =      1    job   : 0-new  1-cont  2-samecut
   ICHARG =      0    charge: 1-file 2-atom 10-const
   ISPIN  =      2    spin polarized calculation?
   LNONCOLLINEAR =      F non collinear calculations
   LSORBIT =      F    spin-orbit coupling
   INIWAV =      1    electr: 0-lowe 1-rand  2-diag
   LASPH  =      T    aspherical Exc in radial PAW
   METAGGA=      F    non-selfconsistent MetaGGA calc.

 Electronic Relaxation 1
   ENCUT  =  500.0 eV  36.75 Ry    6.06 a.u.  23.21 22.48 36.90*2*pi/ulx,y,z
   ENINI  =  500.0     initial cutoff
   ENAUG  =  644.9 eV  augmentation charge cutoff
   NELM   =    250;   NELMIN=  2; NELMDL=  0     # of ELM steps 
   EDIFF  = 0.1E-03   stopping-criterion for ELM
   LREAL  =      F    real-space projection
   NLSPLINE    = F    spline interpolate recip. space projectors
   LCOMPAT=      F    compatible to vasp.4.4
   GGA_COMPAT  = T    GGA compatible to vasp.4.4-vasp.4.6
   LMAXPAW     = -100 max onsite density
   LMAXMIX     =    2 max onsite mixed and CHGCAR
   VOSKOWN=      0    Vosko Wilk Nusair interpolation
   ROPT   =    0.00000   0.00000   0.00000   0.00000
 Ionic relaxation
   EDIFFG = -.3E-01   stopping-criterion for IOM
   NSW    =      0    number of steps for IOM
   NBLOCK =      1;   KBLOCK =      1    inner block; outer block 
   IBRION =     -1    ionic relax: 0-MD 1-quasi-New 2-CG
   NFREE  =      1    steps in history (QN), initial steepest desc. (CG)
   ISIF   =      2    stress and relaxation
   IWAVPR =     10    prediction:  0-non 1-charg 2-wave 3-comb
   ISYM   =      3    0-nonsym 1-usesym 2-fastsym
   LCORR  =      T    Harris-Foulkes like correction to forces

   POTIM  = 0.5000    time-step for ionic-motion
   TEIN   =    0.0    initial temperature
   TEBEG  =    0.0;   TEEND  =   0.0 temperature during run
   SMASS  =  -3.00    Nose mass-parameter (am)
   estimated Nose-frequenzy (Omega)   =  0.10E-29 period in steps =****** mass=  -0.370E-26a.u.
   SCALEE = 1.0000    scale energy and forces
   NPACO  =    256;   APACO  = 16.0  distance and # of slots for P.C.
   PSTRESS=    0.0 pullay stress

  Mass of Ions in am
   POMASS =  12.01 14.00 58.69 55.85
  Ionic Valenz
   ZVAL   =   4.00  5.00 10.00  8.00
  Atomic Wigner-Seitz radii
   RWIGS  =  -1.00 -1.00 -1.00 -1.00
  virtual crystal weights 
   VCA    =   1.00  1.00  1.00  1.00
   NELECT =     240.0000    total number of electrons
   NUPDOWN=      -1.0000    fix difference up-down

 DOS related values:
   EMIN   =  10.00;   EMAX   =-10.00  energy-range for DOS
   EFERMI =   0.00
   ISMEAR =     0;   SIGMA  =   0.10  broadening in eV -4-tet -1-fermi 0-gaus

 Electronic relaxation 2 (details)
   IALGO  =     53    algorithm
   LDIAG  =      T    sub-space diagonalisation (order eigenvalues)
   LSUBROT=      F    optimize rotation matrix (better conditioning)
   TURBO    =      0    0=normal 1=particle mesh
   IRESTART =      0    0=no restart 2=restart with 2 vectors
   NREBOOT  =      0    no. of reboots
   NMIN     =      0    reboot dimension
   EREF     =   0.00    reference energy to select bands
   IMIX   =      4    mixing-type and parameters
     AMIX     =   0.40;   BMIX     =  1.00
     AMIX_MAG =   1.60;   BMIX_MAG =  1.00
     AMIN     =   0.10
     WC   =   100.;   INIMIX=   1;  MIXPRE=   1;  MAXMIX= -45

 Intra band minimization:
   WEIMIN = 0.0000     energy-eigenvalue tresh-hold
   EBREAK =  0.16E-06  absolut break condition
   DEPER  =   0.30     relativ break condition  

   TIME   =   0.20     timestep for ELM

  volume/ion in A,a.u.               =      56.73       382.83
  Fermi-wavevector in a.u.,A,eV,Ry     =   0.692061  1.307805  6.516485  0.478948
  Thomas-Fermi vector in A             =   1.773887
 
 Write flags
   LWAVE        =      T    write WAVECAR
   LDOWNSAMPLE  =      F    k-point downsampling of WAVECAR
   LCHARG       =      T    write CHGCAR
   LVTOT        =      F    write LOCPOT, total local potential
   LVHAR        =      F    write LOCPOT, Hartree potential only
   LELF         =      F    write electronic localiz. function (ELF)
   LORBIT       =     11    0 simple, 1 ext, 2 COOP (PROOUT), +10 PAW based schemes


 Dipole corrections
   LMONO  =      F    monopole corrections only (constant potential shift)
   LDIPOL =      T    correct potential (dipole corrections)
   IDIPOL =      3    1-x, 2-y, 3-z, 4-all directions 
   EPSILON=  1.0000000 bulk dielectric constant

 Exchange correlation treatment:
   GGA     =    PE    GGA type
   LEXCH   =     8    internal setting for exchange type
   VOSKOWN=      0    Vosko Wilk Nusair interpolation
   EXXOEP  =     0    0=HF, 1=EXX-LHF (local Hartree Fock) 2=EXX OEP
   LHFCALC =     T    Hartree Fock is set to
   LSYMGRAD=     F    symmetrize gradient (conserves proper symmetry)
   PRECFOCK=normal    Normal, Fast or Accurate (Low or Medium for compatibility)
   LRHFCALC=     F    long range Hartree Fock
   LRSCOR  =     F    long range correlation only (use DFT for short range part)
   LTHOMAS =     F    Thomas Fermi screening in HF
   LMODELHF=     F    short range full HF, long range fraction AEXX
   ENCUT4O =  -1.0   cutoff for four orbital integrals eV
   LMAXFOCK=     4    L truncation for augmentation on plane wave grid
   LMAXFOCKAE=  -1    L truncation for all-electron charge restoration on plane wave grid
   NMAXFOCKAE=   1    number of basis functions for all-electron charge restoration
   LFOCKAEDFT=     F  apply the AE augmentation even for DFT
   NKREDX  =     1    reduce k-point grid by
   NKREDY  =     1    reduce k-point grid by
   NKREDZ  =     1    reduce k-point grid by
   SHIFTRED=     F    shift reduced grid of Gamma
   HFKIDENT=     F    idential grid for each k-point
   ODDONLY =     F    use only odd q-grid points
   EVENONLY=     F    use only even q-grid points
   HFALPHA =   -1.0000 decay constant for conv. correction
   MCALPHA =    0.0000 extent of test-charge in conv. correction in multipole expansion
   AEXX    =    0.2500 exact exchange contribution
   HFSCREEN=    0.2000 screening length (either q_TF or 0.3 A-1)
   HFSCREENC=   0.2000 screening length for correlation (either q_TF or 0.3 A-1)
   HFRCUT  =    0.0000 spherical cutoff for potential kernel
   ALDAX   =    0.7500 LDA exchange part
   AGGAX   =    0.7500 GGA exchange part
   ALDAC   =    1.0000 LDA correlation
   AGGAC   =    1.0000 GGA correlation
   ENCUTFOCK=  -1.0 apply spherical cutoff to Coloumb kernel
   NBANDSGWLOW=     1    first orbital included in HF term
   NBLOCK_FOCK=    64    blocking factor in FOCK_ACC
 Linear response parameters
   LEPSILON=     F    determine dielectric tensor
   LRPA    =     F    only Hartree local field effects (RPA)
   LNABLA  =     F    use nabla operator in PAW spheres
   LVEL    =     F    velocity operator in full k-point grid
   LINTERFAST=   F  fast interpolation
   KINTER  =     0    interpolate to denser k-point grid
   CSHIFT  =0.1000    complex shift for real part using Kramers Kronig
   OMEGAMAX=  -1.0    maximum frequency
   DEG_THRESHOLD= 0.2000000E-02 threshold for treating states as degnerate
   RTIME   =   -0.100 relaxation time in fs
  (WPLASMAI=    0.000 imaginary part of plasma frequency in eV, 0.658/RTIME)
   DFIELD  = 0.0000000 0.0000000 0.0000000 field for delta impulse in time
 
 Orbital magnetization related:
   ORBITALMAG=     F  switch on orbital magnetization
   LCHIMAG   =     F  perturbation theory with respect to B field
   DQ        =  0.001000  dq finite difference perturbation B field
   LLRAUG    =     F  two centre corrections for induced B field



--------------------------------------------------------------------------------------------------------


 Static calculation
 charge density and potential will be updated during run
 spin polarized calculation
 Conjugate gradient for all bands (Freysoldt, et al. PRB 79, 241103 (2009))
 perform sub-space diagonalisation
    before iterative eigenvector-optimisation
 modified Broyden-mixing scheme, WC =      100.0
 initial mixing is a Kerker type mixing with AMIX =  0.4000 and BMIX =      1.0000
 Hartree-type preconditioning will be used
 using additional bands           33
 reciprocal scheme for non local part
 use partial core corrections
 no Harris-corrections to forces 
 use gradient corrections 
 use of overlap-Matrix (Vanderbilt PP)
 Gauss-broadening in eV      SIGMA  =   0.10


--------------------------------------------------------------------------------------------------------


  energy-cutoff  :      500.00
  volume of cell :     3176.90
      direct lattice vectors                 reciprocal lattice vectors
    12.731200000  0.000000000  0.000000000     0.078547191  0.000006032  0.000020017
    -0.000946953 12.330999964  0.000000000     0.000000000  0.081096424  0.000026753
    -0.005156626 -0.006675754 20.236498242     0.000000000  0.000000000  0.049415664

  length of vectors
    12.731200000 12.331000000 20.236500000     0.078547194  0.081096428  0.049415664


 
 old parameters found on file WAVECAR:
  energy-cutoff  :      500.00
  volume of cell :     3176.90
      direct lattice vectors                 reciprocal lattice vectors
    12.731200000  0.000000000  0.000000000     0.078547191  0.000006032  0.000020017
    -0.000946953 12.330999964  0.000000000     0.000000000  0.081096424  0.000026753
    -0.005156626 -0.006675754 20.236498242     0.000000000  0.000000000  0.049415664

  length of vectors

 
 k-points in units of 2pi/SCALE and weight: KPOINTS created by Atomic Simulation Env
   0.01963680  0.02027561  0.00001169       0.500
  -0.01963680  0.02027260  0.00000168       0.500
 
 k-points in reciprocal lattice and weights: KPOINTS created by Atomic Simulation Env
   0.25000000  0.25000000 -0.00000000       0.500
  -0.25000000  0.25000000  0.00000000       0.500
 
 position of ions in fractional coordinates (direct lattice) 
   0.22184125  0.00173872  0.49995999
   0.05617765  0.10182825  0.49959246
   0.11007396  0.00098543  0.49994269
   0.27787409  0.10249574  0.49884190
   0.22539989  0.20459656  0.49823481
   0.05673273  0.30242223  0.49908468
   0.11253729  0.20287218  0.49905266
   0.28583125  0.30440480  0.49710948
   0.22828141  0.40714609  0.49957887
   0.05569934  0.50079765  0.49974913
   0.11403865  0.40221363  0.49942791
   0.22512174  0.59793152  0.50204573
   0.05419770  0.69946367  0.50036912
   0.11168135  0.60045740  0.50047980
   0.28029354  0.70113462  0.50322742
   0.22207159  0.79993736  0.50161550
   0.05449982  0.90001543  0.50036031
   0.10977518  0.79967608  0.50068338
   0.27650208  0.90126836  0.50127514
   0.55452842  0.99924108  0.50110459
   0.38933206  0.10224337  0.49875510
   0.44371688  0.00116674  0.50075868
   0.61031742  0.09913810  0.49939028
   0.55743935  0.20020593  0.49615028
   0.44364456  0.20341964  0.49615167
   0.55438458  0.79736117  0.50408214
   0.38806456  0.90118930  0.50210821
   0.44112800  0.79979849  0.50421314
   0.60887594  0.89848126  0.50238310
   0.88833969  0.99974906  0.50057264
   0.72181299  0.09933188  0.49983162
   0.77657353  0.99879326  0.50096327
   0.94392284  0.10068888  0.49994030
   0.88854034  0.20099728  0.49940891
   0.71762420  0.29913744  0.49619619
   0.77631470  0.20048408  0.49879062
   0.94377148  0.30139999  0.49898801
   0.88590984  0.40038859  0.49846221
   0.77240453  0.40294599  0.49697976
   0.94217251  0.50006781  0.49905604
   0.88411643  0.59862038  0.49927722
   0.71307844  0.69654170  0.50192968
   0.76979699  0.59403798  0.49922417
   0.94133532  0.69843004  0.50002042
   0.88577310  0.79804165  0.50050966
   0.72049622  0.89829019  0.50179723
   0.77303391  0.79626166  0.50138332
   0.94227256  0.89891059  0.50053072
   0.28081938  0.50374762  0.50204862
   0.39419061  0.30236777  0.49433703
   0.61065060  0.29585830  0.49326938
   0.38785353  0.70305601  0.50549180
   0.60443531  0.69821636  0.50487159
   0.71667000  0.49741056  0.49713062
   0.51602116  0.41425588  0.48115209
   0.48644753  0.58193827  0.51957873
 
 position of ions in cartesian coordinates  (Angst):
   2.82172555  0.01810255 10.11743942
   0.71253624  1.25230897 10.11000191
   1.39879463  0.00881385 10.11708929
   3.53500121  1.26054480 10.09481317
   2.86684809  2.51955408 10.08252778
   0.71941574  3.72583680 10.09972620
   1.42996926  2.49828524 10.09907832
   3.63612316  3.75029697 10.05975517
   2.90333454  5.01718338 10.10972691
   0.70606818  6.17199965 10.11317238
   1.44889268  4.95636217 10.10667195
   2.86291482  7.36974204 10.15964747
   0.68675917  8.62174619 10.12571886
   1.41868819  7.40089905 10.12795851
   3.56521426  8.64233155 10.18356083
   2.82389363  9.86067889 10.15094119
   0.69041563 11.09474989 10.12554048
   1.39423067  9.85746322 10.13207839
   3.51676500 11.11019370 10.14405358
   7.05628192 12.31829650 10.14060214
   4.95399558  1.25743347 10.09305678
   5.64646503  0.01104417 10.13360215
   7.76740415  1.21913811 10.10591048
   7.09412375  2.46542713 10.04034423
   5.64537648  2.50505537 10.04037246
   7.05462653  9.82889544 10.20085743
   4.93708501 11.10921324 10.16091188
   5.61273136  9.85894911 10.20350828
   7.74827995 11.07581857 10.16647473
  11.30610233 12.32456392 10.12983733
   9.18687401  1.22152463 10.11484180
   9.88318379 12.31277531 10.13774227
  12.01459710  1.23825708 10.11704109
  11.30941923  2.47516350 10.10628748
   9.13337525  3.68535133 10.04127324
   9.88065579  2.46883937 10.09377542
  12.01248494  3.71323216 10.09777009
  11.27574583  4.93386406 10.08712973
   9.83069221  4.96540927 10.05713004
  11.99193967  6.16300451 10.09914673
  11.25272160  7.37825485 10.10362252
   9.07509641  8.58570489 10.15729919
   9.79730263  7.32174963 10.10254894
  11.98108843  8.60900273 10.11866231
  11.27361789  9.83731031 10.12856280
   9.16934320 11.07346643 10.15461880
   9.83830980  9.81535544 10.14624277
  11.99282813 11.08112506 10.12898895
   3.57210174  6.20836037 10.15970595
   5.01568408  3.72519690 10.00365042
   7.77149110  3.64493570  9.98204486
   4.93456853  8.66600907 10.22938390
   7.69192218  8.60633548 10.21683295
   9.12103462  6.13025087 10.06018283
   6.56669516  5.10497719  9.73683352
   6.18983043  7.17241220 10.51445414
 


--------------------------------------------------------------------------------------------------------


 k-point  1 :   0.2500 0.2500-0.0000  plane waves:   80666
 k-point  2 :  -0.2500 0.2500 0.0000  plane waves:   80667

 maximum and minimum number of plane-waves per node :      3387     3334

 maximum number of plane-waves:     80667
 maximum index in each direction: 
   IXMAX=   23   IYMAX=   22   IZMAX=   36
   IXMIN=  -23   IYMIN=  -22   IZMIN=  -36


 parallel 3D FFT for wavefunctions:
    minimum data exchange during FFTs selected (reduces bandwidth)
 parallel 3D FFT for charge:
    minimum data exchange during FFTs selected (reduces bandwidth)


 FFT grid for exact exchange (Hartree Fock) 
  NGX = 70; NGY = 70; NGZ =112

 
 Radii for the augmentation spheres in the non-local exchange
 for species   1 augmentation radius   0.874 (default was   0.699)
       energy cutoff for augmentation   2000.0
 for species   2 augmentation radius   0.886 (default was   0.709)
       energy cutoff for augmentation   2000.0
 for species   3 augmentation radius   1.224 (default was   0.979)
       energy cutoff for augmentation   2000.0
 for species   4 augmentation radius   1.263 (default was   1.010)
       energy cutoff for augmentation   2000.0

 real space projection operators:
  total allocation   :       2370.23 KBytes
  max/ min on nodes  :        140.76         36.84

 Maximum index for augmentation-charges in exchange           64
  SETUP_FOCK is finished

 total amount of memory used by VASP MPI-rank0   202901. kBytes
=======================================================================

   base      :      30000. kBytes
   nonl-proj :       6952. kBytes
   fftplans  :      17535. kBytes
   grid      :      46049. kBytes
   one-center:         93. kBytes
   HF        :         46. kBytes
   nonlr-proj:       1498. kBytes
   wavefun   :     100728. kBytes
 
     INWAV:  cpu time    3.4176: real time    5.9151
 Broyden mixing: mesh for mixing (old mesh)
   NGX = 47   NGY = 45   NGZ = 73
  (NGX  =192   NGY  =180   NGZ  =300)
  gives a total of 154395 points

 charge density for first step will be calculated from the start-wavefunctions


--------------------------------------------------------------------------------------------------------


 Maximum index for augmentation-charges          672 (set IRDMAX)


--------------------------------------------------------------------------------------------------------


 initial charge from wavefunction
 First call to EWALD:  gamma=   0.121
 Maximum number of real-space cells 3x 3x 2
 Maximum number of reciprocal cells 2x 2x 4

    FEWALD:  cpu time    0.0023: real time    0.0023


--------------------------------------- Iteration      1(   1)  ---------------------------------------


    POTLOK:  cpu time    2.0494: real time    2.0669
    SETDIJ:  cpu time    2.0919: real time    2.0958
    TRIAL :  cpu time  322.4998: real time  322.9790
    CORREC:  cpu time    0.0010: real time    0.0010
    CHARGE:  cpu time    1.3439: real time    1.3450
    --------------------------------------------
      LOOP:  cpu time  328.0200: real time  328.5229

 eigenvalue-minimisations  :     0
 total energy-change (2. order) :-0.5821768E+03  (-0.4958104E+00)
 number of electron     239.9999987 magnetization       4.0090601
 augmentation part       16.3930095 magnetization       3.2355889

 DIPCOR: dipole corrections for dipol
 direction  3 min pos     1,
 dipolmoment           0.000020      0.000026     -0.079152 electrons x Angstroem
 Tr[quadrupol]     -6318.919472

 energy correction for charged system         0.000000 eV
 dipol+quadrupol energy correction           -0.000179 eV
 added-field ion interaction         -0.004370 eV  (added to PSCEN)


 Free energy of the ion-electron system (eV)
  ---------------------------------------------------
  alpha Z        PSCENC =        94.61213683
  Ewald energy   TEWEN  =     38887.44773421
  -Hartree energ DENC   =    -47736.42199240
  -exchange      EXHF   =       551.07392955
  -V(xc)+E(xc)   XCENC  =       626.35910546
  PAW double counting   =     26008.85644604   -26108.16016898
  entropy T*S    EENTRO =        -0.00299856
  eigenvalues    EBANDS =     -3118.31186191
  atomic energy  EATOM  =     10212.37269277
  ---------------------------------------------------
  free energy    TOTEN  =      -582.17677979 eV

  energy without entropy =     -582.17378123  energy(sigma->0) =     -582.17528051
  exchange ACFDT corr.  =        -0.00492280  see jH, gK, PRB 81, 115126


--------------------------------------------------------------------------------------------------------




--------------------------------------- Iteration      1(   2)  ---------------------------------------


    POTLOK:  cpu time    2.0741: real time    2.0934
    SETDIJ:  cpu time    2.0954: real time    2.0968
    TRIAL :  cpu time  322.9327: real time  323.4168
    CORREC:  cpu time    0.0009: real time    0.0009
    CHARGE:  cpu time    1.3467: real time    1.3475
    --------------------------------------------
      LOOP:  cpu time  328.4523: real time  328.9599

 eigenvalue-minimisations  :     0
 total energy-change (2. order) :-0.3850345E+00  (-0.4296750E+00)
 number of electron     239.9999987 magnetization       4.0045319
 augmentation part       16.3796422 magnetization       3.2960321

 DIPCOR: dipole corrections for dipol
 direction  3 min pos     1,
 dipolmoment           0.000028      0.000037     -0.110961 electrons x Angstroem
 Tr[quadrupol]     -6318.781756

 energy correction for charged system         0.000000 eV
 dipol+quadrupol energy correction           -0.000352 eV
 added-field ion interaction         -0.006126 eV  (added to PSCEN)


 Free energy of the ion-electron system (eV)
  ---------------------------------------------------
  alpha Z        PSCENC =        94.61020784
  Ewald energy   TEWEN  =     38887.44773421
  -Hartree energ DENC   =    -47728.09312821
  -exchange      EXHF   =       551.09899075
  -V(xc)+E(xc)   XCENC  =       626.16498419
  PAW double counting   =     26133.73090847   -26233.94443760
  entropy T*S    EENTRO =        -0.00153431
  eigenvalues    EBANDS =     -3125.94676815
  atomic energy  EATOM  =     10212.37269277
  ---------------------------------------------------
  free energy    TOTEN  =      -582.56181428 eV

  energy without entropy =     -582.56027998  energy(sigma->0) =     -582.56104713
  exchange ACFDT corr.  =        -0.00391363  see jH, gK, PRB 81, 115126


--------------------------------------------------------------------------------------------------------




--------------------------------------- Iteration      1(   3)  ---------------------------------------


    POTLOK:  cpu time    2.1069: real time    2.1090
    SETDIJ:  cpu time    2.0837: real time    2.1006
    TRIAL :  cpu time  321.6786: real time  322.1464
    CORREC:  cpu time    0.0009: real time    0.0009
    CHARGE:  cpu time    1.3433: real time    1.3440
    --------------------------------------------
      LOOP:  cpu time  327.2145: real time  327.7048

 eigenvalue-minimisations  :     0
 total energy-change (2. order) :-0.3334100E+00  (-0.2536807E+00)
 number of electron     239.9999987 magnetization       4.0023475
 augmentation part       16.3557938 magnetization       3.3477801

 DIPCOR: dipole corrections for dipol
 direction  3 min pos     1,
 dipolmoment           0.000025      0.000033     -0.099647 electrons x Angstroem
 Tr[quadrupol]     -6318.620264

 energy correction for charged system         0.000000 eV
 dipol+quadrupol energy correction           -0.000284 eV
 added-field ion interaction         -0.005502 eV  (added to PSCEN)


 Free energy of the ion-electron system (eV)
  ---------------------------------------------------
  alpha Z        PSCENC =        94.61090056
  Ewald energy   TEWEN  =     38887.44773421
  -Hartree energ DENC   =    -47713.26941500
  -exchange      EXHF   =       551.07804771
  -V(xc)+E(xc)   XCENC  =       625.80900649
  PAW double counting   =     26283.93242335   -26383.54574849
  entropy T*S    EENTRO =        -0.00082000
  eigenvalues    EBANDS =     -3141.32933157
  atomic energy  EATOM  =     10212.37269277
  ---------------------------------------------------
  free energy    TOTEN  =      -582.89522428 eV

  energy without entropy =     -582.89440429  energy(sigma->0) =     -582.89481428
  exchange ACFDT corr.  =        -0.00161431  see jH, gK, PRB 81, 115126


--------------------------------------------------------------------------------------------------------




--------------------------------------- Iteration      1(   4)  ---------------------------------------


    POTLOK:  cpu time    2.1142: real time    2.1167
    SETDIJ:  cpu time    2.0884: real time    2.0903
    TRIAL :  cpu time  321.8626: real time  322.3948
    CORREC:  cpu time    0.0009: real time    0.0009
    CHARGE:  cpu time    1.3403: real time    1.3432
    --------------------------------------------
      LOOP:  cpu time  327.4079: real time  327.9499

 eigenvalue-minimisations  :     0
 total energy-change (2. order) :-0.1914776E+00  (-0.1480058E+00)
 number of electron     239.9999987 magnetization       4.0012177
 augmentation part       16.3610738 magnetization       3.3776095

 DIPCOR: dipole corrections for dipol
 direction  3 min pos     1,
 dipolmoment           0.000024      0.000031     -0.094403 electrons x Angstroem
 Tr[quadrupol]     -6318.548790

 energy correction for charged system         0.000000 eV
 dipol+quadrupol energy correction           -0.000255 eV
 added-field ion interaction         -0.005212 eV  (added to PSCEN)


 Free energy of the ion-electron system (eV)
  ---------------------------------------------------
  alpha Z        PSCENC =        94.61121922
  Ewald energy   TEWEN  =     38887.44773421
  -Hartree energ DENC   =    -47704.85904530
  -exchange      EXHF   =       551.21415844
  -V(xc)+E(xc)   XCENC  =       625.63374580
  PAW double counting   =     26412.07116271   -26510.85182813
  entropy T*S    EENTRO =        -0.00045491
  eigenvalues    EBANDS =     -3150.72572157
  atomic energy  EATOM  =     10212.37269277
  ---------------------------------------------------
  free energy    TOTEN  =      -583.08670185 eV

  energy without entropy =     -583.08624694  energy(sigma->0) =     -583.08647439
  exchange ACFDT corr.  =        -0.00077905  see jH, gK, PRB 81, 115126


--------------------------------------------------------------------------------------------------------




--------------------------------------- Iteration      1(   5)  ---------------------------------------


    POTLOK:  cpu time    2.1150: real time    2.1175
    SETDIJ:  cpu time    2.0898: real time    2.0920
    TRIAL :  cpu time  320.2597: real time  320.7787
    CORREC:  cpu time    0.0009: real time    0.0009
    CHARGE:  cpu time    1.3423: real time    1.3431
    --------------------------------------------
      LOOP:  cpu time  325.8089: real time  326.3364

 eigenvalue-minimisations  :     0
 total energy-change (2. order) :-0.1176765E+00  (-0.9396617E-01)
 number of electron     239.9999987 magnetization       4.0006067
 augmentation part       16.3794096 magnetization       3.3910594

 DIPCOR: dipole corrections for dipol
 direction  3 min pos     1,
 dipolmoment           0.000026      0.000034     -0.101891 electrons x Angstroem
 Tr[quadrupol]     -6318.576779

 energy correction for charged system         0.000000 eV
 dipol+quadrupol energy correction           -0.000297 eV
 added-field ion interaction         -0.005626 eV  (added to PSCEN)


 Free energy of the ion-electron system (eV)
  ---------------------------------------------------
  alpha Z        PSCENC =        94.61076375
  Ewald energy   TEWEN  =     38887.44773421
  -Hartree energ DENC   =    -47706.64849324
  -exchange      EXHF   =       551.53012407
  -V(xc)+E(xc)   XCENC  =       625.72004535
  PAW double counting   =     26507.61871057   -26606.44255129
  entropy T*S    EENTRO =        -0.00025402
  eigenvalues    EBANDS =     -3149.41294965
  atomic energy  EATOM  =     10212.37269277
  ---------------------------------------------------
  free energy    TOTEN  =      -583.20437837 eV

  energy without entropy =     -583.20412436  energy(sigma->0) =     -583.20425137
  exchange ACFDT corr.  =        -0.00038822  see jH, gK, PRB 81, 115126


--------------------------------------------------------------------------------------------------------




--------------------------------------- Iteration      1(   6)  ---------------------------------------


    POTLOK:  cpu time    2.1073: real time    2.1093
    SETDIJ:  cpu time    2.0904: real time    2.0930
    TRIAL :  cpu time  318.6135: real time  319.3512
    CORREC:  cpu time    0.0009: real time    0.0009
    CHARGE:  cpu time    1.3411: real time    1.3435
    --------------------------------------------
      LOOP:  cpu time  324.1545: real time  324.9017

 eigenvalue-minimisations  :     0
 total energy-change (2. order) :-0.7737353E-01  (-0.6318898E-01)
 number of electron     239.9999986 magnetization       4.0003072
 augmentation part       16.3899420 magnetization       3.3960521

 DIPCOR: dipole corrections for dipol
 direction  3 min pos     1,
 dipolmoment           0.000026      0.000034     -0.103682 electrons x Angstroem
 Tr[quadrupol]     -6318.637531

 energy correction for charged system         0.000000 eV
 dipol+quadrupol energy correction           -0.000307 eV
 added-field ion interaction         -0.005724 eV  (added to PSCEN)


 Free energy of the ion-electron system (eV)
  ---------------------------------------------------
  alpha Z        PSCENC =        94.61065438
  Ewald energy   TEWEN  =     38887.44773421
  -Hartree energ DENC   =    -47711.87504774
  -exchange      EXHF   =       551.86187850
  -V(xc)+E(xc)   XCENC  =       625.88332453
  PAW double counting   =     26570.93855633   -26670.06901208
  entropy T*S    EENTRO =        -0.00014844
  eigenvalues    EBANDS =     -3144.45227879
  atomic energy  EATOM  =     10212.37269277
  ---------------------------------------------------
  free energy    TOTEN  =      -583.28175191 eV

  energy without entropy =     -583.28160347  energy(sigma->0) =     -583.28167769
  exchange ACFDT corr.  =        -0.00019542  see jH, gK, PRB 81, 115126


--------------------------------------------------------------------------------------------------------




--------------------------------------- Iteration      1(   7)  ---------------------------------------


    POTLOK:  cpu time    2.0997: real time    2.1031
    SETDIJ:  cpu time    2.0904: real time    2.0915
    TRIAL :  cpu time  318.7172: real time  319.1924
    CORREC:  cpu time    0.0008: real time    0.0008
    CHARGE:  cpu time    1.3410: real time    1.3418
    --------------------------------------------
      LOOP:  cpu time  324.2500: real time  324.7332

 eigenvalue-minimisations  :     0
 total energy-change (2. order) :-0.5364267E-01  (-0.4363287E-01)
 number of electron     239.9999986 magnetization       4.0001660
 augmentation part       16.3915010 magnetization       3.3971277

 DIPCOR: dipole corrections for dipol
 direction  3 min pos     1,
 dipolmoment           0.000025      0.000033     -0.099832 electrons x Angstroem
 Tr[quadrupol]     -6318.683418

 energy correction for charged system         0.000000 eV
 dipol+quadrupol energy correction           -0.000285 eV
 added-field ion interaction         -0.005512 eV  (added to PSCEN)


 Free energy of the ion-electron system (eV)
  ---------------------------------------------------
  alpha Z        PSCENC =        94.61088932
  Ewald energy   TEWEN  =     38887.44773421
  -Hartree energ DENC   =    -47715.57918326
  -exchange      EXHF   =       552.10566658
  -V(xc)+E(xc)   XCENC  =       625.99963937
  PAW double counting   =     26607.85347595   -26707.05026992
  entropy T*S    EENTRO =        -0.00009377
  eigenvalues    EBANDS =     -3141.09589117
  atomic energy  EATOM  =     10212.37269277
  ---------------------------------------------------
  free energy    TOTEN  =      -583.33539458 eV

  energy without entropy =     -583.33530082  energy(sigma->0) =     -583.33534770
  exchange ACFDT corr.  =        -0.00010396  see jH, gK, PRB 81, 115126


--------------------------------------------------------------------------------------------------------




--------------------------------------- Iteration      1(   8)  ---------------------------------------


    POTLOK:  cpu time    2.0942: real time    2.0956
    SETDIJ:  cpu time    2.0882: real time    2.0907
    TRIAL :  cpu time  319.2919: real time  319.7804
    CORREC:  cpu time    0.0008: real time    0.0008
    CHARGE:  cpu time    1.3424: real time    1.3435
    --------------------------------------------
      LOOP:  cpu time  324.8184: real time  325.3145

 eigenvalue-minimisations  :     0
 total energy-change (2. order) :-0.3768999E-01  (-0.3062419E-01)
 number of electron     239.9999986 magnetization       4.0000950
 augmentation part       16.3936932 magnetization       3.3971377

 DIPCOR: dipole corrections for dipol
 direction  3 min pos     1,
 dipolmoment           0.000025      0.000032     -0.097511 electrons x Angstroem
 Tr[quadrupol]     -6318.704627

 energy correction for charged system         0.000000 eV
 dipol+quadrupol energy correction           -0.000272 eV
 added-field ion interaction         -0.005384 eV  (added to PSCEN)


 Free energy of the ion-electron system (eV)
  ---------------------------------------------------
  alpha Z        PSCENC =        94.61103055
  Ewald energy   TEWEN  =     38887.44773421
  -Hartree energ DENC   =    -47717.18325911
  -exchange      EXHF   =       552.25910281
  -V(xc)+E(xc)   XCENC  =       626.05879979
  PAW double counting   =     26626.85176064   -26725.96232874
  entropy T*S    EENTRO =        -0.00006369
  eigenvalues    EBANDS =     -3139.82852373
  atomic energy  EATOM  =     10212.37269277
  ---------------------------------------------------
  free energy    TOTEN  =      -583.37308458 eV

  energy without entropy =     -583.37302089  energy(sigma->0) =     -583.37305273
  exchange ACFDT corr.  =        -0.00005752  see jH, gK, PRB 81, 115126


--------------------------------------------------------------------------------------------------------




--------------------------------------- Iteration      1(   9)  ---------------------------------------


    POTLOK:  cpu time    2.0865: real time    2.0881
    SETDIJ:  cpu time    2.0820: real time    2.0829
    TRIAL :  cpu time  319.7845: real time  320.1984
    CORREC:  cpu time    0.0008: real time    0.0008
    CHARGE:  cpu time    1.3493: real time    1.3502
    --------------------------------------------
      LOOP:  cpu time  325.3041: real time  325.7240

 eigenvalue-minimisations  :     0
 total energy-change (2. order) :-0.2698748E-01  (-0.2211196E-01)
 number of electron     239.9999986 magnetization       4.0000570
 augmentation part       16.3983984 magnetization       3.3978821

 DIPCOR: dipole corrections for dipol
 direction  3 min pos     1,
 dipolmoment           0.000025      0.000032     -0.097640 electrons x Angstroem
 Tr[quadrupol]     -6318.711428

 energy correction for charged system         0.000000 eV
 dipol+quadrupol energy correction           -0.000272 eV
 added-field ion interaction         -0.005391 eV  (added to PSCEN)


 Free energy of the ion-electron system (eV)
  ---------------------------------------------------
  alpha Z        PSCENC =        94.61102272
  Ewald energy   TEWEN  =     38887.44773421
  -Hartree energ DENC   =    -47717.97303137
  -exchange      EXHF   =       552.36243123
  -V(xc)+E(xc)   XCENC  =       626.09445888
  PAW double counting   =     26636.31114792   -26735.43765527
  entropy T*S    EENTRO =        -0.00004603
  eigenvalues    EBANDS =     -3139.18880944
  atomic energy  EATOM  =     10212.37269277
  ---------------------------------------------------
  free energy    TOTEN  =      -583.40007206 eV

  energy without entropy =     -583.40002602  energy(sigma->0) =     -583.40004904
  exchange ACFDT corr.  =        -0.00003681  see jH, gK, PRB 81, 115126


--------------------------------------------------------------------------------------------------------




--------------------------------------- Iteration      1(  10)  ---------------------------------------


    POTLOK:  cpu time    2.0616: real time    2.0799
    SETDIJ:  cpu time    2.0818: real time    2.0843
    TRIAL :  cpu time  320.2838: real time  320.7537
    CORREC:  cpu time    0.0008: real time    0.0008
    CHARGE:  cpu time    1.3404: real time    1.3413
    --------------------------------------------
      LOOP:  cpu time  325.7696: real time  326.2643

 eigenvalue-minimisations  :     0
 total energy-change (2. order) :-0.1976511E-01  (-0.1633327E-01)
 number of electron     239.9999986 magnetization       4.0000362
 augmentation part       16.4022434 magnetization       3.3994947

 DIPCOR: dipole corrections for dipol
 direction  3 min pos     1,
 dipolmoment           0.000025      0.000032     -0.097503 electrons x Angstroem
 Tr[quadrupol]     -6318.712277

 energy correction for charged system         0.000000 eV
 dipol+quadrupol energy correction           -0.000272 eV
 added-field ion interaction         -0.005383 eV  (added to PSCEN)


 Free energy of the ion-electron system (eV)
  ---------------------------------------------------
  alpha Z        PSCENC =        94.61103102
  Ewald energy   TEWEN  =     38887.44773421
  -Hartree energ DENC   =    -47718.45349518
  -exchange      EXHF   =       552.43836182
  -V(xc)+E(xc)   XCENC  =       626.11918789
  PAW double counting   =     26641.05228357   -26740.27730420
  entropy T*S    EENTRO =        -0.00003532
  eigenvalues    EBANDS =     -3138.73028304
  atomic energy  EATOM  =     10212.37269277
  ---------------------------------------------------
  free energy    TOTEN  =      -583.41983717 eV

  energy without entropy =     -583.41980185  energy(sigma->0) =     -583.41981951
  exchange ACFDT corr.  =        -0.00002532  see jH, gK, PRB 81, 115126


--------------------------------------------------------------------------------------------------------




--------------------------------------- Iteration      1(  11)  ---------------------------------------


    POTLOK:  cpu time    2.0725: real time    2.0745
    SETDIJ:  cpu time    2.0835: real time    2.0858
    TRIAL :  cpu time  319.8423: real time  320.3343
    CORREC:  cpu time    0.0009: real time    0.0009
    CHARGE:  cpu time    1.3450: real time    1.3465
    --------------------------------------------
      LOOP:  cpu time  325.3451: real time  325.8462

 eigenvalue-minimisations  :     0
 total energy-change (2. order) :-0.1478459E-01  (-0.1233343E-01)
 number of electron     239.9999986 magnetization       4.0000246
 augmentation part       16.4036306 magnetization       3.4013565

 DIPCOR: dipole corrections for dipol
 direction  3 min pos     1,
 dipolmoment           0.000025      0.000032     -0.096434 electrons x Angstroem
 Tr[quadrupol]     -6318.710661

 energy correction for charged system         0.000000 eV
 dipol+quadrupol energy correction           -0.000266 eV
 added-field ion interaction         -0.005324 eV  (added to PSCEN)


 Free energy of the ion-electron system (eV)
  ---------------------------------------------------
  alpha Z        PSCENC =        94.61109598
  Ewald energy   TEWEN  =     38887.44773421
  -Hartree energ DENC   =    -47718.61815944
  -exchange      EXHF   =       552.49460455
  -V(xc)+E(xc)   XCENC  =       626.13332010
  PAW double counting   =     26643.20430585   -26742.50028880
  entropy T*S    EENTRO =        -0.00002863
  eigenvalues    EBANDS =     -3138.57989166
  atomic energy  EATOM  =     10212.37269277
  ---------------------------------------------------
  free energy    TOTEN  =      -583.43462176 eV

  energy without entropy =     -583.43459313  energy(sigma->0) =     -583.43460744
  exchange ACFDT corr.  =        -0.00001865  see jH, gK, PRB 81, 115126


--------------------------------------------------------------------------------------------------------




--------------------------------------- Iteration      1(  12)  ---------------------------------------


    POTLOK:  cpu time    2.0677: real time    2.0699
    SETDIJ:  cpu time    2.0868: real time    2.0888
    TRIAL :  cpu time  319.6363: real time  320.1168
    CORREC:  cpu time    0.0008: real time    0.0008
    CHARGE:  cpu time    1.3407: real time    1.3417
    --------------------------------------------
      LOOP:  cpu time  325.1332: real time  325.6221

 eigenvalue-minimisations  :     0
 total energy-change (2. order) :-0.1127981E-01  (-0.9476050E-02)
 number of electron     239.9999986 magnetization       4.0000178
 augmentation part       16.4040803 magnetization       3.4027584

 DIPCOR: dipole corrections for dipol
 direction  3 min pos     1,
 dipolmoment           0.000024      0.000031     -0.095408 electrons x Angstroem
 Tr[quadrupol]     -6318.708127

 energy correction for charged system         0.000000 eV
 dipol+quadrupol energy correction           -0.000260 eV
 added-field ion interaction         -0.005268 eV  (added to PSCEN)


 Free energy of the ion-electron system (eV)
  ---------------------------------------------------
  alpha Z        PSCENC =        94.61115822
  Ewald energy   TEWEN  =     38887.44773421
  -Hartree energ DENC   =    -47718.54750903
  -exchange      EXHF   =       552.53692424
  -V(xc)+E(xc)   XCENC  =       626.13968211
  PAW double counting   =     26644.06063890   -26743.37016021
  entropy T*S    EENTRO =        -0.00002427
  eigenvalues    EBANDS =     -3138.69703414
  atomic energy  EATOM  =     10212.37269277
  ---------------------------------------------------
  free energy    TOTEN  =      -583.44590157 eV

  energy without entropy =     -583.44587730  energy(sigma->0) =     -583.44588943
  exchange ACFDT corr.  =        -0.00001464  see jH, gK, PRB 81, 115126


--------------------------------------------------------------------------------------------------------




--------------------------------------- Iteration      1(  13)  ---------------------------------------


    POTLOK:  cpu time    2.0652: real time    2.0663
    SETDIJ:  cpu time    2.0823: real time    2.0844
    TRIAL :  cpu time  319.7260: real time  320.2198
    CORREC:  cpu time    0.0008: real time    0.0008
    CHARGE:  cpu time    1.3390: real time    1.3408
    --------------------------------------------
      LOOP:  cpu time  325.2142: real time  325.7155

 eigenvalue-minimisations  :     0
 total energy-change (2. order) :-0.8747522E-02  (-0.7404305E-02)
 number of electron     239.9999986 magnetization       4.0000136
 augmentation part       16.4050068 magnetization       3.4035502

 DIPCOR: dipole corrections for dipol
 direction  3 min pos     1,
 dipolmoment           0.000024      0.000031     -0.094937 electrons x Angstroem
 Tr[quadrupol]     -6318.706022

 energy correction for charged system         0.000000 eV
 dipol+quadrupol energy correction           -0.000258 eV
 added-field ion interaction         -0.005242 eV  (added to PSCEN)


 Free energy of the ion-electron system (eV)
  ---------------------------------------------------
  alpha Z        PSCENC =        94.61118680
  Ewald energy   TEWEN  =     38887.44773421
  -Hartree energ DENC   =    -47718.48657783
  -exchange      EXHF   =       552.57255232
  -V(xc)+E(xc)   XCENC  =       626.14473159
  PAW double counting   =     26644.68525588   -26744.00088758
  entropy T*S    EENTRO =        -0.00002127
  eigenvalues    EBANDS =     -3138.80131298
  atomic energy  EATOM  =     10212.37269277
  ---------------------------------------------------
  free energy    TOTEN  =      -583.45464909 eV

  energy without entropy =     -583.45462782  energy(sigma->0) =     -583.45463846
  exchange ACFDT corr.  =        -0.00001210  see jH, gK, PRB 81, 115126


--------------------------------------------------------------------------------------------------------




--------------------------------------- Iteration      1(  14)  ---------------------------------------


    POTLOK:  cpu time    2.0615: real time    2.0634
    SETDIJ:  cpu time    2.0816: real time    2.0843
    TRIAL :  cpu time  319.5855: real time  320.0713
    CORREC:  cpu time    0.0008: real time    0.0008
    CHARGE:  cpu time    1.3404: real time    1.3412
    --------------------------------------------
      LOOP:  cpu time  325.0710: real time  325.5647

 eigenvalue-minimisations  :     0
 total energy-change (2. order) :-0.6890304E-02  (-0.5888235E-02)
 number of electron     239.9999986 magnetization       4.0000107
 augmentation part       16.4061455 magnetization       3.4039414

 DIPCOR: dipole corrections for dipol
 direction  3 min pos     1,
 dipolmoment           0.000024      0.000031     -0.094568 electrons x Angstroem
 Tr[quadrupol]     -6318.704742

 energy correction for charged system         0.000000 eV
 dipol+quadrupol energy correction           -0.000256 eV
 added-field ion interaction         -0.005221 eV  (added to PSCEN)


 Free energy of the ion-electron system (eV)
  ---------------------------------------------------
  alpha Z        PSCENC =        94.61120922
  Ewald energy   TEWEN  =     38887.44773421
  -Hartree energ DENC   =    -47718.53176350
  -exchange      EXHF   =       552.60499534
  -V(xc)+E(xc)   XCENC  =       626.15088135
  PAW double counting   =     26645.66029713   -26745.00215819
  entropy T*S    EENTRO =        -0.00001912
  eigenvalues    EBANDS =     -3138.77540645
  atomic energy  EATOM  =     10212.37269277
  ---------------------------------------------------
  free energy    TOTEN  =      -583.46153939 eV

  energy without entropy =     -583.46152027  energy(sigma->0) =     -583.46152983
  exchange ACFDT corr.  =        -0.00001039  see jH, gK, PRB 81, 115126


--------------------------------------------------------------------------------------------------------




--------------------------------------- Iteration      1(  15)  ---------------------------------------


    POTLOK:  cpu time    2.0592: real time    2.0601
    SETDIJ:  cpu time    2.0826: real time    2.0848
    TRIAL :  cpu time  320.7494: real time  321.2873
    CORREC:  cpu time    0.0008: real time    0.0008
    CHARGE:  cpu time    1.3411: real time    1.3419
    --------------------------------------------
      LOOP:  cpu time  326.2341: real time  326.7787

 eigenvalue-minimisations  :     0
 total energy-change (2. order) :-0.5519025E-02  (-0.4764796E-02)
 number of electron     239.9999986 magnetization       4.0000088
 augmentation part       16.4067346 magnetization       3.4040546

 DIPCOR: dipole corrections for dipol
 direction  3 min pos     1,
 dipolmoment           0.000024      0.000031     -0.093971 electrons x Angstroem
 Tr[quadrupol]     -6318.703700

 energy correction for charged system         0.000000 eV
 dipol+quadrupol energy correction           -0.000252 eV
 added-field ion interaction         -0.005188 eV  (added to PSCEN)


 Free energy of the ion-electron system (eV)
  ---------------------------------------------------
  alpha Z        PSCENC =        94.61124539
  Ewald energy   TEWEN  =     38887.44773421
  -Hartree energ DENC   =    -47718.59914483
  -exchange      EXHF   =       552.63369978
  -V(xc)+E(xc)   XCENC  =       626.15628099
  PAW double counting   =     26647.01817087   -26746.39054138
  entropy T*S    EENTRO =        -0.00001756
  eigenvalues    EBANDS =     -3138.71717710
  atomic energy  EATOM  =     10212.37269277
  ---------------------------------------------------
  free energy    TOTEN  =      -583.46705842 eV

  energy without entropy =     -583.46704086  energy(sigma->0) =     -583.46704964
  exchange ACFDT corr.  =        -0.00000918  see jH, gK, PRB 81, 115126


--------------------------------------------------------------------------------------------------------




--------------------------------------- Iteration      1(  16)  ---------------------------------------


    POTLOK:  cpu time    2.0610: real time    2.0625
    SETDIJ:  cpu time    2.0805: real time    2.0823
    TRIAL :  cpu time  320.6206: real time  321.1370
    CORREC:  cpu time    0.0008: real time    0.0008
    CHARGE:  cpu time    1.3425: real time    1.3432
    --------------------------------------------
      LOOP:  cpu time  326.1067: real time  326.6301

 eigenvalue-minimisations  :     0
 total energy-change (2. order) :-0.4492465E-02  (-0.3914452E-02)
 number of electron     239.9999986 magnetization       4.0000075
 augmentation part       16.4067676 magnetization       3.4039565

 DIPCOR: dipole corrections for dipol
 direction  3 min pos     1,
 dipolmoment           0.000024      0.000031     -0.093357 electrons x Angstroem
 Tr[quadrupol]     -6318.702330

 energy correction for charged system         0.000000 eV
 dipol+quadrupol energy correction           -0.000249 eV
 added-field ion interaction         -0.005154 eV  (added to PSCEN)


 Free energy of the ion-electron system (eV)
  ---------------------------------------------------
  alpha Z        PSCENC =        94.61128255
  Ewald energy   TEWEN  =     38887.44773421
  -Hartree energ DENC   =    -47718.61029705
  -exchange      EXHF   =       552.65791347
  -V(xc)+E(xc)   XCENC  =       626.15947053
  PAW double counting   =     26648.50023724   -26747.89005022
  entropy T*S    EENTRO =        -0.00001641
  eigenvalues    EBANDS =     -3138.72051682
  atomic energy  EATOM  =     10212.37269277
  ---------------------------------------------------
  free energy    TOTEN  =      -583.47155088 eV

  energy without entropy =     -583.47153447  energy(sigma->0) =     -583.47154268
  exchange ACFDT corr.  =        -0.00000831  see jH, gK, PRB 81, 115126


--------------------------------------------------------------------------------------------------------




--------------------------------------- Iteration      1(  17)  ---------------------------------------


    POTLOK:  cpu time    2.0575: real time    2.0602
    SETDIJ:  cpu time    2.0824: real time    2.0851
    TRIAL :  cpu time  320.4490: real time  320.9272
    CORREC:  cpu time    0.0008: real time    0.0008
    CHARGE:  cpu time    1.3425: real time    1.3435
    --------------------------------------------
      LOOP:  cpu time  325.9333: real time  326.4225

 eigenvalue-minimisations  :     0
 total energy-change (2. order) :-0.3710417E-02  (-0.3259999E-02)
 number of electron     239.9999986 magnetization       4.0000066
 augmentation part       16.4068105 magnetization       3.4038386

 DIPCOR: dipole corrections for dipol
 direction  3 min pos     1,
 dipolmoment           0.000024      0.000031     -0.092956 electrons x Angstroem
 Tr[quadrupol]     -6318.700606

 energy correction for charged system         0.000000 eV
 dipol+quadrupol energy correction           -0.000247 eV
 added-field ion interaction         -0.005132 eV  (added to PSCEN)


 Free energy of the ion-electron system (eV)
  ---------------------------------------------------
  alpha Z        PSCENC =        94.61130684
  Ewald energy   TEWEN  =     38887.44773421
  -Hartree energ DENC   =    -47718.58006121
  -exchange      EXHF   =       552.67861260
  -V(xc)+E(xc)   XCENC  =       626.16130644
  PAW double counting   =     26649.91939397   -26749.31793614
  entropy T*S    EENTRO =        -0.00001555
  eigenvalues    EBANDS =     -3138.76829436
  atomic energy  EATOM  =     10212.37269277
  ---------------------------------------------------
  free energy    TOTEN  =      -583.47526130 eV

  energy without entropy =     -583.47524575  energy(sigma->0) =     -583.47525353
  exchange ACFDT corr.  =        -0.00000768  see jH, gK, PRB 81, 115126


--------------------------------------------------------------------------------------------------------




--------------------------------------- Iteration      1(  18)  ---------------------------------------


    POTLOK:  cpu time    2.0418: real time    2.0597
    SETDIJ:  cpu time    2.0829: real time    2.0850
    TRIAL :  cpu time  320.5093: real time  320.9678
    CORREC:  cpu time    0.0008: real time    0.0008
    CHARGE:  cpu time    1.3396: real time    1.3404
[...]
  Alpha Z    94.61669    94.61669    94.61669
  Ewald   47191.39220 47431.46018-55735.43006   -52.40974   -98.14044    20.98631
  Hartree 46905.36948 46995.51824-46183.78756   -20.33093   -48.59884    10.38070
  E(xc)    -710.38144  -710.79460  -725.33876     0.14577    -0.22627    -0.00157
  Local  -96784.24164-97104.50924 98746.41264    71.54734   140.56011   -32.32998
  n-local  -135.02010  -126.28706  -115.86250    -1.11191     0.97814     0.38259
  augment   183.73463   184.76484   201.61969    -0.48687     0.95578     1.32434
  Kinetic  3571.40363  3549.48804  4055.44941    -7.58146     4.60525    -0.33882
  Fock     -357.38719  -359.36430  -338.08673    -0.24282     0.64842    -0.50617
  -------------------------------------------------------------------------------------
  Total     -40.51373   -45.10721    -0.40720   -10.47063     0.78214    -0.10259
  in kB     -20.43195   -22.74854    -0.20536    -5.28056     0.39445    -0.05174
  external pressure =      -14.46 kB  Pullay stress =        0.00 kB


 VOLUME and BASIS-vectors are now :
 -----------------------------------------------------------------------------
  energy-cutoff  :      500.00
  volume of cell :     3176.90
      direct lattice vectors                 reciprocal lattice vectors
    12.731200000  0.000000000  0.000000000     0.078547191  0.000006032  0.000020017
    -0.000946953 12.330999964  0.000000000     0.000000000  0.081096424  0.000026753
    -0.005156626 -0.006675754 20.236498242     0.000000000  0.000000000  0.049415664

  length of vectors
    12.731200000 12.331000000 20.236500000     0.078547194  0.081096428  0.049415664


 FORCES acting on ions:
    Electron-Ion                     Ewald-Force                    Non-Local-Force
 -----------------------------------------------------------------------------------------------
   0.345E+01 -.293E+01 0.815E+00   -.384E+01 0.294E+01 -.828E+00   0.377E+00 -.295E-01 0.162E-01
   -.579E+00 -.447E+01 0.392E+00   0.654E+00 0.443E+01 -.401E+00   -.430E-01 0.229E-01 0.170E-01
   0.438E+01 0.200E+01 0.507E+00   -.448E+01 -.199E+01 -.511E+00   0.723E-01 -.168E-01 0.478E-02
   0.123E+02 0.435E+01 0.273E+01   -.126E+02 -.453E+01 -.276E+01   0.295E+00 0.195E+00 0.233E-01
   0.111E+02 -.756E+01 0.389E+01   -.113E+02 0.788E+01 -.390E+01   0.262E+00 -.273E+00 0.281E-01
   0.140E+01 -.349E+01 0.116E+01   -.154E+01 0.325E+01 -.118E+01   0.168E+00 0.154E+00 0.148E-01
   -.353E+00 0.184E+01 0.877E+00   -.113E-01 -.174E+01 -.850E+00   0.257E+00 -.726E-01 -.221E-01
   0.345E+02 -.175E+02 0.649E+01   -.372E+02 0.178E+02 -.637E+01   0.296E+01 -.515E+00 -.114E+00
   0.266E+01 0.240E+02 -.501E+00   -.382E+01 -.260E+02 0.387E+00   0.119E+01 0.232E+01 0.110E+00
   0.833E+01 0.138E+01 0.893E-01   -.798E+01 -.143E+01 -.549E-01   -.938E-01 0.307E-01 -.407E-01
   -.356E+01 0.594E+01 0.595E+00   0.368E+01 -.640E+01 -.626E+00   -.199E+00 0.503E+00 0.219E-01
   0.622E+01 -.207E+02 -.579E+01   -.769E+01 0.225E+02 0.575E+01   0.142E+01 -.209E+01 0.388E-01
   0.432E+01 0.691E+00 0.627E+00   -.453E+01 -.509E+00 -.629E+00   0.220E+00 -.139E+00 0.507E-02
   -.771E-01 -.379E+01 0.626E+00   0.400E-01 0.427E+01 -.696E+00   -.268E-01 -.482E+00 0.765E-01
   0.319E+02 0.162E+02 -.669E+01   -.352E+02 -.164E+02 0.655E+01   0.357E+01 0.445E+00 0.172E+00
   0.113E+02 0.225E+00 -.157E+01   -.116E+02 -.275E+00 0.155E+01   0.386E+00 0.333E-01 0.193E-01
   0.127E+01 -.109E+01 -.749E-01   -.126E+01 0.118E+01 0.598E-01   0.285E-01 -.765E-01 0.791E-02
   0.254E+01 0.109E+01 0.293E+00   -.300E+01 -.117E+01 -.319E+00   0.366E+00 0.525E-01 0.196E-01
   0.945E+01 -.253E+01 -.221E+01   -.976E+01 0.286E+01 0.221E+01   0.302E+00 -.304E+00 -.984E-02
   -.448E+01 0.396E+01 -.631E+01   0.409E+01 -.402E+01 0.632E+01   0.338E+00 0.482E-01 -.235E-01
   0.342E+01 0.852E+01 0.385E+00   -.320E+01 -.892E+01 -.329E+00   -.179E+00 0.342E+00 -.528E-01
   0.609E+01 0.640E+00 -.386E+01   -.573E+01 -.560E+00 0.385E+01   -.320E+00 -.105E+00 0.233E-02
   -.186E+01 0.143E+02 -.437E+01   0.165E+01 -.149E+02 0.443E+01   0.195E+00 0.507E+00 -.736E-01
   0.158E+02 0.416E+02 0.485E+01   -.172E+02 -.444E+02 -.465E+01   0.171E+01 0.291E+01 -.201E+00
   -.996E+00 0.338E+02 0.667E+01   0.186E+01 -.361E+02 -.655E+01   -.122E+01 0.242E+01 -.106E+00
   0.621E+01 -.209E+02 -.102E+02   -.713E+01 0.235E+02 0.996E+01   0.121E+01 -.272E+01 0.171E+00
   0.124E+01 -.677E+01 -.495E+01   -.104E+01 0.744E+01 0.491E+01   -.136E+00 -.625E+00 0.201E-01
   -.138E+02 -.247E+02 -.101E+02   0.151E+02 0.275E+02 0.985E+01   -.160E+01 -.302E+01 0.181E+00
   -.189E+01 -.240E+01 -.693E+01   0.172E+01 0.294E+01 0.689E+01   0.113E+00 -.500E+00 0.361E-01
   -.504E+01 -.954E+00 -.329E+01   0.515E+01 0.930E+00 0.328E+01   -.747E-01 -.613E-02 0.104E-02
   -.116E+02 0.681E+01 -.417E+01   0.119E+02 -.710E+01 0.412E+01   -.280E+00 0.282E+00 0.314E-01
   -.400E+01 0.473E+01 -.571E+01   0.439E+01 -.478E+01 0.571E+01   -.383E+00 0.286E-01 -.110E-01
   -.252E+01 0.183E+01 -.200E+01   0.253E+01 -.190E+01 0.201E+01   -.443E-01 0.804E-01 -.130E-02
   -.508E+01 -.364E+00 -.233E+01   0.558E+01 0.432E+00 0.234E+01   -.381E+00 -.514E-01 -.976E-02
   -.455E+02 -.139E+02 0.643E+01   0.486E+02 0.141E+02 -.628E+01   -.349E+01 -.437E+00 -.183E+00
   -.158E+02 0.187E+01 -.258E+01   0.161E+02 -.179E+01 0.260E+01   -.409E+00 -.454E-01 -.381E-01
   -.624E+01 -.154E+01 0.328E+00   0.645E+01 0.134E+01 -.345E+00   -.224E+00 0.138E+00 0.465E-02
   -.267E+01 0.292E+01 0.195E+01   0.276E+01 -.338E+01 -.191E+01   0.114E-01 0.488E+00 -.439E-01
   -.133E+02 0.179E+02 0.752E+01   0.147E+02 -.198E+02 -.752E+01   -.143E+01 0.221E+01 0.170E-01
   -.968E+01 -.149E+01 0.234E+01   0.936E+01 0.149E+01 -.237E+01   0.641E-01 -.361E-01 0.246E-01
   0.329E+01 -.713E+01 0.345E+01   -.336E+01 0.761E+01 -.345E+01   0.125E+00 -.481E+00 0.201E-01
   -.262E+02 0.155E+02 -.356E+01   0.290E+02 -.158E+02 0.340E+01   -.315E+01 0.455E+00 0.177E+00
   -.206E+01 -.258E+02 0.379E+01   0.336E+01 0.278E+02 -.374E+01   -.123E+01 -.233E+01 -.346E-01
   -.176E+01 0.319E+01 0.133E+01   0.192E+01 -.296E+01 -.133E+01   -.171E+00 -.164E+00 0.293E-02
   0.353E+00 -.182E+01 0.248E+00   0.162E-01 0.171E+01 -.286E+00   -.282E+00 0.528E-01 0.351E-01
   -.983E+01 -.129E+01 -.623E+01   0.101E+02 0.154E+01 0.625E+01   -.321E+00 -.226E+00 -.198E-01
   -.847E+01 0.781E+01 -.254E+01   0.875E+01 -.803E+01 0.254E+01   -.298E+00 0.194E+00 0.795E-03
   -.952E-01 0.498E+01 -.137E+01   0.229E-01 -.490E+01 0.136E+01   0.239E-01 -.251E-01 -.439E-02
   -.108E+03 0.508E+01 -.156E+02   0.137E+03 -.490E+01 0.162E+02   -.280E+02 -.167E+00 -.589E+00
   0.178E+02 -.661E+02 0.184E+02   -.557E+01 0.874E+02 -.194E+02   -.117E+02 -.203E+02 0.102E+01
   -.208E+02 -.283E+02 0.208E+02   0.101E+02 0.471E+02 -.222E+02   0.102E+02 -.180E+02 0.141E+01
   -.734E+01 0.597E+02 -.151E+02   0.175E+02 -.783E+02 0.150E+02   -.100E+02 0.179E+02 0.367E-02
   0.856E+01 0.766E+02 -.173E+02   -.197E+02 -.966E+02 0.175E+02   0.109E+02 0.192E+02 -.209E+00
   0.999E+02 -.173E+02 0.133E+02   -.129E+03 0.171E+02 -.139E+02   0.272E+02 0.201E+00 0.609E+00
   0.259E+02 -.139E+03 0.286E+03   -.276E+02 0.134E+03 -.283E+03   0.152E+01 0.383E+01 -.355E+01
   -.127E+01 0.552E+02 -.257E+03   0.146E+00 -.514E+02 0.251E+03   0.116E+01 -.320E+01 0.534E+01
 -----------------------------------------------------------------------------------------------
   -.124E+01 0.120E+01 -.479E+01   0.526E-12 -.711E-12 -.568E-13   0.958E+00 -.144E+01 0.434E+01
 
 
 POSITION                                       TOTAL-FORCE (eV/Angst)
 -----------------------------------------------------------------------------------
      2.82173      0.01810     10.11744         0.002603     -0.027777      0.003605
      0.71254      1.25231     10.11000         0.028407     -0.018908      0.009404
      1.39879      0.00881     10.11709        -0.014563     -0.000007      0.000451
      3.53500      1.26054     10.09481         0.040124      0.027432     -0.001617
      2.86685      2.51955     10.08253         0.063718      0.019490      0.016505
      0.71942      3.72584     10.09973         0.036954     -0.080043     -0.008438
      1.42997      2.49829     10.09908        -0.096467      0.034215      0.003135
      3.63612      3.75030     10.05976         0.457590     -0.275088      0.003037
      2.90333      5.01718     10.10973         0.088593      0.432042      0.001664
      0.70607      6.17200     10.11317         0.265591     -0.021264     -0.008636
      1.44889      4.95636     10.10667        -0.104401      0.077592     -0.007937
      2.86291      7.36974     10.15965         0.040698     -0.480299      0.002641
      0.68676      8.62175     10.12572         0.022040      0.035396      0.003739
      1.41869      7.40090     10.12796        -0.070353     -0.036342      0.010593
      3.56521      8.64233     10.18356         0.525635      0.246155      0.036540
      2.82389      9.86068     10.15094         0.028439     -0.014893     -0.001729
      0.69042     11.09475     10.12554         0.041950      0.008354     -0.006878
      1.39423      9.85746     10.13208        -0.078287     -0.031681     -0.004720
      3.51676     11.11019     10.14405         0.015985      0.009488     -0.000640
      7.05628     12.31830     10.14060        -0.035170     -0.010489     -0.012818
      4.95400      1.25743     10.09306         0.026119     -0.032844     -0.000137
      5.64647      0.01104     10.13360         0.026796     -0.032933     -0.009336
      7.76740      1.21914     10.10591        -0.004840     -0.017728     -0.018461
      7.09412      2.46543     10.04034         0.410472      0.309349     -0.018802
      5.64538      2.50506     10.04037        -0.422142      0.283371      0.006283
      7.05463      9.82890     10.20086         0.360597     -0.309511     -0.009632
      4.93709     11.10921     10.16091         0.044999      0.009078     -0.012128
      5.61273      9.85895     10.20351        -0.388160     -0.323851     -0.012138
      7.74828     11.07582     10.16647        -0.044020      0.014217     -0.009109
     11.30610     12.32456     10.12984         0.022186     -0.036456     -0.009491
      9.18687      1.22152     10.11484        -0.034213      0.005182     -0.017354
      9.88318     12.31278     10.13774        -0.009573     -0.015637     -0.010564
     12.01460      1.23826     10.11704        -0.038522      0.020959      0.008054
     11.30942      2.47516     10.10629         0.095722      0.014100     -0.000990
      9.13338      3.68535     10.04127        -0.512913     -0.284125     -0.043559
      9.88066      2.46884     10.09378        -0.079578      0.037711     -0.022629
     12.01248      3.71323     10.09777        -0.029324     -0.054673     -0.012732
     11.27575      4.93386     10.08713         0.104177      0.065678     -0.000538
      9.83069      4.96541     10.05713        -0.117468      0.493938      0.017005
     11.99194      6.16300     10.09915        -0.265229     -0.038317     -0.006395
     11.25272      7.37825     10.10362         0.072066     -0.032389      0.020954
      9.07510      8.58570     10.15730        -0.439202      0.235476      0.029281
      9.79730      7.32175     10.10255         0.003360     -0.458614      0.014819
     11.98109      8.60900     10.11866        -0.020248      0.058458      0.004858
     11.27362      9.83731     10.12856         0.075562     -0.058945     -0.001071
      9.16934     11.07347     10.15462        -0.029775      0.013713     -0.005652
      9.83831      9.81536     10.14624        -0.028233     -0.010801     -0.003306
     11.99283     11.08113     10.12899        -0.044991      0.059033     -0.009599
      3.57210      6.20836     10.15971        -0.950983     -0.007887     -0.004566
      5.01568      3.72520     10.00365        -0.467254     -0.809248      0.066485
      7.77149      3.64494      9.98204         0.367800     -0.700707      0.159681
      4.93457      8.66601     10.22938        -0.703298      0.880352     -0.044811
      7.69192      8.60634     10.21683         0.660270      0.867948      0.007322
      9.12103      6.13025     10.06018         0.914834      0.043045      0.016983
      6.56670      5.10498      9.73683         0.122043     -0.658026     -0.255379
      6.18983      7.17241     10.51445         0.063878      0.577708      0.148754
 -----------------------------------------------------------------------------------
    total drift:                               -0.008120      0.021922      0.013575


--------------------------------------------------------------------------------------------------------



  FREE ENERGIE OF THE ION-ELECTRON SYSTEM (eV)
  ---------------------------------------------------
  free  energy   TOTEN  =      -583.50198656 eV

  energy  without entropy=     -583.50197538  energy(sigma->0) =     -583.50198097
 


--------------------------------------------------------------------------------------------------------


    POTLOK:  cpu time    4.1264: real time    4.1296


--------------------------------------------------------------------------------------------------------


 stress matrix after NEB project (eV)
    -40.51373    -10.46997     -0.10259
    -10.47063    -45.10721      0.79377
     -0.10369      0.78214     -0.40720
  FORCES: max atom, RMS     1.127677    0.422826
  FORCE total and by dimension    3.164141    0.950983
  Stress total and by dimension   62.423603   45.107214
 writing wavefunctions
     LOOP+:  cpu time19932.5447: real time19968.8036
    4ORBIT:  cpu time    0.0000: real time    0.0000
 


 total charge     
 
# of ion       s       p       d       tot
------------------------------------------
    1        0.864   1.786   0.000   2.650
    2        0.865   1.768   0.000   2.633
    3        0.867   1.777   0.000   2.644
    4        0.870   1.765   0.000   2.635
    5        0.862   1.755   0.000   2.617
    6        0.863   1.772   0.000   2.635
    7        0.864   1.763   0.000   2.627
    8        0.851   1.705   0.000   2.555
    9        0.852   1.714   0.000   2.566
   10        0.868   1.760   0.000   2.628
   11        0.863   1.756   0.000   2.619
   12        0.857   1.735   0.000   2.592
   13        0.863   1.776   0.000   2.639
   14        0.867   1.771   0.000   2.637
   15        0.859   1.737   0.000   2.596
   16        0.866   1.775   0.000   2.641
   17        0.866   1.769   0.000   2.635
   18        0.867   1.773   0.000   2.640
   19        0.871   1.770   0.000   2.641
   20        0.867   1.798   0.000   2.665
   21        0.869   1.781   0.000   2.650
   22        0.866   1.795   0.000   2.661
   23        0.871   1.790   0.000   2.661
   24        0.864   1.754   0.000   2.618
   25        0.861   1.739   0.000   2.599
   26        0.860   1.740   0.000   2.600
   27        0.870   1.786   0.000   2.656
   28        0.862   1.748   0.000   2.610
   29        0.869   1.782   0.000   2.651
   30        0.867   1.778   0.000   2.644
   31        0.871   1.771   0.000   2.642
   32        0.864   1.786   0.000   2.651
   33        0.866   1.769   0.000   2.635
   34        0.867   1.774   0.000   2.641
   35        0.859   1.739   0.000   2.597
   36        0.866   1.775   0.000   2.641
   37        0.863   1.773   0.000   2.636
   38        0.866   1.768   0.000   2.633
   39        0.855   1.728   0.000   2.583
   40        0.868   1.760   0.000   2.627
   41        0.863   1.757   0.000   2.620
   42        0.851   1.711   0.000   2.562
   43        0.852   1.717   0.000   2.569
   44        0.864   1.774   0.000   2.638
   45        0.865   1.765   0.000   2.630
   46        0.870   1.766   0.000   2.636
   47        0.863   1.759   0.000   2.621
   48        0.866   1.768   0.000   2.634
   49        1.249   2.606   0.000   3.855
   50        1.235   2.626   0.000   3.861
   51        1.236   2.685   0.000   3.921
   52        1.234   2.684   0.000   3.918
   53        1.232   2.642   0.000   3.875
   54        1.246   2.602   0.000   3.848
   55        0.395   0.335   8.457   9.187
   56        0.365   0.307   6.196   6.867
--------------------------------------------------
tot         49.660 101.064  14.652 165.376
 


 magnetization (x)
 
# of ion       s       p       d       tot
------------------------------------------
    1        0.000   0.004   0.000   0.004
    2        0.000   0.002   0.000   0.002
    3       -0.000  -0.003   0.000  -0.004
    4       -0.000  -0.003   0.000  -0.003
    5        0.001   0.003   0.000   0.004
    6        0.000   0.002   0.000   0.002
    7       -0.000  -0.004   0.000  -0.004
    8       -0.000  -0.006   0.000  -0.006
    9        0.001   0.005   0.000   0.006
   10        0.000  -0.001   0.000  -0.001
   11       -0.000  -0.003   0.000  -0.004
   12        0.000   0.007   0.000   0.007
   13        0.000   0.004   0.000   0.004
   14       -0.000  -0.001   0.000  -0.002
   15       -0.001  -0.013   0.000  -0.014
   16        0.001   0.006   0.000   0.007
   17        0.000   0.001   0.000   0.001
   18       -0.000  -0.003   0.000  -0.004
   19       -0.000  -0.006   0.000  -0.007
   20       -0.000   0.000   0.000  -0.000
   21        0.000   0.001   0.000   0.002
   22        0.000   0.001   0.000   0.001
   23       -0.000   0.001   0.000   0.001
   24       -0.001  -0.004   0.000  -0.005
   25       -0.001  -0.002   0.000  -0.003
   26        0.000   0.002   0.000   0.003
   27        0.000   0.001   0.000   0.001
   28        0.001   0.003   0.000   0.003
   29        0.000   0.000   0.000   0.001
   30       -0.000  -0.002   0.000  -0.002
   31       -0.000  -0.004   0.000  -0.004
   32        0.000   0.004   0.000   0.004
   33        0.000   0.000   0.000   0.000
   34       -0.000  -0.003   0.000  -0.003
   35       -0.000  -0.006   0.000  -0.006
   36        0.001   0.003   0.000   0.004
   37        0.000   0.001   0.000   0.001
   38       -0.000  -0.001   0.000  -0.001
   39        0.000   0.002   0.000   0.002
   40       -0.000  -0.003   0.000  -0.003
   41        0.000  -0.000   0.000  -0.000
   42       -0.001  -0.011   0.000  -0.012
   43        0.001   0.006   0.000   0.007
   44        0.000   0.002   0.000   0.003
   45       -0.000  -0.002   0.000  -0.002
   46       -0.000  -0.005   0.000  -0.006
   47        0.001   0.004   0.000   0.005
   48        0.000   0.000   0.000   0.000
   49       -0.002  -0.022   0.000  -0.024
   50        0.004   0.016   0.000   0.020
   51        0.000   0.005   0.000   0.005
   52        0.002   0.017   0.000   0.019
   53        0.002   0.016   0.000   0.018
   54        0.001  -0.010   0.000  -0.009
   55       -0.064  -0.048   0.958   0.846
   56       -0.042  -0.002   3.245   3.200
--------------------------------------------------
tot         -0.099  -0.048   4.203   4.056
 

 total amount of memory used by VASP MPI-rank0   215798. kBytes
=======================================================================

   base      :      30000. kBytes
   nonl-proj :       6952. kBytes
   fftplans  :      17535. kBytes
   grid      :      46049. kBytes
   one-center:         93. kBytes
   HF        :         46. kBytes
   nonlr-proj:      14395. kBytes
   wavefun   :     100728. kBytes
 
  
  
 General timing and accounting informations for this job:
 ========================================================
  
                  Total CPU time used (sec):    19982.598
                            User time (sec):    19951.734
                          System time (sec):       30.863
                         Elapsed time (sec):    20025.153
  
                   Maximum memory used (kb):      488076.
                   Average memory used (kb):           0.
  
                          Minor page faults:      1073751
                          Major page faults:          206
                 Voluntary context switches:       236957
