 vasp.5.4.4.18Apr17-6-g9f103f2a35 (build Feb 25 2019 10:51:38) complex          
  
 executed on             LinuxIFC date 2022.01.27  15:10:13
 running on   32 total cores
 distrk:  each k-point on   32 cores,    1 groups
 distr:  one band on NCORES_PER_BAND=  32 cores,    1 groups


--------------------------------------------------------------------------------------------------------


 INCAR:
 POTCAR:    PAW_PBE C 08Apr2002                   
 POTCAR:    PAW_PBE N 08Apr2002                   
 POTCAR:    PAW_PBE Fe 06Sep2000                  
 POTCAR:    PAW_PBE Zn 06Sep2000                  

 ----------------------------------------------------------------------------- 
|                                                                             |
|           W    W    AA    RRRRR   N    N  II  N    N   GGGG   !!!           |
|           W    W   A  A   R    R  NN   N  II  NN   N  G    G  !!!           |
|           W    W  A    A  R    R  N N  N  II  N N  N  G       !!!           |
|           W WW W  AAAAAA  RRRRR   N  N N  II  N  N N  G  GGG   !            |
|           WW  WW  A    A  R   R   N   NN  II  N   NN  G    G                |
|           W    W  A    A  R    R  N    N  II  N    N   GGGG   !!!           |
|                                                                             |
|      For optimal performance we recommend to set                            |
|        NCORE= 4 - approx SQRT( number of cores)                             |
|      NCORE specifies how many cores store one orbital (NPAR=cpu/NCORE).     |
|      This setting can  greatly improve the performance of VASP for DFT.     |
|      The default,   NCORE=1            might be grossly inefficient         |
|      on modern multi-core architectures or massively parallel machines.     |
|      Do your own testing !!!!                                               |
|      Unfortunately you need to use the default for GW and RPA calculations. |
|      (for HF NCORE is supported but not extensively tested yet)             |
|                                                                             |
 ----------------------------------------------------------------------------- 

 POTCAR:    PAW_PBE C 08Apr2002                   
   VRHFIN =C: s2p2                                                              
   LEXCH  = PE                                                                  
   EATOM  =   147.1560 eV,   10.8157 Ry                                         
                                                                                
   TITEL  = PAW_PBE C 08Apr2002                                                 
   LULTRA =        F    use ultrasoft PP ?                                      
   IUNSCR =        1    unscreen: 0-lin 1-nonlin 2-no                           
   RPACOR =    1.200    partial core radius                                     
   POMASS =   12.011; ZVAL   =    4.000    mass and valenz                      
   RCORE  =    1.500    outmost cutoff radius                                   
   RWIGS  =    1.630; RWIGS  =    0.863    wigner-seitz radius (au A)           
   ENMAX  =  400.000; ENMIN  =  300.000 eV                                      
   ICORE  =        2    local potential                                         
   LCOR   =        T    correct aug charges                                     
   LPAW   =        T    paw PP                                                  
   EAUG   =  644.873                                                            
   DEXC   =    0.000                                                            
   RMAX   =    1.529    core radius for proj-oper                               
   RAUG   =    1.300    factor for augmentation sphere                          
   RDEP   =    1.501    radius for radial grids                                 
   RDEPT  =    1.300    core radius for aug-charge                              
                                                                                
   Atomic configuration                                                         
    4 entries                                                                   
     n  l   j            E        occ.                                          
     1  0  0.50      -273.3789   2.0000                                         
     2  0  0.50       -13.7508   2.0000                                         
     2  1  0.50        -5.2854   2.0000                                         
     3  2  1.50        -5.4423   0.0000                                         
   Description                                                                  
     l       E           TYP  RCUT    TYP  RCUT                                 
     0    -13.7508458     23  1.200                                             
     0     -8.2022199     23  1.200                                             
     1     -5.2854383     23  1.500                                             
     1     34.0145650     23  1.500                                             
     2     -5.4423304      7  1.500                                             
  local pseudopotential read in
  partial core-charges read in
  partial kinetic energy density read in
  atomic valenz-charges read in
  non local Contribution for L=           0  read in
    real space projection operators read in
  non local Contribution for L=           0  read in
    real space projection operators read in
  non local Contribution for L=           1  read in
    real space projection operators read in
  non local Contribution for L=           1  read in
    real space projection operators read in
    PAW grid and wavefunctions read in
 
   number of l-projection  operators is LMAX  =           4
   number of lm-projection operators is LMMAX =           8
 
 POTCAR:    PAW_PBE N 08Apr2002                   
   VRHFIN =N: s2p3                                                              
   LEXCH  = PE                                                                  
   EATOM  =   264.5486 eV,   19.4438 Ry                                         
                                                                                
   TITEL  = PAW_PBE N 08Apr2002                                                 
   LULTRA =        F    use ultrasoft PP ?                                      
   IUNSCR =        1    unscreen: 0-lin 1-nonlin 2-no                           
   RPACOR =    1.200    partial core radius                                     
   POMASS =   14.001; ZVAL   =    5.000    mass and valenz                      
   RCORE  =    1.500    outmost cutoff radius                                   
   RWIGS  =    1.400; RWIGS  =    0.741    wigner-seitz radius (au A)           
   ENMAX  =  400.000; ENMIN  =  300.000 eV                                      
   ICORE  =        2    local potential                                         
   LCOR   =        T    correct aug charges                                     
   LPAW   =        T    paw PP                                                  
   EAUG   =  627.112                                                            
   DEXC   =    0.000                                                            
   RMAX   =    1.529    core radius for proj-oper                               
   RAUG   =    1.300    factor for augmentation sphere                          
   RDEP   =    1.514    radius for radial grids                                 
   RDEPT  =    1.338    core radius for aug-charge                              
                                                                                
   Atomic configuration                                                         
    4 entries                                                                   
     n  l   j            E        occ.                                          
     1  0  0.50      -384.7179   2.0000                                         
     2  0  0.50       -18.5828   2.0000                                         
     2  1  0.50        -7.0898   3.0000                                         
     3  2  1.50        -6.8029   0.0000                                         
   Description                                                                  
     l       E           TYP  RCUT    TYP  RCUT                                 
     0    -18.5828119     23  1.200                                             
     0    -13.5018863     23  1.200                                             
     1     -7.0897853     23  1.500                                             
     1      9.5240782     23  1.500                                             
     2     -6.8029130      7  1.500                                             
  local pseudopotential read in
  partial core-charges read in
  partial kinetic energy density read in
  atomic valenz-charges read in
  non local Contribution for L=           0  read in
    real space projection operators read in
  non local Contribution for L=           0  read in
    real space projection operators read in
  non local Contribution for L=           1  read in
    real space projection operators read in
  non local Contribution for L=           1  read in
    real space projection operators read in
    PAW grid and wavefunctions read in
 
   number of l-projection  operators is LMAX  =           4
   number of lm-projection operators is LMMAX =           8
 
 POTCAR:    PAW_PBE Fe 06Sep2000                  
   VRHFIN =Fe:  d7 s1                                                           
   LEXCH  = PE                                                                  
   EATOM  =   594.3153 eV,   43.6809 Ry                                         
                                                                                
   TITEL  = PAW_PBE Fe 06Sep2000                                                
   LULTRA =        F    use ultrasoft PP ?                                      
   IUNSCR =        1    unscreen: 0-lin 1-nonlin 2-no                           
   RPACOR =    2.000    partial core radius                                     
   POMASS =   55.847; ZVAL   =    8.000    mass and valenz                      
   RCORE  =    2.300    outmost cutoff radius                                   
   RWIGS  =    2.460; RWIGS  =    1.302    wigner-seitz radius (au A)           
   ENMAX  =  267.882; ENMIN  =  200.911 eV                                      
   RCLOC  =    1.701    cutoff for local pot                                    
   LCOR   =        T    correct aug charges                                     
   LPAW   =        T    paw PP                                                  
   EAUG   =  511.368                                                            
   DEXC   =    0.000                                                            
   RMAX   =    2.356    core radius for proj-oper                               
   RAUG   =    1.300    factor for augmentation sphere                          
   RDEP   =    2.442    radius for radial grids                                 
   RDEPT  =    1.890    core radius for aug-charge                              
                                                                                
   Atomic configuration                                                         
    9 entries                                                                   
     n  l   j            E        occ.                                          
     1  0  0.50     -6993.8440   2.0000                                         
     2  0  0.50      -814.6047   2.0000                                         
     2  1  1.50      -693.3689   6.0000                                         
     3  0  0.50       -89.4732   2.0000                                         
     3  1  1.50       -55.6373   6.0000                                         
     3  2  2.50        -3.8151   7.0000                                         
     4  0  0.50        -4.2551   1.0000                                         
     4  1  1.50        -3.4015   0.0000                                         
     4  3  2.50        -1.3606   0.0000                                         
   Description                                                                  
     l       E           TYP  RCUT    TYP  RCUT                                 
     2     -3.8151135     23  2.300                                             
     2     -5.1756961     23  2.300                                             
     0     -4.2550963     23  2.300                                             
     0      7.2035603     23  2.300                                             
     1     -2.7211652     23  2.300                                             
     1     18.4316424     23  2.300                                             
  local pseudopotential read in
  partial core-charges read in
  partial kinetic energy density read in
  atomic valenz-charges read in
  non local Contribution for L=           2  read in
    real space projection operators read in
  non local Contribution for L=           2  read in
    real space projection operators read in
  non local Contribution for L=           0  read in
    real space projection operators read in
  non local Contribution for L=           0  read in
    real space projection operators read in
  non local Contribution for L=           1  read in
    real space projection operators read in
  non local Contribution for L=           1  read in
    real space projection operators read in
    PAW grid and wavefunctions read in
 
   number of l-projection  operators is LMAX  =           6
   number of lm-projection operators is LMMAX =          18
 
 POTCAR:    PAW_PBE Zn 06Sep2000                  
   VRHFIN =Zn: d10 p2                                                           
   LEXCH  = PE                                                                  
   EATOM  =  1748.8345 eV,  128.5357 Ry                                         
                                                                                
   TITEL  = PAW_PBE Zn 06Sep2000                                                
   LULTRA =        F    use ultrasoft PP ?                                      
   IUNSCR =        1    unscreen: 0-lin 1-nonlin 2-no                           
   RPACOR =    2.000    partial core radius                                     
   POMASS =   65.390; ZVAL   =   12.000    mass and valenz                      
   RCORE  =    2.300    outmost cutoff radius                                   
   RWIGS  =    2.400; RWIGS  =    1.270    wigner-seitz radius (au A)           
   ENMAX  =  276.723; ENMIN  =  207.542 eV                                      
   RCLOC  =    1.828    cutoff for local pot                                    
   LCOR   =        T    correct aug charges                                     
   LPAW   =        T    paw PP                                                  
   EAUG   =  575.892                                                            
   DEXC   =    0.000                                                            
   RMAX   =    2.347    core radius for proj-oper                               
   RAUG   =    1.300    factor for augmentation sphere                          
   RDEP   =    2.324    radius for radial grids                                 
   RDEPT  =    1.788    core radius for aug-charge                              
                                                                                
   Atomic configuration                                                         
    9 entries                                                                   
     n  l   j            E        occ.                                          
     1  0  0.50     -9524.6913   2.0000                                         
     2  0  0.50     -1158.1882   2.0000                                         
     2  1  1.50     -1003.8506   6.0000                                         
     3  0  0.50      -129.2194   2.0000                                         
     3  1  1.50       -83.3890   6.0000                                         
     3  2  2.50       -10.1410  10.0000                                         
     4  0  0.50        -5.9785   2.0000                                         
     4  1  0.50        -4.0817   0.0000                                         
     4  3  2.50        -1.3606   0.0000                                         
   Description                                                                  
     l       E           TYP  RCUT    TYP  RCUT                                 
     2    -10.1410010     23  2.300                                             
     2    -11.5015836     23  2.300                                             
     0     -5.9785163     23  2.300                                             
     0      1.1858015     23  2.300                                             
     1     -2.7211652     23  2.300                                             
     1     13.2444212     23  2.300                                             
  local pseudopotential read in
  partial core-charges read in
  partial kinetic energy density read in
  atomic valenz-charges read in
  non local Contribution for L=           2  read in
    real space projection operators read in
  non local Contribution for L=           2  read in
    real space projection operators read in
  non local Contribution for L=           0  read in
    real space projection operators read in
  non local Contribution for L=           0  read in
    real space projection operators read in
  non local Contribution for L=           1  read in
    real space projection operators read in
  non local Contribution for L=           1  read in
    real space projection operators read in
    PAW grid and wavefunctions read in
 
   number of l-projection  operators is LMAX  =           6
   number of lm-projection operators is LMMAX =          18
 

 ----------------------------------------------------------------------------- 
|                                                                             |
|  ADVICE TO THIS USER RUNNING 'VASP/VAMP'   (HEAR YOUR MASTER'S VOICE ...):  |
|                                                                             |
|      You have a (more or less) 'large supercell' and for larger cells       |
|      it might be more efficient to use real space projection opertators     |
|      So try LREAL= Auto  in the INCAR   file.                               |
|      Mind:          For very  accurate calculation you might also keep the  |
|      reciprocal projection scheme          (i.e. LREAL=.FALSE.)             |
|                                                                             |
 ----------------------------------------------------------------------------- 

  PAW_PBE C 08Apr2002                   :
 energy of atom  1       EATOM= -147.1560
 kinetic energy error for atom=    0.0076 (will be added to EATOM!!)
  PAW_PBE N 08Apr2002                   :
 energy of atom  2       EATOM= -264.5486
 kinetic energy error for atom=    0.0138 (will be added to EATOM!!)
  PAW_PBE Fe 06Sep2000                  :
 energy of atom  3       EATOM= -594.3153
 kinetic energy error for atom=    0.0026 (will be added to EATOM!!)
  PAW_PBE Zn 06Sep2000                  :
 energy of atom  4       EATOM=-1748.8345
 kinetic energy error for atom=    0.0029 (will be added to EATOM!!)
 
 
 POSCAR:  C  N Fe Zn                             
  positions in cartesian coordinates
  No initial velocities read in
 exchange correlation table for  LEXCH =        8
   RHO(1)=    0.500       N(1)  =     2000
   RHO(2)=  100.500       N(2)  =     4000

 VTST: version 3.2, (02/03/18)

 CHAIN: initializing optimizer
 
 OPT: Using VASP Conjugate-Gradient optimizer
 CHAIN: Read ICHAIN            0
 
 POSCAR:  C  N Fe Zn                             
  positions in cartesian coordinates
  No initial velocities read in
 


--------------------------------------------------------------------------------------------------------


 ion  position               nearest neighbor table
   1  0.228  1.000  0.493-   3 1.44  18 1.47   4 1.47
   2  0.059  0.100  0.504-   7 1.43  33 1.44   3 1.44
   3  0.116  0.000  0.500-   2 1.44  16 1.44   1 1.44
   4  0.282  0.104  0.490-  20 1.44   5 1.46   1 1.47
   5  0.223  0.205  0.492-  50 1.39   7 1.44   4 1.46
   6  0.052  0.299  0.507-  37 1.41  10 1.42   7 1.44
   7  0.112  0.201  0.501-   2 1.43   6 1.44   5 1.44
   8  0.210  0.400  0.491-  10 1.39  50 1.39  11 1.43
   9  0.050  0.500  0.509-  41 1.41  14 1.42  10 1.43
  10  0.104  0.400  0.504-   8 1.39   6 1.42   9 1.43
  11  0.264  0.498  0.479-  54 1.34   8 1.43  12 1.45
  12  0.211  0.601  0.489-  51 1.37  14 1.40  11 1.45
  13  0.053  0.701  0.507-  45 1.41  14 1.42  17 1.44
  14  0.104  0.600  0.503-  12 1.40  13 1.42   9 1.42
  15  0.222  0.795  0.492-  51 1.38  17 1.44  18 1.47
  16  0.058  0.900  0.504-  17 1.43  49 1.43   3 1.44
  17  0.111  0.799  0.501-  16 1.43  15 1.44  13 1.44
  18  0.282  0.896  0.490-  28 1.45   1 1.47  15 1.47
  19  0.558  0.001  0.498-  21 1.42  22 1.43  29 1.43
  20  0.395  0.104  0.490-  52 1.39   4 1.44  21 1.45
  21  0.448  0.001  0.492-  19 1.42  20 1.45  28 1.45
  22  0.614  0.101  0.502-  31 1.42  23 1.42  19 1.43
  23  0.558  0.200  0.497-  52 1.38  22 1.42  24 1.45
  24  0.612  0.302  0.501-  35 1.41  53 1.42  23 1.45
  25  0.608  0.500  0.501-  55 1.39  53 1.41  39 1.44
  26  0.613  0.698  0.502-  55 1.40  43 1.41  27 1.47
  27  0.558  0.802  0.498-  56 1.36  29 1.43  26 1.47
  28  0.395  0.898  0.489-  56 1.38  18 1.45  21 1.45
  29  0.614  0.901  0.502-  47 1.42  27 1.43  19 1.43
  30  0.891  0.000  0.510-  32 1.42  49 1.43  33 1.43
  31  0.724  0.100  0.508-  36 1.41  22 1.42  32 1.43
  32  0.780  0.000  0.509-  30 1.42  47 1.43  31 1.43
  33  0.947  0.100  0.509-  30 1.43  34 1.43   2 1.44
  34  0.889  0.199  0.511-  37 1.42  36 1.42  33 1.43
  35  0.722  0.300  0.508-  24 1.41  40 1.43  36 1.44
  36  0.778  0.199  0.510-  31 1.41  34 1.42  35 1.44
  37  0.943  0.299  0.512-   6 1.41  34 1.42  38 1.44
  38  0.886  0.400  0.514-  40 1.41  41 1.43  37 1.44
  39  0.720  0.500  0.509-  40 1.43  44 1.43  25 1.44
  40  0.776  0.400  0.511-  38 1.41  35 1.43  39 1.43
  41  0.940  0.500  0.514-   9 1.41  42 1.43  38 1.43
  42  0.886  0.600  0.514-  44 1.42  41 1.43  45 1.44
  43  0.722  0.701  0.509-  26 1.41  44 1.43  48 1.44
  44  0.776  0.600  0.512-  42 1.42  43 1.43  39 1.43
  45  0.942  0.701  0.512-  13 1.41  46 1.42  42 1.44
  46  0.889  0.801  0.512-  45 1.42  48 1.42  49 1.43
  47  0.724  0.901  0.508-  48 1.42  29 1.42  32 1.43
  48  0.778  0.801  0.511-  47 1.42  46 1.42  43 1.44
  49  0.947  0.900  0.509-  30 1.43  16 1.43  46 1.43
  50  0.269  0.306  0.485-   8 1.39   5 1.39  57 1.91
  51  0.267  0.694  0.485-  12 1.37  15 1.38  58 2.01
  52  0.451  0.200  0.489-  23 1.38  20 1.39  57 1.98
  53  0.556  0.400  0.496-  25 1.41  24 1.42  57 1.98
  54  0.364  0.491  0.459-  11 1.34  57 1.86  58 1.99
  55  0.559  0.599  0.498-  25 1.39  26 1.40  58 2.00
  56  0.452  0.803  0.488-  27 1.36  28 1.38  58 2.08
  57  0.411  0.353  0.478-  54 1.86  50 1.91  52 1.98  53 1.98
  58  0.414  0.642  0.472-  54 1.99  55 2.00  51 2.01  56 2.08
 
  LATTYP: Found a simple orthorhombic cell.
 ALAT       =    12.4000000000
 B/A-ratio  =     1.0330645161
 C/A-ratio  =     1.6129032258
  
  Lattice vectors:
  
 A1 = (   0.0000000000, -12.4000000000,   0.0000000000)
 A2 = ( -12.8100000000,   0.0000000000,   0.0000000000)
 A3 = (   0.0000000000,   0.0000000000, -20.0000000000)


Analysis of symmetry for initial positions (statically):
=====================================================================
 Subroutine PRICEL returns:
 Original cell was already a primitive cell.
 

 Routine SETGRP: Setting up the symmetry group for a 
 simple orthorhombic supercell.


 Subroutine GETGRP returns: Found  1 space group operations
 (whereof  1 operations were pure point group operations)
 out of a pool of  8 trial point group operations.


The static configuration has the point symmetry C_1 .


Analysis of symmetry for dynamics (positions and initial velocities):
=====================================================================
 Subroutine PRICEL returns:
 Original cell was already a primitive cell.
 

 Routine SETGRP: Setting up the symmetry group for a 
 simple orthorhombic supercell.


 Subroutine GETGRP returns: Found  1 space group operations
 (whereof  1 operations were pure point group operations)
 out of a pool of  8 trial point group operations.


The dynamic configuration has the point symmetry C_1 .


Analysis of structural, dynamic, and magnetic symmetry:
=====================================================================
 Subroutine PRICEL returns:
 Original cell was already a primitive cell.
 

 Routine SETGRP: Setting up the symmetry group for a 
 simple orthorhombic supercell.


 Subroutine GETGRP returns: Found  1 space group operations
 (whereof  1 operations were pure point group operations)
 out of a pool of  8 trial point group operations.


The magnetic configuration has the point symmetry C_1 .


 Subroutine INISYM returns: Found  1 space group operations
 (whereof  1 operations are pure point group operations),
 and found     1 'primitive' translations

 
 
 KPOINTS: KPOINTS created by Atomic Simulation Env

Automatic generation of k-mesh.
Space group operators:
 irot       det(A)        alpha          n_x          n_y          n_z        tau_x        tau_y        tau_z
    1     1.000000     0.000000     1.000000     0.000000     0.000000     0.000000     0.000000     0.000000
 
 Subroutine IBZKPT returns following result:
 ===========================================
 
 Found      2 irreducible k-points:
 
 Following reciprocal coordinates:
            Coordinates               Weight
  0.250000  0.250000  0.000000      2.000000
 -0.250000  0.250000  0.000000      2.000000
 
 Following cartesian coordinates:
            Coordinates               Weight
  0.019516  0.020161  0.000000      2.000000
 -0.019516  0.020161  0.000000      2.000000
 
 
 Subroutine IBZKPT_HF returns following result:
 ==============================================
 
 Found      4 k-points in 1st BZ
 the following      4 k-points will be used (e.g. in the exchange kernel)
 Following reciprocal coordinates:   # in IRBZ
  0.250000  0.250000  0.000000    0.25000000   1 t-inv F
 -0.250000  0.250000  0.000000    0.25000000   2 t-inv F
 -0.250000 -0.250000  0.000000    0.25000000   1 t-inv T
  0.250000 -0.250000  0.000000    0.25000000   2 t-inv T


--------------------------------------------------------------------------------------------------------




 Dimension of arrays:
   k-points           NKPTS =      2   k-points in BZ     NKDIM =      4   number of bands    NBANDS=    159
   number of dos      NEDOS =    301   number of ions     NIONS =     58
   non local maximal  LDIM  =      6   non local SUM 2l+1 LMDIM =     18
   total plane-waves  NPLWV = ******
   max r-space proj   IRMAX =      1   max aug-charges    IRDMAX=  14730
   dimension x,y,z NGX =    96 NGY =   90 NGZ =  150
   dimension x,y,z NGXF=   192 NGYF=  180 NGZF=  300
   support grid    NGXF=   192 NGYF=  180 NGZF=  300
   ions per type =              49   7   1   1
   NGX,Y,Z   is equivalent  to a cutoff of  12.46, 12.07, 12.47 a.u.
   NGXF,Y,Z  is equivalent  to a cutoff of  24.92, 24.13, 24.94 a.u.

 SYSTEM =  unknown system                          
 POSCAR =   C  N Fe Zn                             

 Startparameter for this run:
   NWRITE =      2    write-flag & timer
   PREC   = accura    normal or accurate (medium, high low for compatibility)
   ISTART =      1    job   : 0-new  1-cont  2-samecut
   ICHARG =      0    charge: 1-file 2-atom 10-const
   ISPIN  =      2    spin polarized calculation?
   LNONCOLLINEAR =      F non collinear calculations
   LSORBIT =      F    spin-orbit coupling
   INIWAV =      1    electr: 0-lowe 1-rand  2-diag
   LASPH  =      T    aspherical Exc in radial PAW
   METAGGA=      F    non-selfconsistent MetaGGA calc.

 Electronic Relaxation 1
   ENCUT  =  500.0 eV  36.75 Ry    6.06 a.u.  23.36 22.61 36.46*2*pi/ulx,y,z
   ENINI  =  500.0     initial cutoff
   ENAUG  =  644.9 eV  augmentation charge cutoff
   NELM   =    250;   NELMIN=  2; NELMDL=  0     # of ELM steps 
   EDIFF  = 0.1E-03   stopping-criterion for ELM
   LREAL  =      F    real-space projection
   NLSPLINE    = F    spline interpolate recip. space projectors
   LCOMPAT=      F    compatible to vasp.4.4
   GGA_COMPAT  = T    GGA compatible to vasp.4.4-vasp.4.6
   LMAXPAW     = -100 max onsite density
   LMAXMIX     =    2 max onsite mixed and CHGCAR
   VOSKOWN=      0    Vosko Wilk Nusair interpolation
   ROPT   =    0.00000   0.00000   0.00000   0.00000
 Ionic relaxation
   EDIFFG = -.3E-01   stopping-criterion for IOM
   NSW    =      0    number of steps for IOM
   NBLOCK =      1;   KBLOCK =      1    inner block; outer block 
   IBRION =     -1    ionic relax: 0-MD 1-quasi-New 2-CG
   NFREE  =      1    steps in history (QN), initial steepest desc. (CG)
   ISIF   =      2    stress and relaxation
   IWAVPR =     10    prediction:  0-non 1-charg 2-wave 3-comb
   ISYM   =      3    0-nonsym 1-usesym 2-fastsym
   LCORR  =      T    Harris-Foulkes like correction to forces

   POTIM  = 0.5000    time-step for ionic-motion
   TEIN   =    0.0    initial temperature
   TEBEG  =    0.0;   TEEND  =   0.0 temperature during run
   SMASS  =  -3.00    Nose mass-parameter (am)
   estimated Nose-frequenzy (Omega)   =  0.10E-29 period in steps =****** mass=  -0.375E-26a.u.
   SCALEE = 1.0000    scale energy and forces
   NPACO  =    256;   APACO  = 16.0  distance and # of slots for P.C.
   PSTRESS=    0.0 pullay stress

  Mass of Ions in am
   POMASS =  12.01 14.00 55.85 65.39
  Ionic Valenz
   ZVAL   =   4.00  5.00  8.00 12.00
  Atomic Wigner-Seitz radii
   RWIGS  =  -1.00 -1.00 -1.00 -1.00
  virtual crystal weights 
   VCA    =   1.00  1.00  1.00  1.00
   NELECT =     251.0000    total number of electrons
   NUPDOWN=      -1.0000    fix difference up-down

 DOS related values:
   EMIN   =  10.00;   EMAX   =-10.00  energy-range for DOS
   EFERMI =   0.00
   ISMEAR =     0;   SIGMA  =   0.10  broadening in eV -4-tet -1-fermi 0-gaus

 Electronic relaxation 2 (details)
   IALGO  =     53    algorithm
   LDIAG  =      T    sub-space diagonalisation (order eigenvalues)
   LSUBROT=      F    optimize rotation matrix (better conditioning)
   TURBO    =      0    0=normal 1=particle mesh
   IRESTART =      0    0=no restart 2=restart with 2 vectors
   NREBOOT  =      0    no. of reboots
   NMIN     =      0    reboot dimension
   EREF     =   0.00    reference energy to select bands
   IMIX   =      4    mixing-type and parameters
     AMIX     =   0.40;   BMIX     =  1.00
     AMIX_MAG =   1.60;   BMIX_MAG =  1.00
     AMIN     =   0.10
     WC   =   100.;   INIMIX=   1;  MIXPRE=   1;  MAXMIX= -45

 Intra band minimization:
   WEIMIN = 0.0000     energy-eigenvalue tresh-hold
   EBREAK =  0.16E-06  absolut break condition
   DEPER  =   0.30     relativ break condition  

   TIME   =   0.20     timestep for ELM

  volume/ion in A,a.u.               =      54.77       369.63
  Fermi-wavevector in a.u.,A,eV,Ry     =   0.702478  1.327490  6.714132  0.493475
  Thomas-Fermi vector in A             =   1.787188
 
 Write flags
   LWAVE        =      T    write WAVECAR
   LDOWNSAMPLE  =      F    k-point downsampling of WAVECAR
   LCHARG       =      T    write CHGCAR
   LVTOT        =      F    write LOCPOT, total local potential
   LVHAR        =      F    write LOCPOT, Hartree potential only
   LELF         =      F    write electronic localiz. function (ELF)
   LORBIT       =     11    0 simple, 1 ext, 2 COOP (PROOUT), +10 PAW based schemes


 Dipole corrections
   LMONO  =      F    monopole corrections only (constant potential shift)
   LDIPOL =      T    correct potential (dipole corrections)
   IDIPOL =      3    1-x, 2-y, 3-z, 4-all directions 
   EPSILON=  1.0000000 bulk dielectric constant

 Exchange correlation treatment:
   GGA     =    PE    GGA type
   LEXCH   =     8    internal setting for exchange type
   VOSKOWN=      0    Vosko Wilk Nusair interpolation
   EXXOEP  =     0    0=HF, 1=EXX-LHF (local Hartree Fock) 2=EXX OEP
   LHFCALC =     T    Hartree Fock is set to
   LSYMGRAD=     F    symmetrize gradient (conserves proper symmetry)
   PRECFOCK=normal    Normal, Fast or Accurate (Low or Medium for compatibility)
   LRHFCALC=     F    long range Hartree Fock
   LRSCOR  =     F    long range correlation only (use DFT for short range part)
   LTHOMAS =     F    Thomas Fermi screening in HF
   LMODELHF=     F    short range full HF, long range fraction AEXX
   ENCUT4O =  -1.0   cutoff for four orbital integrals eV
   LMAXFOCK=     4    L truncation for augmentation on plane wave grid
   LMAXFOCKAE=  -1    L truncation for all-electron charge restoration on plane wave grid
   NMAXFOCKAE=   1    number of basis functions for all-electron charge restoration
   LFOCKAEDFT=     F  apply the AE augmentation even for DFT
   NKREDX  =     1    reduce k-point grid by
   NKREDY  =     1    reduce k-point grid by
   NKREDZ  =     1    reduce k-point grid by
   SHIFTRED=     F    shift reduced grid of Gamma
   HFKIDENT=     F    idential grid for each k-point
   ODDONLY =     F    use only odd q-grid points
   EVENONLY=     F    use only even q-grid points
   HFALPHA =   -1.0000 decay constant for conv. correction
   MCALPHA =    0.0000 extent of test-charge in conv. correction in multipole expansion
   AEXX    =    0.2500 exact exchange contribution
   HFSCREEN=    0.2000 screening length (either q_TF or 0.3 A-1)
   HFSCREENC=   0.2000 screening length for correlation (either q_TF or 0.3 A-1)
   HFRCUT  =    0.0000 spherical cutoff for potential kernel
   ALDAX   =    0.7500 LDA exchange part
   AGGAX   =    0.7500 GGA exchange part
   ALDAC   =    1.0000 LDA correlation
   AGGAC   =    1.0000 GGA correlation
   ENCUTFOCK=  -1.0 apply spherical cutoff to Coloumb kernel
   NBANDSGWLOW=     1    first orbital included in HF term
   NBLOCK_FOCK=    64    blocking factor in FOCK_ACC
 Linear response parameters
   LEPSILON=     F    determine dielectric tensor
   LRPA    =     F    only Hartree local field effects (RPA)
   LNABLA  =     F    use nabla operator in PAW spheres
   LVEL    =     F    velocity operator in full k-point grid
   LINTERFAST=   F  fast interpolation
   KINTER  =     0    interpolate to denser k-point grid
   CSHIFT  =0.1000    complex shift for real part using Kramers Kronig
   OMEGAMAX=  -1.0    maximum frequency
   DEG_THRESHOLD= 0.2000000E-02 threshold for treating states as degnerate
   RTIME   =   -0.100 relaxation time in fs
  (WPLASMAI=    0.000 imaginary part of plasma frequency in eV, 0.658/RTIME)
   DFIELD  = 0.0000000 0.0000000 0.0000000 field for delta impulse in time
 
 Orbital magnetization related:
   ORBITALMAG=     F  switch on orbital magnetization
   LCHIMAG   =     F  perturbation theory with respect to B field
   DQ        =  0.001000  dq finite difference perturbation B field
   LLRAUG    =     F  two centre corrections for induced B field



--------------------------------------------------------------------------------------------------------


 Static calculation
 charge density and potential will be updated during run
 spin polarized calculation
 Conjugate gradient for all bands (Freysoldt, et al. PRB 79, 241103 (2009))
 perform sub-space diagonalisation
    before iterative eigenvector-optimisation
 modified Broyden-mixing scheme, WC =      100.0
 initial mixing is a Kerker type mixing with AMIX =  0.4000 and BMIX =      1.0000
 Hartree-type preconditioning will be used
 using additional bands           33
 reciprocal scheme for non local part
 use partial core corrections
 no Harris-corrections to forces 
 use gradient corrections 
 use of overlap-Matrix (Vanderbilt PP)
 Gauss-broadening in eV      SIGMA  =   0.10


--------------------------------------------------------------------------------------------------------


  energy-cutoff  :      500.00
  volume of cell :     3176.88
      direct lattice vectors                 reciprocal lattice vectors
    12.810000000  0.000000000  0.000000000     0.078064012  0.000000000  0.000000000
     0.000000000 12.400000000  0.000000000     0.000000000  0.080645161  0.000000000
     0.000000000  0.000000000 20.000000000     0.000000000  0.000000000  0.050000000

  length of vectors
    12.810000000 12.400000000 20.000000000     0.078064012  0.080645161  0.050000000


 
 old parameters found on file WAVECAR:
  energy-cutoff  :      500.00
  volume of cell :     3176.88
      direct lattice vectors                 reciprocal lattice vectors
    12.810000000  0.000000000  0.000000000     0.078064012  0.000000000  0.000000000
     0.000000000 12.400000000  0.000000000     0.000000000  0.080645161  0.000000000
     0.000000000  0.000000000 20.000000000     0.000000000  0.000000000  0.050000000

  length of vectors

 
 k-points in units of 2pi/SCALE and weight: KPOINTS created by Atomic Simulation Env
   0.01951600  0.02016129  0.00000000       0.500
  -0.01951600  0.02016129  0.00000000       0.500
 
 k-points in reciprocal lattice and weights: KPOINTS created by Atomic Simulation Env
   0.25000000  0.25000000  0.00000000       0.500
  -0.25000000  0.25000000  0.00000000       0.500
 
 position of ions in fractional coordinates (direct lattice) 
   0.22772739  0.99990225  0.49317934
   0.05879559  0.09981779  0.50380462
   0.11551737  0.00006333  0.49977228
   0.28204186  0.10437293  0.49031607
   0.22305885  0.20517893  0.49190798
   0.05242249  0.29884640  0.50697820
   0.11188760  0.20107181  0.50115496
   0.21019012  0.39954144  0.49069166
   0.04982541  0.49994821  0.50865031
   0.10381213  0.39974632  0.50374794
   0.26436296  0.49838599  0.47882712
   0.21111083  0.60051129  0.48910242
   0.05251349  0.70066501  0.50653480
   0.10407978  0.59955943  0.50291272
   0.22220004  0.79453294  0.49171665
   0.05837591  0.90033339  0.50372756
   0.11107170  0.79916499  0.50082997
   0.28210138  0.89591534  0.49002996
   0.55832492  0.00053138  0.49843163
   0.39465698  0.10442275  0.48987220
   0.44784395  0.00127864  0.49237234
   0.61378030  0.10057445  0.50198090
   0.55826646  0.19987799  0.49743417
   0.61243217  0.30237842  0.50078721
   0.60823683  0.49992187  0.50085680
   0.61266806  0.69759214  0.50209981
   0.55778250  0.80151203  0.49751278
   0.39500343  0.89765799  0.48914737
   0.61398204  0.90052232  0.50237772
   0.89133557  0.00016239  0.50975124
   0.72432798  0.09983781  0.50768880
   0.78019221  0.00029954  0.50946747
   0.94696744  0.09997135  0.50885446
   0.88926638  0.19899294  0.51125096
   0.72176948  0.29953299  0.50807877
   0.77823526  0.19936948  0.50998397
   0.94256020  0.29920544  0.51216552
   0.88626646  0.39954929  0.51410612
   0.71986389  0.49955969  0.50901427
   0.77603324  0.39999158  0.51137408
   0.94046138  0.49995972  0.51407190
   0.88608457  0.60024888  0.51425080
   0.72192563  0.70075561  0.50913961
   0.77563488  0.59975008  0.51197084
   0.94244691  0.70056655  0.51225403
   0.88931100  0.80101883  0.51162871
   0.72444763  0.90072933  0.50835360
   0.77833413  0.80097451  0.51077235
   0.94675515  0.90025668  0.50902541
   0.26940929  0.30606413  0.48519420
   0.26709802  0.69437071  0.48502917
   0.45138397  0.20035695  0.48926424
   0.55588699  0.40009538  0.49579858
   0.36408216  0.49146632  0.45887573
   0.55889758  0.59941470  0.49811292
   0.45240897  0.80327548  0.48800824
   0.41079980  0.35300495  0.47782711
   0.41416130  0.64228094  0.47187944
 
 position of ions in cartesian coordinates  (Angst):
   2.91718784 12.39878787  9.86358686
   0.75317145  1.23774060 10.07609239
   1.47977752  0.00078529  9.99544557
   3.61295626  1.29422429  9.80632135
   2.85738384  2.54421874  9.83815969
   0.67153213  3.70569530 10.13956402
   1.43328019  2.49329044 10.02309920
   2.69253545  4.95431391  9.81383315
   0.63826350  6.19935780 10.17300617
   1.32983342  4.95685443 10.07495889
   3.38648951  6.17998622  9.57654246
   2.70432969  7.44633997  9.78204836
   0.67269779  8.68824612 10.13069606
   1.33326201  7.43453689 10.05825433
   2.84638253  9.85220840  9.83433308
   0.74779546 11.16413400 10.07455112
   1.42282847  9.90964582 10.01659941
   3.61371872 11.10935022  9.80059924
   7.15214227  0.00658915  9.96863254
   5.05555594  1.29484204  9.79744390
   5.73688106  0.01585507  9.84744673
   7.86252565  1.24712324 10.03961797
   7.15139332  2.47848712  9.94868335
   7.84525613  3.74949238 10.01574410
   7.79151380  6.19903119 10.01713592
   7.84827781  8.65014248 10.04199622
   7.14519380  9.93874916  9.95025568
   5.05999389 11.13095912  9.78294741
   7.86510992 11.16647679 10.04755430
  11.41800871  0.00201369 10.19502475
   9.27864143  1.23798890 10.15377594
   9.99426219  0.00371434 10.18934942
  12.13065285  1.23964476 10.17708918
  11.39150228  2.46751251 10.22501925
   9.24586707  3.71420911 10.16157543
   9.96919370  2.47218156 10.19967943
  12.07419613  3.71014745 10.24331031
  11.35307330  4.95441123 10.28212243
   9.22145640  6.19454012 10.18028538
   9.94098583  4.95989555 10.22748157
  12.04731026  6.19950055 10.28143806
  11.35074332  7.44308617 10.28501596
   9.24786726  8.68936960 10.18279211
   9.93588276  7.43690098 10.23941678
  12.07274496  8.68702519 10.24508067
  11.39207390  9.93263343 10.23257412
   9.28017418 11.16904370 10.16707195
   9.97046022  9.93208392 10.21544698
  12.12793345 11.16318289 10.18050823
   3.45113305  3.79519525  9.70388401
   3.42152568  8.61019677  9.70058344
   5.78222860  2.48442613  9.78528485
   7.12091228  4.96118269  9.91597162
   4.66389247  6.09418235  9.17751469
   7.15947799  7.43274223  9.96225832
   5.79535887  9.96061593  9.76016476
   5.26234542  4.37726132  9.55654216
   5.30540629  7.96428364  9.43758872
 


--------------------------------------------------------------------------------------------------------


 k-point  1 :   0.2500 0.2500 0.0000  plane waves:   80679
 k-point  2 :  -0.2500 0.2500 0.0000  plane waves:   80679

 maximum and minimum number of plane-waves per node :      2549     2492

 maximum number of plane-waves:     80679
 maximum index in each direction: 
   IXMAX=   23   IYMAX=   22   IZMAX=   36
   IXMIN=  -23   IYMIN=  -22   IZMIN=  -36


 parallel 3D FFT for wavefunctions:
    minimum data exchange during FFTs selected (reduces bandwidth)
 parallel 3D FFT for charge:
    minimum data exchange during FFTs selected (reduces bandwidth)


 FFT grid for exact exchange (Hartree Fock) 
  NGX = 72; NGY = 70; NGZ =112

 
 Radii for the augmentation spheres in the non-local exchange
 for species   1 augmentation radius   0.874 (default was   0.699)
       energy cutoff for augmentation   2000.0
 for species   2 augmentation radius   0.886 (default was   0.709)
       energy cutoff for augmentation   2000.0
 for species   3 augmentation radius   1.263 (default was   1.010)
       energy cutoff for augmentation   2000.0
 for species   4 augmentation radius   1.190 (default was   0.952)
       energy cutoff for augmentation   2000.0

 real space projection operators:
  total allocation   :       2486.48 KBytes
  max/ min on nodes  :        127.35         44.93

 Maximum index for augmentation-charges in exchange          140
  SETUP_FOCK is finished

 total amount of memory used by VASP MPI-rank0   163950. kBytes
=======================================================================

   base      :      30000. kBytes
   nonl-proj :       5318. kBytes
   fftplans  :      13453. kBytes
   grid      :      34560. kBytes
   one-center:         62. kBytes
   HF        :         23. kBytes
   nonlr-proj:       1682. kBytes
   wavefun   :      78852. kBytes
 
     INWAV:  cpu time    3.6122: real time    3.6171
 Broyden mixing: mesh for mixing (old mesh)
   NGX = 47   NGY = 45   NGZ = 73
  (NGX  =192   NGY  =180   NGZ  =300)
  gives a total of 154395 points

 charge density for first step will be calculated from the start-wavefunctions


--------------------------------------------------------------------------------------------------------


 Maximum index for augmentation-charges          239 (set IRDMAX)


--------------------------------------------------------------------------------------------------------


 initial charge from wavefunction
 First call to EWALD:  gamma=   0.121
 Maximum number of real-space cells 3x 3x 2
 Maximum number of reciprocal cells 2x 2x 4

    FEWALD:  cpu time    0.0040: real time    0.0040


--------------------------------------- Iteration      1(   1)  ---------------------------------------


    POTLOK:  cpu time    1.3205: real time    1.3235
    SETDIJ:  cpu time    2.1120: real time    2.1130
    TRIAL :  cpu time  547.6391: real time  547.8564
    CORREC:  cpu time    0.0023: real time    0.0026
    CHARGE:  cpu time    1.6911: real time    1.6914
    --------------------------------------------
      LOOP:  cpu time  552.7725: real time  553.1935

 eigenvalue-minimisations  :     0
 total energy-change (2. order) :-0.5997092E+03  (-0.4244323E+00)
 number of electron     251.0000019 magnetization      -2.8760342
 augmentation part       18.3918651 magnetization      -1.6825794

 DIPCOR: dipole corrections for dipol
 direction  3 min pos     1,
 dipolmoment           0.000000      0.000000      0.017095 electrons x Angstroem
 Tr[quadrupol]     -6805.491195

 energy correction for charged system         0.000000 eV
 dipol+quadrupol energy correction           -0.000008 eV
 added-field ion interaction          0.008867 eV  (added to PSCEN)


 Free energy of the ion-electron system (eV)
  ---------------------------------------------------
  alpha Z        PSCENC =       108.67942373
  Ewald energy   TEWEN  =     41087.81152227
  -Hartree energ DENC   =    -50834.57108333
  -exchange      EXHF   =       582.97441219
  -V(xc)+E(xc)   XCENC  =       672.92684335
  PAW double counting   =     27455.05791085   -27660.01731321
  entropy T*S    EENTRO =        -0.01471467
  eigenvalues    EBANDS =     -3306.08381483
  atomic energy  EATOM  =     11293.53018972
  ---------------------------------------------------
  free energy    TOTEN  =      -599.70922840 eV

  energy without entropy =     -599.69451373  energy(sigma->0) =     -599.70187107
  exchange ACFDT corr.  =        -0.01529012  see jH, gK, PRB 81, 115126


--------------------------------------------------------------------------------------------------------




--------------------------------------- Iteration      1(   2)  ---------------------------------------


    POTLOK:  cpu time    1.3213: real time    1.3252
    SETDIJ:  cpu time    2.1066: real time    2.1070
    TRIAL :  cpu time  545.9125: real time  546.1448
    CORREC:  cpu time    0.0022: real time    0.0025
    CHARGE:  cpu time    1.6861: real time    1.6867
    --------------------------------------------
      LOOP:  cpu time  551.0312: real time  551.2687

 eigenvalue-minimisations  :     0
 total energy-change (2. order) :-0.3478130E+00  (-0.3593779E+00)
 number of electron     251.0000019 magnetization      -2.9141733
 augmentation part       18.3915771 magnetization      -1.7103642

 DIPCOR: dipole corrections for dipol
 direction  3 min pos     1,
 dipolmoment           0.000000      0.000000      0.009246 electrons x Angstroem
 Tr[quadrupol]     -6805.329003

 energy correction for charged system         0.000000 eV
 dipol+quadrupol energy correction           -0.000002 eV
 added-field ion interaction          0.004796 eV  (added to PSCEN)


 Free energy of the ion-electron system (eV)
  ---------------------------------------------------
  alpha Z        PSCENC =       108.67535825
  Ewald energy   TEWEN  =     41087.81152227
  -Hartree energ DENC   =    -50824.03429200
  -exchange      EXHF   =       582.88695953
  -V(xc)+E(xc)   XCENC  =       672.64424063
  PAW double counting   =     27587.92863702   -27794.31593649
  entropy T*S    EENTRO =        -0.01119914
  eigenvalues    EBANDS =     -3315.16900567
  atomic energy  EATOM  =     11293.53018972
  ---------------------------------------------------
  free energy    TOTEN  =      -600.05704140 eV

  energy without entropy =     -600.04584227  energy(sigma->0) =     -600.05144183
  exchange ACFDT corr.  =        -0.01159871  see jH, gK, PRB 81, 115126


--------------------------------------------------------------------------------------------------------




--------------------------------------- Iteration      1(   3)  ---------------------------------------


    POTLOK:  cpu time    1.3240: real time    1.3241
    SETDIJ:  cpu time    2.1026: real time    2.1032
    TRIAL :  cpu time  546.8433: real time  547.0637
    CORREC:  cpu time    0.0021: real time    0.0024
    CHARGE:  cpu time    1.6899: real time    1.6941
    --------------------------------------------
      LOOP:  cpu time  551.9638: real time  552.1895

 eigenvalue-minimisations  :     0
 total energy-change (2. order) :-0.2731210E+00  (-0.2026625E+00)
 number of electron     251.0000019 magnetization      -2.9460856
 augmentation part       18.3808044 magnetization      -1.7328345

 DIPCOR: dipole corrections for dipol
 direction  3 min pos     1,
 dipolmoment           0.000000      0.000000      0.006133 electrons x Angstroem
 Tr[quadrupol]     -6805.160611

 energy correction for charged system         0.000000 eV
 dipol+quadrupol energy correction           -0.000001 eV
 added-field ion interaction          0.003181 eV  (added to PSCEN)


 Free energy of the ion-electron system (eV)
  ---------------------------------------------------
  alpha Z        PSCENC =       108.67374521
  Ewald energy   TEWEN  =     41087.81152227
  -Hartree energ DENC   =    -50811.26069025
  -exchange      EXHF   =       582.82855150
  -V(xc)+E(xc)   XCENC  =       672.31578731
  PAW double counting   =     27756.01594515   -27963.11474028
  entropy T*S    EENTRO =        -0.00779389
  eigenvalues    EBANDS =     -3327.11927394
  atomic energy  EATOM  =     11293.53018972
  ---------------------------------------------------
  free energy    TOTEN  =      -600.33016244 eV

  energy without entropy =     -600.32236855  energy(sigma->0) =     -600.32626550
  exchange ACFDT corr.  =        -0.00783651  see jH, gK, PRB 81, 115126


--------------------------------------------------------------------------------------------------------




--------------------------------------- Iteration      1(   4)  ---------------------------------------


    POTLOK:  cpu time    1.3228: real time    1.3231
    SETDIJ:  cpu time    2.1095: real time    2.1099
    TRIAL :  cpu time  546.2224: real time  546.4563
    CORREC:  cpu time    0.0022: real time    0.0025
    CHARGE:  cpu time    1.6869: real time    1.6874
    --------------------------------------------
      LOOP:  cpu time  551.3459: real time  551.5813

 eigenvalue-minimisations  :     0
 total energy-change (2. order) :-0.1535732E+00  (-0.1097662E+00)
 number of electron     251.0000019 magnetization      -2.9679945
 augmentation part       18.3748334 magnetization      -1.7463979

 DIPCOR: dipole corrections for dipol
 direction  3 min pos     1,
 dipolmoment           0.000000      0.000000      0.009134 electrons x Angstroem
 Tr[quadrupol]     -6805.087905

 energy correction for charged system         0.000000 eV
 dipol+quadrupol energy correction           -0.000002 eV
 added-field ion interaction          0.004738 eV  (added to PSCEN)


 Free energy of the ion-electron system (eV)
  ---------------------------------------------------
  alpha Z        PSCENC =       108.67530028
  Ewald energy   TEWEN  =     41087.81152227
  -Hartree energ DENC   =    -50803.45024671
  -exchange      EXHF   =       582.90812898
  -V(xc)+E(xc)   XCENC  =       672.12379577
  PAW double counting   =     27900.78151320   -28107.36409938
  entropy T*S    EENTRO =        -0.00509795
  eigenvalues    EBANDS =     -3335.49204587
  atomic energy  EATOM  =     11293.53018972
  ---------------------------------------------------
  free energy    TOTEN  =      -600.48373562 eV

  energy without entropy =     -600.47863768  energy(sigma->0) =     -600.48118665
  exchange ACFDT corr.  =        -0.00486107  see jH, gK, PRB 81, 115126


--------------------------------------------------------------------------------------------------------




--------------------------------------- Iteration      1(   5)  ---------------------------------------


    POTLOK:  cpu time    1.3214: real time    1.3215
    SETDIJ:  cpu time    2.1092: real time    2.1094
    TRIAL :  cpu time  547.6171: real time  547.8328
    CORREC:  cpu time    0.0021: real time    0.0024
    CHARGE:  cpu time    1.6878: real time    1.6880
    --------------------------------------------
      LOOP:  cpu time  552.7396: real time  552.9562

 eigenvalue-minimisations  :     0
 total energy-change (2. order) :-0.8424855E-01  (-0.6160730E-01)
 number of electron     251.0000019 magnetization      -2.9813506
 augmentation part       18.3803739 magnetization      -1.7528329

 DIPCOR: dipole corrections for dipol
 direction  3 min pos     1,
 dipolmoment           0.000000      0.000000      0.013713 electrons x Angstroem
 Tr[quadrupol]     -6805.109065

 energy correction for charged system         0.000000 eV
 dipol+quadrupol energy correction           -0.000005 eV
 added-field ion interaction          0.007113 eV  (added to PSCEN)


 Free energy of the ion-electron system (eV)
  ---------------------------------------------------
  alpha Z        PSCENC =       108.67767250
  Ewald energy   TEWEN  =     41087.81152227
  -Hartree energ DENC   =    -50802.64715029
  -exchange      EXHF   =       583.11885088
  -V(xc)+E(xc)   XCENC  =       672.11509493
  PAW double counting   =     28005.34213331   -28211.14012494
  entropy T*S    EENTRO =        -0.00323598
  eigenvalues    EBANDS =     -3337.37107461
  atomic energy  EATOM  =     11293.53018972
  ---------------------------------------------------
  free energy    TOTEN  =      -600.56798417 eV

  energy without entropy =     -600.56474820  energy(sigma->0) =     -600.56636619
  exchange ACFDT corr.  =        -0.00285213  see jH, gK, PRB 81, 115126


--------------------------------------------------------------------------------------------------------




--------------------------------------- Iteration      1(   6)  ---------------------------------------


    POTLOK:  cpu time    1.3238: real time    1.3240
    SETDIJ:  cpu time    2.0984: real time    2.0987
    TRIAL :  cpu time  546.5620: real time  546.7847
    CORREC:  cpu time    0.0021: real time    0.0024
    CHARGE:  cpu time    1.6860: real time    1.6862
    --------------------------------------------
      LOOP:  cpu time  551.6747: real time  551.8984

 eigenvalue-minimisations  :     0
 total energy-change (2. order) :-0.4946887E-01  (-0.3847044E-01)
 number of electron     251.0000019 magnetization      -2.9889873
 augmentation part       18.3915337 magnetization      -1.7549458

 DIPCOR: dipole corrections for dipol
 direction  3 min pos     1,
 dipolmoment           0.000000      0.000000      0.016995 electrons x Angstroem
 Tr[quadrupol]     -6805.169360

 energy correction for charged system         0.000000 eV
 dipol+quadrupol energy correction           -0.000008 eV
 added-field ion interaction          0.008815 eV  (added to PSCEN)


 Free energy of the ion-electron system (eV)
  ---------------------------------------------------
  alpha Z        PSCENC =       108.67937180
  Ewald energy   TEWEN  =     41087.81152227
  -Hartree energ DENC   =    -50806.31212063
  -exchange      EXHF   =       583.37683183
  -V(xc)+E(xc)   XCENC  =       672.22359785
  PAW double counting   =     28072.94133852   -28278.52225864
  entropy T*S    EENTRO =        -0.00205449
  eigenvalues    EBANDS =     -3334.34268979
  atomic energy  EATOM  =     11293.53018972
  ---------------------------------------------------
  free energy    TOTEN  =      -600.61745305 eV

  energy without entropy =     -600.61539856  energy(sigma->0) =     -600.61642580
  exchange ACFDT corr.  =        -0.00164020  see jH, gK, PRB 81, 115126


--------------------------------------------------------------------------------------------------------




--------------------------------------- Iteration      1(   7)  ---------------------------------------


    POTLOK:  cpu time    1.3215: real time    1.3217
    SETDIJ:  cpu time    2.0978: real time    2.0979
    TRIAL :  cpu time  547.2522: real time  547.3290
    CORREC:  cpu time    0.0020: real time    0.0023
    CHARGE:  cpu time    1.6881: real time    1.6882
    --------------------------------------------
      LOOP:  cpu time  552.3636: real time  552.4411

 eigenvalue-minimisations  :     0
 total energy-change (2. order) :-0.3178975E-01  (-0.2403103E-01)
 number of electron     251.0000019 magnetization      -2.9932605
 augmentation part       18.4012461 magnetization      -1.7549084

 DIPCOR: dipole corrections for dipol
 direction  3 min pos     1,
 dipolmoment           0.000000      0.000000      0.018607 electrons x Angstroem
 Tr[quadrupol]     -6805.224711

 energy correction for charged system         0.000000 eV
 dipol+quadrupol energy correction           -0.000010 eV
 added-field ion interaction          0.009651 eV  (added to PSCEN)


 Free energy of the ion-electron system (eV)
  ---------------------------------------------------
  alpha Z        PSCENC =       108.68020642
  Ewald energy   TEWEN  =     41087.81152227
  -Hartree energ DENC   =    -50810.77202571
  -exchange      EXHF   =       583.59935617
  -V(xc)+E(xc)   XCENC  =       672.35263910
  PAW double counting   =     28112.58150167   -28318.39166682
  entropy T*S    EENTRO =        -0.00133493
  eigenvalues    EBANDS =     -3330.03891114
  atomic energy  EATOM  =     11293.53018972
  ---------------------------------------------------
  free energy    TOTEN  =      -600.64924280 eV

  energy without entropy =     -600.64790786  energy(sigma->0) =     -600.64857533
  exchange ACFDT corr.  =        -0.00095502  see jH, gK, PRB 81, 115126


--------------------------------------------------------------------------------------------------------




--------------------------------------- Iteration      1(   8)  ---------------------------------------


    POTLOK:  cpu time    1.3207: real time    1.3208
    SETDIJ:  cpu time    2.1008: real time    2.1010
    TRIAL :  cpu time  546.9258: real time  546.9800
    CORREC:  cpu time    0.0019: real time    0.0022
    CHARGE:  cpu time    1.6892: real time    1.6892
    --------------------------------------------
      LOOP:  cpu time  552.0407: real time  552.0986

 eigenvalue-minimisations  :     0
 total energy-change (2. order) :-0.2021957E-01  (-0.1555079E-01)
 number of electron     251.0000019 magnetization      -2.9956780
 augmentation part       18.4067648 magnetization      -1.7539713

 DIPCOR: dipole corrections for dipol
 direction  3 min pos     1,
 dipolmoment           0.000000      0.000000      0.019283 electrons x Angstroem
 Tr[quadrupol]     -6805.258215

 energy correction for charged system         0.000000 eV
 dipol+quadrupol energy correction           -0.000011 eV
 added-field ion interaction          0.010002 eV  (added to PSCEN)


 Free energy of the ion-electron system (eV)
  ---------------------------------------------------
  alpha Z        PSCENC =       108.68055641
  Ewald energy   TEWEN  =     41087.81152227
  -Hartree energ DENC   =    -50813.83706134
  -exchange      EXHF   =       583.74905095
  -V(xc)+E(xc)   XCENC  =       672.44340308
  PAW double counting   =     28133.26205888   -28339.34168775
  entropy T*S    EENTRO =        -0.00089912
  eigenvalues    EBANDS =     -3326.96615967
  atomic energy  EATOM  =     11293.53018972
  ---------------------------------------------------
  free energy    TOTEN  =      -600.66946237 eV

  energy without entropy =     -600.66856326  energy(sigma->0) =     -600.66901281
  exchange ACFDT corr.  =        -0.00057631  see jH, gK, PRB 81, 115126


--------------------------------------------------------------------------------------------------------




--------------------------------------- Iteration      1(   9)  ---------------------------------------


    POTLOK:  cpu time    1.3180: real time    1.3181
    SETDIJ:  cpu time    2.1047: real time    2.1048
    TRIAL :  cpu time  546.7013: real time  546.7517
    CORREC:  cpu time    0.0019: real time    0.0022
    CHARGE:  cpu time    1.6865: real time    1.6867
    --------------------------------------------
      LOOP:  cpu time  551.8148: real time  551.8660

 eigenvalue-minimisations  :     0
 total energy-change (2. order) :-0.1348044E-01  (-0.1082583E-01)
 number of electron     251.0000019 magnetization      -2.9970890
 augmentation part       18.4086984 magnetization      -1.7527254

 DIPCOR: dipole corrections for dipol
 direction  3 min pos     1,
 dipolmoment           0.000000      0.000000      0.019734 electrons x Angstroem
 Tr[quadrupol]     -6805.272223

 energy correction for charged system         0.000000 eV
 dipol+quadrupol energy correction           -0.000011 eV
 added-field ion interaction          0.010236 eV  (added to PSCEN)


 Free energy of the ion-electron system (eV)
  ---------------------------------------------------
  alpha Z        PSCENC =       108.68078993
  Ewald energy   TEWEN  =     41087.81152227
  -Hartree energ DENC   =    -50815.16532048
  -exchange      EXHF   =       583.83137509
  -V(xc)+E(xc)   XCENC  =       672.48579817
  PAW double counting   =     28142.38700875   -28348.57168778
  entropy T*S    EENTRO =        -0.00063042
  eigenvalues    EBANDS =     -3325.67171936
  atomic energy  EATOM  =     11293.53018972
  ---------------------------------------------------
  free energy    TOTEN  =      -600.68294281 eV

  energy without entropy =     -600.68231238  energy(sigma->0) =     -600.68262760
  exchange ACFDT corr.  =        -0.00036472  see jH, gK, PRB 81, 115126


--------------------------------------------------------------------------------------------------------




--------------------------------------- Iteration      1(  10)  ---------------------------------------


    POTLOK:  cpu time    1.3166: real time    1.3166
    SETDIJ:  cpu time    2.1060: real time    2.1062
    TRIAL :  cpu time  547.4504: real time  547.5014
    CORREC:  cpu time    0.0020: real time    0.0023
    CHARGE:  cpu time    1.6857: real time    1.6858
    --------------------------------------------
      LOOP:  cpu time  552.5628: real time  552.6163

 eigenvalue-minimisations  :     0
 total energy-change (2. order) :-0.9513568E-02  (-0.7560175E-02)
 number of electron     251.0000019 magnetization      -2.9979443
 augmentation part       18.4095446 magnetization      -1.7513700

 DIPCOR: dipole corrections for dipol
 direction  3 min pos     1,
 dipolmoment           0.000000      0.000000      0.020321 electrons x Angstroem
 Tr[quadrupol]     -6805.275626

 energy correction for charged system         0.000000 eV
 dipol+quadrupol energy correction           -0.000012 eV
 added-field ion interaction          0.010540 eV  (added to PSCEN)


 Free energy of the ion-electron system (eV)
  ---------------------------------------------------
  alpha Z        PSCENC =       108.68109360
  Ewald energy   TEWEN  =     41087.81152227
  -Hartree energ DENC   =    -50815.36571972
  -exchange      EXHF   =       583.87067093
  -V(xc)+E(xc)   XCENC  =       672.49561186
  PAW double counting   =     28145.20908534   -28351.34390624
  entropy T*S    EENTRO =        -0.00046016
  eigenvalues    EBANDS =     -3325.58037370
  atomic energy  EATOM  =     11293.53018972
  ---------------------------------------------------
  free energy    TOTEN  =      -600.69245637 eV

  energy without entropy =     -600.69199621  energy(sigma->0) =     -600.69222629
  exchange ACFDT corr.  =        -0.00024273  see jH, gK, PRB 81, 115126


--------------------------------------------------------------------------------------------------------




--------------------------------------- Iteration      1(  11)  ---------------------------------------


    POTLOK:  cpu time    1.3157: real time    1.3158
    SETDIJ:  cpu time    2.1027: real time    2.1027
    TRIAL :  cpu time  548.4475: real time  548.5065
    CORREC:  cpu time    0.0019: real time    0.0022
    CHARGE:  cpu time    1.6844: real time    1.6845
    --------------------------------------------
      LOOP:  cpu time  553.5545: real time  553.6181

 eigenvalue-minimisations  :     0
 total energy-change (2. order) :-0.6702126E-02  (-0.5370259E-02)
 number of electron     251.0000019 magnetization      -2.9984817
 augmentation part       18.4110674 magnetization      -1.7498966

 DIPCOR: dipole corrections for dipol
 direction  3 min pos     1,
 dipolmoment           0.000000      0.000000      0.021055 electrons x Angstroem
 Tr[quadrupol]     -6805.276539

 energy correction for charged system         0.000000 eV
 dipol+quadrupol energy correction           -0.000013 eV
 added-field ion interaction          0.010921 eV  (added to PSCEN)


 Free energy of the ion-electron system (eV)
  ---------------------------------------------------
  alpha Z        PSCENC =       108.68147332
  Ewald energy   TEWEN  =     41087.81152227
  -Hartree energ DENC   =    -50815.27936307
  -exchange      EXHF   =       583.89294084
  -V(xc)+E(xc)   XCENC  =       672.49558195
  PAW double counting   =     28145.22674534   -28351.29507558
  entropy T*S    EENTRO =        -0.00034924
  eigenvalues    EBANDS =     -3325.76271311
  atomic energy  EATOM  =     11293.53018972
  ---------------------------------------------------
  free energy    TOTEN  =      -600.69915850 eV

  energy without entropy =     -600.69880926  energy(sigma->0) =     -600.69898388
  exchange ACFDT corr.  =        -0.00016961  see jH, gK, PRB 81, 115126


--------------------------------------------------------------------------------------------------------




--------------------------------------- Iteration      1(  12)  ---------------------------------------


    POTLOK:  cpu time    1.3162: real time    1.3163
    SETDIJ:  cpu time    2.0990: real time    2.0994
    TRIAL :  cpu time  548.1799: real time  548.2570
    CORREC:  cpu time    0.0020: real time    0.0023
    CHARGE:  cpu time    1.6837: real time    1.6840
    --------------------------------------------
      LOOP:  cpu time  553.2832: real time  553.3613

 eigenvalue-minimisations  :     0
 total energy-change (2. order) :-0.4851672E-02  (-0.3971803E-02)
 number of electron     251.0000019 magnetization      -2.9988307
 augmentation part       18.4130424 magnetization      -1.7482429

 DIPCOR: dipole corrections for dipol
 direction  3 min pos     1,
 dipolmoment           0.000000      0.000000      0.021783 electrons x Angstroem
 Tr[quadrupol]     -6805.278930

 energy correction for charged system         0.000000 eV
 dipol+quadrupol energy correction           -0.000014 eV
 added-field ion interaction          0.011299 eV  (added to PSCEN)


 Free energy of the ion-electron system (eV)
  ---------------------------------------------------
  alpha Z        PSCENC =       108.68185019
  Ewald energy   TEWEN  =     41087.81152227
  -Hartree energ DENC   =    -50815.38932378
  -exchange      EXHF   =       583.91329982
  -V(xc)+E(xc)   XCENC  =       672.49910011
  PAW double counting   =     28144.59094510   -28350.66688332
  entropy T*S    EENTRO =        -0.00027506
  eigenvalues    EBANDS =     -3325.67436104
  atomic energy  EATOM  =     11293.53018972
  ---------------------------------------------------
  free energy    TOTEN  =      -600.70401017 eV

  energy without entropy =     -600.70373511  energy(sigma->0) =     -600.70387264
  exchange ACFDT corr.  =        -0.00012412  see jH, gK, PRB 81, 115126


--------------------------------------------------------------------------------------------------------




--------------------------------------- Iteration      1(  13)  ---------------------------------------


    POTLOK:  cpu time    1.3162: real time    1.3162
    SETDIJ:  cpu time    2.0980: real time    2.0981
    TRIAL :  cpu time  548.4500: real time  548.4982
    CORREC:  cpu time    0.0020: real time    0.0023
    CHARGE:  cpu time    1.6844: real time    1.6845
    --------------------------------------------
      LOOP:  cpu time  553.5528: real time  553.6015

 eigenvalue-minimisations  :     0
 total energy-change (2. order) :-0.3631111E-02  (-0.3006376E-02)
 number of electron     251.0000019 magnetization      -2.9990644
 augmentation part       18.4147576 magnetization      -1.7463878

 DIPCOR: dipole corrections for dipol
 direction  3 min pos     1,
 dipolmoment           0.000000      0.000000      0.022389 electrons x Angstroem
 Tr[quadrupol]     -6805.282821

 energy correction for charged system         0.000000 eV
 dipol+quadrupol energy correction           -0.000014 eV
 added-field ion interaction          0.011613 eV  (added to PSCEN)


 Free energy of the ion-electron system (eV)
  ---------------------------------------------------
  alpha Z        PSCENC =       108.68216367
  Ewald energy   TEWEN  =     41087.81152227
  -Hartree energ DENC   =    -50815.67378003
  -exchange      EXHF   =       583.93374823
  -V(xc)+E(xc)   XCENC  =       672.50593823
  PAW double counting   =     28144.26271829   -28350.38877030
  entropy T*S    EENTRO =        -0.00022417
  eigenvalues    EBANDS =     -3325.37109629
  atomic energy  EATOM  =     11293.53018972
  ---------------------------------------------------
  free energy    TOTEN  =      -600.70764128 eV

  energy without entropy =     -600.70741712  energy(sigma->0) =     -600.70752920
  exchange ACFDT corr.  =        -0.00009482  see jH, gK, PRB 81, 115126


--------------------------------------------------------------------------------------------------------




--------------------------------------- Iteration      1(  14)  ---------------------------------------


    POTLOK:  cpu time    1.3139: real time    1.3140
    SETDIJ:  cpu time    2.0984: real time    2.0984
    TRIAL :  cpu time  548.6984: real time  548.7454
    CORREC:  cpu time    0.0020: real time    0.0023
    CHARGE:  cpu time    1.6848: real time    1.6848
    --------------------------------------------
      LOOP:  cpu time  553.7994: real time  553.8468

 eigenvalue-minimisations  :     0
 total energy-change (2. order) :-0.2779850E-02  (-0.2355241E-02)
 number of electron     251.0000019 magnetization      -2.9992260
 augmentation part       18.4158777 magnetization      -1.7443570

 DIPCOR: dipole corrections for dipol
 direction  3 min pos     1,
 dipolmoment           0.000000      0.000000      0.022860 electrons x Angstroem
 Tr[quadrupol]     -6805.286965

 energy correction for charged system         0.000000 eV
 dipol+quadrupol energy correction           -0.000015 eV
 added-field ion interaction          0.011857 eV  (added to PSCEN)


 Free energy of the ion-electron system (eV)
  ---------------------------------------------------
  alpha Z        PSCENC =       108.68240751
  Ewald energy   TEWEN  =     41087.81152227
  -Hartree energ DENC   =    -50815.96894945
  -exchange      EXHF   =       583.95206229
  -V(xc)+E(xc)   XCENC  =       672.51210859
  PAW double counting   =     28144.50763974   -28350.67382413
  entropy T*S    EENTRO =        -0.00018829
  eigenvalues    EBANDS =     -3325.06335353
  atomic energy  EATOM  =     11293.53018972
  ---------------------------------------------------
  free energy    TOTEN  =      -600.71042113 eV

  energy without entropy =     -600.71023284  energy(sigma->0) =     -600.71032699
  exchange ACFDT corr.  =        -0.00007533  see jH, gK, PRB 81, 115126


--------------------------------------------------------------------------------------------------------




--------------------------------------- Iteration      1(  15)  ---------------------------------------


    POTLOK:  cpu time    1.3180: real time    1.3180
    SETDIJ:  cpu time    2.0949: real time    2.0950
    TRIAL :  cpu time  547.6269: real time  547.6786
    CORREC:  cpu time    0.0020: real time    0.0023
    CHARGE:  cpu time    1.7007: real time    1.7009
    --------------------------------------------
      LOOP:  cpu time  552.7451: real time  552.8009

 eigenvalue-minimisations  :     0
 total energy-change (2. order) :-0.2201375E-02  (-0.1902554E-02)
 number of electron     251.0000019 magnetization      -2.9993411
 augmentation part       18.4165167 magnetization      -1.7422116

 DIPCOR: dipole corrections for dipol
 direction  3 min pos     1,
 dipolmoment           0.000000      0.000000      0.023237 electrons x Angstroem
 Tr[quadrupol]     -6805.290519

 energy correction for charged system         0.000000 eV
 dipol+quadrupol energy correction           -0.000015 eV
 added-field ion interaction          0.012053 eV  (added to PSCEN)


 Free energy of the ion-electron system (eV)
  ---------------------------------------------------
  alpha Z        PSCENC =       108.68260259
  Ewald energy   TEWEN  =     41087.81152227
  -Hartree energ DENC   =    -50816.18445121
  -exchange      EXHF   =       583.96705713
  -V(xc)+E(xc)   XCENC  =       672.51555862
  PAW double counting   =     28145.27943627   -28351.45540891
  entropy T*S    EENTRO =        -0.00016231
  eigenvalues    EBANDS =     -3324.85894070
  atomic energy  EATOM  =     11293.53018972
  ---------------------------------------------------
  free energy    TOTEN  =      -600.71262251 eV

  energy without entropy =     -600.71246019  energy(sigma->0) =     -600.71254135
  exchange ACFDT corr.  =        -0.00006193  see jH, gK, PRB 81, 115126


--------------------------------------------------------------------------------------------------------




--------------------------------------- Iteration      1(  16)  ---------------------------------------


    POTLOK:  cpu time    1.3112: real time    1.3112
    SETDIJ:  cpu time    2.0995: real time    2.0996
    TRIAL :  cpu time  548.5412: real time  548.5897
    CORREC:  cpu time    0.0020: real time    0.0023
    CHARGE:  cpu time    1.6852: real time    1.6855
    --------------------------------------------
      LOOP:  cpu time  553.6416: real time  553.7043

 eigenvalue-minimisations  :     0
 total energy-change (2. order) :-0.1791144E-02  (-0.1565176E-02)
 number of electron     251.0000019 magnetization      -2.9994254
 augmentation part       18.4170326 magnetization      -1.7400173

 DIPCOR: dipole corrections for dipol
 direction  3 min pos     1,
 dipolmoment           0.000000      0.000000      0.023548 electrons x Angstroem
 Tr[quadrupol]     -6805.293324

 energy correction for charged system         0.000000 eV
 dipol+quadrupol energy correction           -0.000016 eV
 added-field ion interaction          0.012214 eV  (added to PSCEN)


 Free energy of the ion-electron system (eV)
  ---------------------------------------------------
  alpha Z        PSCENC =       108.68276364
  Ewald energy   TEWEN  =     41087.81152227
  -Hartree energ DENC   =    -50816.32600469
  -exchange      EXHF   =       583.97928770
  -V(xc)+E(xc)   XCENC  =       672.51672778
  PAW double counting   =     28146.37666940   -28352.54211081
  entropy T*S    EENTRO =        -0.00014302
  eigenvalues    EBANDS =     -3324.74329635
  atomic energy  EATOM  =     11293.53018972
  ---------------------------------------------------
  free energy    TOTEN  =      -600.71441365 eV

  energy without entropy =     -600.71427063  energy(sigma->0) =     -600.71434214
  exchange ACFDT corr.  =        -0.00005243  see jH, gK, PRB 81, 115126


--------------------------------------------------------------------------------------------------------




--------------------------------------- Iteration      1(  17)  ---------------------------------------


    POTLOK:  cpu time    1.3128: real time    1.3131
    SETDIJ:  cpu time    2.0979: real time    2.0980
    TRIAL :  cpu time  547.9924: real time  548.0341
    CORREC:  cpu time    0.0019: real time    0.0022
    CHARGE:  cpu time    1.6847: real time    1.6848
    --------------------------------------------
      LOOP:  cpu time  553.0922: real time  553.1346

 eigenvalue-minimisations  :     0
 total energy-change (2. order) :-0.1483912E-02  (-0.1311244E-02)
 number of electron     251.0000019 magnetization      -2.9994888
 augmentation part       18.4176002 magnetization      -1.7378192

 DIPCOR: dipole corrections for dipol
 direction  3 min pos     1,
 dipolmoment           0.000000      0.000000      0.023796 electrons x Angstroem
 Tr[quadrupol]     -6805.295622

 energy correction for charged system         0.000000 eV
 dipol+quadrupol energy correction           -0.000016 eV
 added-field ion interaction          0.012343 eV  (added to PSCEN)


 Free energy of the ion-electron system (eV)
  ---------------------------------------------------
  alpha Z        PSCENC =       108.68289168
  Ewald energy   TEWEN  =     41087.81152227
  -Hartree energ DENC   =    -50816.44860072
  -exchange      EXHF   =       583.99013246
  -V(xc)+E(xc)   XCENC  =       672.51731735
  PAW double counting   =     28147.56970589   -28353.72709256
  entropy T*S    EENTRO =        -0.00012836
  eigenvalues    EBANDS =     -3324.64182063
  atomic energy  EATOM  =     11293.53018972
  ---------------------------------------------------
  free energy    TOTEN  =      -600.71589756 eV

  energy without entropy =     -600.71576920  energy(sigma->0) =     -600.71583338
  exchange ACFDT corr.  =        -0.00004549  see jH, gK, PRB 81, 115126


--------------------------------------------------------------------------------------------------------




--------------------------------------- Iteration      1(  18)  ---------------------------------------


    POTLOK:  cpu time    1.3115: real time    1.3115
    SETDIJ:  cpu time    2.0891: real time    2.0892
    TRIAL :  cpu time  548.3606: real time  548.4012
    CORREC:  cpu time    0.0019: real time    0.0021
    CHARGE:  cpu time    1.6859: real time    1.6859
    --------------------------------------------
      LOOP:  cpu time  553.4513: real time  553.4959

 eigenvalue-minimisations  :     0
 total energy-change (2. order) :-0.1251255E-02  (-0.1116673E-02)
 number of electron     251.0000019 magnetization      -2.9995376
 augmentation part       18.4181357 magnetization      -1.7356351

 DIPCOR: dipole corrections for dipol
 direction  3 min pos     1,
 dipolmoment           0.000000      0.000000      0.023986 electrons x Angstroem
 Tr[quadrupol]     -6805.297655

 energy correction for charged system         0.000000 eV
 dipol+quadrupol energy correction           -0.000016 eV
 added-field ion interaction          0.012441 eV  (added to PSCEN)


 Free energy of the ion-electron system (eV)
  ---------------------------------------------------
  alpha Z        PSCENC =       108.68298995
  Ewald energy   TEWEN  =     41087.81152227
  -Hartree energ DENC   =    -50816.58184299
  -exchange      EXHF   =       584.00032093
  -V(xc)+E(xc)   XCENC  =       672.51826483
  PAW double counting   =     28148.68170875   -28354.84249924
  entropy T*S    EENTRO =        -0.00011697
  eigenvalues    EBANDS =     -3324.51767467
[...]
  augment    47.80777    47.90130    48.64213    -0.34012     1.23064    -0.48962
  Kinetic  3753.12839  3662.97426  4219.46978     3.90716     0.19177     4.31310
  Fock     -392.19418  -393.13699  -367.92875    -0.02798    -1.48165     1.89873
  -------------------------------------------------------------------------------------
  Total     -17.67366   -73.02274    -1.13348     0.75178    -0.17583     0.64938
  in kB      -8.91325   -36.82713    -0.57164     0.37914    -0.08868     0.32750
  external pressure =      -15.44 kB  Pullay stress =        0.00 kB


 VOLUME and BASIS-vectors are now :
 -----------------------------------------------------------------------------
  energy-cutoff  :      500.00
  volume of cell :     3176.88
      direct lattice vectors                 reciprocal lattice vectors
    12.810000000  0.000000000  0.000000000     0.078064012  0.000000000  0.000000000
     0.000000000 12.400000000  0.000000000     0.000000000  0.080645161  0.000000000
     0.000000000  0.000000000 20.000000000     0.000000000  0.000000000  0.050000000

  length of vectors
    12.810000000 12.400000000 20.000000000     0.078064012  0.080645161  0.050000000


 FORCES acting on ions:
    Electron-Ion                     Ewald-Force                    Non-Local-Force
 -----------------------------------------------------------------------------------------------
   0.118E+01 -.392E+01 0.167E+02   -.114E+01 0.382E+01 -.166E+02   -.332E-01 0.965E-01 -.107E+00
   0.732E+00 0.819E+01 -.164E+02   -.618E+00 -.851E+01 0.165E+02   -.138E+00 0.302E+00 -.850E-01
   0.254E-01 -.157E+01 -.866E+00   0.806E-01 0.158E+01 0.736E+00   -.116E+00 -.208E-02 0.133E+00
   0.146E+02 0.129E+02 0.279E+02   -.148E+02 -.130E+02 -.281E+02   0.142E+00 0.731E-01 0.187E+00
   0.113E+02 0.499E+02 0.169E+02   -.128E+02 -.531E+02 -.166E+02   0.145E+01 0.335E+01 -.230E+00
   0.871E+01 0.166E+02 -.376E+02   -.903E+01 -.168E+02 0.377E+02   0.269E+00 0.220E+00 -.100E+00
   0.890E+01 0.165E+02 -.131E+02   -.909E+01 -.168E+02 0.131E+02   0.209E+00 0.234E+00 0.468E-02
   0.394E+02 -.410E+01 0.542E+01   -.410E+02 0.728E+01 -.508E+01   0.163E+01 -.342E+01 -.343E+00
   0.898E+01 0.177E+01 -.501E+02   -.909E+01 -.174E+01 0.501E+02   0.903E-01 -.472E-01 -.614E-01
   0.269E+02 0.339E+01 -.385E+02   -.273E+02 -.313E+01 0.387E+02   0.438E+00 -.219E+00 -.168E+00
   0.753E+02 0.456E+01 0.556E+02   -.759E+02 -.455E+01 -.559E+02   0.114E+01 -.536E-01 0.106E+00
   0.526E+02 0.227E+02 0.164E+02   -.545E+02 -.258E+02 -.164E+02   0.175E+01 0.323E+01 -.375E-01
   0.122E+02 -.149E+02 -.362E+02   -.125E+02 0.150E+02 0.363E+02   0.168E+00 -.159E+00 -.111E+00
   0.293E+02 0.329E+00 -.339E+02   -.296E+02 -.637E+00 0.341E+02   0.318E+00 0.311E+00 -.181E+00
   0.200E+02 -.630E+02 0.132E+02   -.215E+02 0.662E+02 -.129E+02   0.144E+01 -.330E+01 -.373E+00
   0.167E+01 -.116E+02 -.163E+02   -.157E+01 0.119E+02 0.164E+02   -.128E+00 -.300E+00 -.740E-01
   0.142E+02 -.188E+02 -.126E+02   -.143E+02 0.192E+02 0.126E+02   0.925E-01 -.306E+00 0.780E-01
   0.185E+02 -.199E+02 0.270E+02   -.186E+02 0.199E+02 -.271E+02   0.757E-01 0.506E-01 0.953E-01
   -.995E+01 -.448E+01 -.192E+01   0.101E+02 0.441E+01 0.173E+01   -.195E+00 0.814E-01 0.183E+00
   0.247E+02 0.285E+02 0.263E+02   -.270E+02 -.310E+02 -.262E+02   0.245E+01 0.268E+01 -.184E-01
   0.148E+02 -.641E+01 0.160E+02   -.152E+02 0.627E+01 -.159E+02   0.436E+00 0.957E-01 -.508E-01
   -.101E+02 0.705E+01 -.163E+02   0.109E+02 -.697E+01 0.165E+02   -.658E+00 -.305E-01 -.224E+00
   -.403E+02 0.113E+02 -.710E+01   0.434E+02 -.115E+02 0.748E+01   -.326E+01 0.171E-01 -.439E+00
   -.222E+02 0.245E+02 -.156E+02   0.241E+02 -.266E+02 0.160E+02   -.171E+01 0.231E+01 -.294E+00
   -.270E+02 0.169E+02 -.216E+02   0.304E+02 -.173E+02 0.219E+02   -.351E+01 0.230E+00 -.320E+00
   -.384E+02 -.346E+02 -.297E+02   0.405E+02 0.372E+02 0.301E+02   -.191E+01 -.261E+01 -.308E+00
   -.579E+02 -.211E+02 -.144E+02   0.611E+02 0.213E+02 0.150E+02   -.321E+01 -.156E+00 -.582E+00
   0.296E+02 -.465E+02 0.280E+02   -.320E+02 0.489E+02 -.279E+02   0.246E+01 -.255E+01 -.371E-01
   -.145E+02 -.147E+02 -.203E+02   0.152E+02 0.146E+02 0.204E+02   -.685E+00 0.115E+00 -.208E+00
   -.544E+01 -.104E+01 -.312E+02   0.548E+01 0.104E+01 0.312E+02   -.104E+00 -.204E-02 -.138E-01
   -.736E+01 0.523E+01 -.285E+02   0.780E+01 -.524E+01 0.285E+02   -.400E+00 0.436E-01 -.148E-02
   -.567E+01 -.169E+01 -.331E+02   0.585E+01 0.167E+01 0.331E+02   -.122E+00 0.147E-02 -.771E-01
   -.397E+01 0.224E+01 -.291E+02   0.408E+01 -.227E+01 0.291E+02   -.956E-01 0.325E-01 0.235E-01
   -.294E+01 0.880E+01 -.392E+02   0.302E+01 -.889E+01 0.392E+02   -.723E-01 0.770E-01 -.169E-01
   -.180E+02 0.113E+02 -.331E+02   0.181E+02 -.118E+02 0.331E+02   -.338E+00 0.370E+00 -.333E-01
   -.545E+01 0.215E+00 -.363E+02   0.561E+01 -.586E+00 0.364E+02   -.133E+00 0.281E+00 -.631E-01
   0.611E+01 0.291E+01 -.488E+02   -.621E+01 -.299E+01 0.489E+02   0.153E+00 0.349E-01 -.787E-01
   -.371E+01 0.679E+01 -.553E+02   0.387E+01 -.690E+01 0.553E+02   -.188E+00 0.126E+00 -.568E-01
   -.191E+02 0.391E+01 -.396E+02   0.197E+02 -.395E+01 0.396E+02   -.472E+00 0.728E-01 -.493E-01
   -.707E+01 0.357E+01 -.433E+02   0.745E+01 -.360E+01 0.433E+02   -.332E+00 0.121E+00 -.244E-01
   0.880E+01 0.942E+00 -.595E+02   -.874E+01 -.931E+00 0.596E+02   -.583E-01 -.409E-02 -.649E-01
   -.397E+01 -.516E+01 -.557E+02   0.411E+01 0.526E+01 0.557E+02   -.183E+00 -.127E+00 -.251E-01
   -.256E+02 -.120E+02 -.401E+02   0.257E+02 0.125E+02 0.401E+02   -.314E+00 -.422E+00 -.344E-01
   -.102E+02 0.219E-01 -.474E+02   0.105E+02 0.294E-02 0.474E+02   -.233E+00 -.114E+00 -.795E-01
   0.591E+01 -.255E+01 -.496E+02   -.599E+01 0.262E+01 0.497E+02   0.160E+00 -.280E-01 -.976E-01
   -.422E+01 -.916E+01 -.412E+02   0.429E+01 0.923E+01 0.412E+02   -.714E-01 -.645E-01 -.462E-02
   -.959E+01 -.803E+01 -.333E+02   0.100E+02 0.802E+01 0.333E+02   -.398E+00 -.425E-01 -.362E-01
   -.766E+01 -.232E+01 -.407E+02   0.784E+01 0.272E+01 0.408E+02   -.148E+00 -.287E+00 -.669E-01
   -.307E+01 -.373E+01 -.304E+02   0.320E+01 0.378E+01 0.304E+02   -.944E-01 -.338E-01 0.518E-02
   -.726E+01 0.538E+02 0.598E+02   0.256E+02 -.527E+02 -.641E+02   -.176E+02 -.972E+00 0.404E+01
   0.304E+02 -.605E+02 0.472E+02   -.871E+01 0.601E+02 -.506E+02   -.204E+02 0.368E+00 0.325E+01
   0.317E+02 0.896E+00 0.377E+02   -.424E+02 0.165E+02 -.402E+02   0.102E+02 -.166E+02 0.246E+01
   0.153E+02 -.518E+01 -.460E+01   -.353E+02 0.514E+01 0.208E+01   0.191E+02 0.212E+00 0.240E+01
   -.537E+02 0.447E+02 0.285E+03   0.737E+02 -.446E+02 -.295E+03   -.193E+02 0.341E+00 0.995E+01
   -.271E+02 0.309E+02 -.450E+02   0.624E+01 -.308E+02 0.443E+02   0.197E+02 -.177E+00 0.677E+00
   0.255E+02 -.407E+02 0.388E+02   -.380E+02 0.214E+02 -.413E+02   0.117E+02 0.182E+02 0.245E+01
   -.452E+02 0.529E+02 0.154E+03   0.440E+02 -.508E+02 -.154E+03   0.164E+01 -.249E+01 0.233E+00
   -.432E+02 -.401E+02 0.355E+03   0.409E+02 0.361E+02 -.353E+03   0.198E+01 0.367E+01 -.197E+01
 -----------------------------------------------------------------------------------------------
   -.269E+01 -.319E+01 -.208E+02   -.497E-13 -.128E-12 0.171E-12   0.251E+01 0.282E+01 0.191E+02
 
 
 POSITION                                       TOTAL-FORCE (eV/Angst)
 -----------------------------------------------------------------------------------
      2.91719     12.39879      9.86359        -0.010165     -0.000959      0.001679
      0.75317      1.23774     10.07609        -0.031096     -0.003934     -0.011829
      1.47978      0.00079      9.99545        -0.017924      0.004318      0.011399
      3.61296      1.29422      9.80632        -0.029329     -0.040318      0.019026
      2.85738      2.54422      9.83816        -0.003917      0.350045      0.023634
      0.67153      3.70570     10.13956        -0.047782      0.043505     -0.040386
      1.43328      2.49329     10.02310         0.028317     -0.031463     -0.019078
      2.69254      4.95431      9.81383         0.070400     -0.425452     -0.026769
      0.63826      6.19936     10.17301        -0.028278     -0.017593     -0.070812
      1.32983      4.95685     10.07496         0.053784      0.023437     -0.056599
      3.38649      6.17999      9.57654         0.655090     -0.056826     -0.216412
      2.70433      7.44634      9.78205        -0.062025      0.308759      0.012488
      0.67270      8.68825     10.13070        -0.071489     -0.012462     -0.037326
      1.33326      7.43454     10.05825         0.099717      0.023851     -0.061333
      2.84638      9.85221      9.83433        -0.007058     -0.301279      0.000002
      0.74780     11.16413     10.07455        -0.040473     -0.038188     -0.006699
      1.42283      9.90965     10.01660         0.015213      0.014181     -0.001723
      3.61372     11.10935      9.80060        -0.014732      0.070336      0.011866
      7.15214      0.00659      9.96863        -0.075798      0.023164      0.007061
      5.05556      1.29484      9.79744         0.218919      0.354011      0.012533
      5.73688      0.01586      9.84745         0.095845     -0.048434      0.006039
      7.86253      1.24712     10.03962         0.045910      0.048948     -0.022626
      7.15139      2.47849      9.94868        -0.330178     -0.170649     -0.078203
      7.84526      3.74949     10.01574         0.106421      0.258658      0.010102
      7.79151      6.19903     10.01714        -0.298561     -0.105279     -0.037815
      7.84828      8.65014     10.04200         0.174883     -0.142629      0.011174
      7.14519      9.93875      9.95026        -0.210616      0.123154     -0.049267
      5.05999     11.13096      9.78295         0.164856     -0.221532      0.027776
      7.86511     11.16648     10.04755         0.008998     -0.068385     -0.029238
     11.41801      0.00201     10.19502        -0.067140     -0.002662     -0.014387
      9.27864      1.23799     10.15378         0.018680      0.043042     -0.000845
      9.99426      0.00371     10.18935         0.060720     -0.013066     -0.010512
     12.13065      1.23964     10.17709         0.008786      0.002354     -0.009181
     11.39150      2.46751     10.22502        -0.004763      0.006571     -0.027179
      9.24587      3.71421     10.16158        -0.185866     -0.065492     -0.043057
      9.96919      2.47218     10.19968         0.021857     -0.085571     -0.021717
     12.07420      3.71015     10.24331         0.071798     -0.050687     -0.044356
     11.35307      4.95441     10.28212        -0.046965      0.032188     -0.050119
      9.22146      6.19454     10.18029         0.136281      0.032192     -0.002410
      9.94099      4.95990     10.22748         0.033887      0.095875     -0.027277
     12.04731      6.19950     10.28144        -0.000201      0.006712     -0.058502
     11.35074      7.44309     10.28502        -0.063038     -0.037122     -0.046401
      9.24787      8.68937     10.18279        -0.225428      0.051358     -0.043783
      9.93588      7.43690     10.23942         0.079252     -0.091696     -0.032734
     12.07274      8.68703     10.24508         0.086654      0.049356     -0.045992
     11.39207      9.93263     10.23257        -0.012779     -0.011544     -0.025226
      9.28017     11.16904     10.16707         0.029828     -0.054258     -0.023508
      9.97046      9.93208     10.21545         0.025490      0.103415     -0.025756
     12.12793     11.16318     10.18051         0.022627      0.014596     -0.017343
      3.45113      3.79520      9.70388        -0.740185     -0.005091      0.107415
      3.42153      8.61020      9.70058        -0.552018      0.053265      0.078232
      5.78223      2.48443      9.78528         0.364686     -0.669308      0.206665
      7.12091      4.96118      9.91597         0.710656      0.188285      0.092301
      4.66389      6.09418      9.17751        -0.969744      0.512390      0.510801
      7.15948      7.43274      9.96226         0.512666     -0.092170     -0.001367
      5.79536      9.96062      9.76016         0.246613      0.474223      0.117361
      5.26235      4.37726      9.55654         0.035237     -0.319836     -0.018135
      5.30541      7.96428      9.43759        -0.056523     -0.128302      0.088346
 -----------------------------------------------------------------------------------
    total drift:                               -0.003844      0.003604     -0.008387


--------------------------------------------------------------------------------------------------------



  FREE ENERGIE OF THE ION-ELECTRON SYSTEM (eV)
  ---------------------------------------------------
  free  energy   TOTEN  =      -600.72749344 eV

  energy  without entropy=     -600.72743884  energy(sigma->0) =     -600.72746614
 


--------------------------------------------------------------------------------------------------------


    POTLOK:  cpu time    3.4009: real time    3.4013


--------------------------------------------------------------------------------------------------------


 stress matrix after NEB project (eV)
    -17.67366      0.75238      0.64938
      0.75178    -73.02274     -0.17623
      0.64677     -0.17583     -1.13348
  FORCES: max atom, RMS     1.209903    0.326468
  FORCE total and by dimension    2.486308    0.969744
  Stress total and by dimension   75.153153   73.022737
 writing wavefunctions
     LOOP+:  cpu time33255.7900: real time33262.9596
    4ORBIT:  cpu time    0.0000: real time    0.0000
 


 total charge     
 
# of ion       s       p       d       tot
------------------------------------------
    1        0.851   1.693   0.000   2.543
    2        0.864   1.752   0.000   2.616
    3        0.857   1.755   0.000   2.612
    4        0.844   1.737   0.000   2.581
    5        0.851   1.696   0.000   2.547
    6        0.871   1.778   0.000   2.649
    7        0.862   1.768   0.000   2.630
    8        0.873   1.770   0.000   2.643
    9        0.869   1.798   0.000   2.667
   10        0.876   1.816   0.000   2.692
   11        0.873   1.763   0.000   2.636
   12        0.867   1.760   0.000   2.627
   13        0.870   1.770   0.000   2.641
   14        0.874   1.808   0.000   2.682
   15        0.851   1.696   0.000   2.547
   16        0.864   1.755   0.000   2.619
   17        0.863   1.771   0.000   2.634
   18        0.842   1.731   0.000   2.573
   19        0.870   1.754   0.000   2.624
   20        0.851   1.695   0.000   2.546
   21        0.860   1.758   0.000   2.618
   22        0.866   1.785   0.000   2.651
   23        0.861   1.731   0.000   2.593
   24        0.855   1.724   0.000   2.579
   25        0.840   1.658   0.000   2.498
   26        0.852   1.722   0.000   2.574
   27        0.859   1.729   0.000   2.588
   28        0.853   1.694   0.000   2.547
   29        0.866   1.783   0.000   2.649
   30        0.868   1.770   0.000   2.638
   31        0.868   1.786   0.000   2.654
   32        0.866   1.775   0.000   2.642
   33        0.863   1.764   0.000   2.626
   34        0.869   1.772   0.000   2.641
   35        0.868   1.779   0.000   2.647
   36        0.866   1.780   0.000   2.646
   37        0.867   1.787   0.000   2.655
   38        0.866   1.778   0.000   2.644
   39        0.863   1.767   0.000   2.630
   40        0.869   1.776   0.000   2.645
   41        0.872   1.783   0.000   2.656
   42        0.866   1.776   0.000   2.642
   43        0.868   1.779   0.000   2.647
   44        0.867   1.769   0.000   2.637
   45        0.866   1.784   0.000   2.651
   46        0.868   1.771   0.000   2.639
   47        0.868   1.785   0.000   2.653
   48        0.865   1.779   0.000   2.644
   49        0.863   1.765   0.000   2.628
   50        1.228   2.662   0.000   3.890
   51        1.232   2.679   0.000   3.910
   52        1.229   2.659   0.000   3.888
   53        1.217   2.632   0.000   3.849
   54        1.255   2.562   0.000   3.817
   55        1.217   2.664   0.000   3.882
   56        1.232   2.670   0.000   3.902
   57        0.446   0.602   6.230   7.278
   58        0.478   0.484   9.906  10.868
--------------------------------------------------
tot         51.825 105.790  16.136 173.751
 


 magnetization (x)
 
# of ion       s       p       d       tot
------------------------------------------
    1        0.001   0.003   0.000   0.003
    2        0.000   0.002   0.000   0.003
    3       -0.001  -0.021   0.000  -0.022
    4       -0.001  -0.006   0.000  -0.007
    5        0.001   0.011   0.000   0.011
    6        0.000   0.002   0.000   0.002
    7       -0.001  -0.009   0.000  -0.010
    8       -0.002  -0.037   0.000  -0.039
    9       -0.002  -0.035   0.000  -0.037
   10        0.001   0.010   0.000   0.011
   11        0.002   0.015   0.000   0.017
   12       -0.002  -0.042   0.000  -0.044
   13       -0.000  -0.002   0.000  -0.002
   14        0.001   0.010   0.000   0.011
   15        0.001   0.007   0.000   0.007
   16        0.000   0.003   0.000   0.003
   17       -0.000  -0.006   0.000  -0.007
   18       -0.001  -0.010   0.000  -0.011
   19       -0.000  -0.005   0.000  -0.006
   20        0.000   0.003   0.000   0.003
   21       -0.000  -0.005   0.000  -0.006
   22        0.000   0.000   0.000   0.001
   23       -0.000  -0.004   0.000  -0.004
   24       -0.001  -0.011   0.000  -0.011
   25        0.000   0.003   0.000   0.004
   26       -0.001  -0.011   0.000  -0.012
   27       -0.000  -0.004   0.000  -0.004
   28        0.001   0.005   0.000   0.006
   29        0.000  -0.001   0.000  -0.001
   30        0.000   0.002   0.000   0.002
   31        0.000   0.002   0.000   0.002
   32       -0.000  -0.007   0.000  -0.007
   33       -0.000  -0.003   0.000  -0.003
   34        0.000   0.003   0.000   0.003
   35        0.000   0.002   0.000   0.002
   36       -0.000  -0.003   0.000  -0.003
   37       -0.000  -0.008   0.000  -0.009
   38       -0.001  -0.009   0.000  -0.010
   39       -0.001  -0.015   0.000  -0.015
   40        0.000  -0.002   0.000  -0.002
   41        0.001   0.008   0.000   0.009
   42       -0.001  -0.010   0.000  -0.010
   43        0.000   0.002   0.000   0.002
   44        0.000  -0.004   0.000  -0.004
   45       -0.000  -0.008   0.000  -0.008
   46        0.000   0.002   0.000   0.003
   47        0.000   0.003   0.000   0.003
   48       -0.000  -0.003   0.000  -0.003
   49       -0.000  -0.003   0.000  -0.004
   50        0.004   0.002   0.000   0.006
   51       -0.001  -0.027   0.000  -0.028
   52        0.003   0.010   0.000   0.013
   53        0.003   0.004   0.000   0.007
   54       -0.004  -0.141   0.000  -0.145
   55       -0.002  -0.021   0.000  -0.022
   56       -0.000  -0.012   0.000  -0.013
   57       -0.038  -0.022  -2.110  -2.169
   58        0.001  -0.007  -0.006  -0.012
--------------------------------------------------
tot         -0.037  -0.401  -2.116  -2.554
 

 total amount of memory used by VASP MPI-rank0   177684. kBytes
=======================================================================

   base      :      30000. kBytes
   nonl-proj :       5318. kBytes
   fftplans  :      13453. kBytes
   grid      :      34560. kBytes
   one-center:         62. kBytes
   HF        :         23. kBytes
   nonlr-proj:      15416. kBytes
   wavefun   :      78852. kBytes
 
  
  
 General timing and accounting informations for this job:
 ========================================================
  
                  Total CPU time used (sec):    33309.242
                            User time (sec):    33266.492
                          System time (sec):       42.749
                         Elapsed time (sec):    33320.918
  
                   Maximum memory used (kb):      416856.
                   Average memory used (kb):           0.
  
                          Minor page faults:       305494
                          Major page faults:            9
                 Voluntary context switches:         1419
