 vasp.5.4.4.18Apr17-6-g9f103f2a35 (build Feb 25 2019 10:51:38) complex          
  
 executed on             LinuxIFC date 2021.07.23  15:41:03
 running on   32 total cores
 distrk:  each k-point on   32 cores,    1 groups
 distr:  one band on NCORES_PER_BAND=  32 cores,    1 groups


--------------------------------------------------------------------------------------------------------


 INCAR:
 POTCAR:    PAW_PBE C 08Apr2002                   
 POTCAR:    PAW_PBE N 08Apr2002                   
 POTCAR:    PAW_PBE Fe 06Sep2000                  
 POTCAR:    PAW_PBE Sc_sv 07Sep2000               

 ----------------------------------------------------------------------------- 
|                                                                             |
|           W    W    AA    RRRRR   N    N  II  N    N   GGGG   !!!           |
|           W    W   A  A   R    R  NN   N  II  NN   N  G    G  !!!           |
|           W    W  A    A  R    R  N N  N  II  N N  N  G       !!!           |
|           W WW W  AAAAAA  RRRRR   N  N N  II  N  N N  G  GGG   !            |
|           WW  WW  A    A  R   R   N   NN  II  N   NN  G    G                |
|           W    W  A    A  R    R  N    N  II  N    N   GGGG   !!!           |
|                                                                             |
|      For optimal performance we recommend to set                            |
|        NCORE= 4 - approx SQRT( number of cores)                             |
|      NCORE specifies how many cores store one orbital (NPAR=cpu/NCORE).     |
|      This setting can  greatly improve the performance of VASP for DFT.     |
|      The default,   NCORE=1            might be grossly inefficient         |
|      on modern multi-core architectures or massively parallel machines.     |
|      Do your own testing !!!!                                               |
|      Unfortunately you need to use the default for GW and RPA calculations. |
|      (for HF NCORE is supported but not extensively tested yet)             |
|                                                                             |
 ----------------------------------------------------------------------------- 

 POTCAR:    PAW_PBE C 08Apr2002                   
   VRHFIN =C: s2p2                                                              
   LEXCH  = PE                                                                  
   EATOM  =   147.1560 eV,   10.8157 Ry                                         
                                                                                
   TITEL  = PAW_PBE C 08Apr2002                                                 
   LULTRA =        F    use ultrasoft PP ?                                      
   IUNSCR =        1    unscreen: 0-lin 1-nonlin 2-no                           
   RPACOR =    1.200    partial core radius                                     
   POMASS =   12.011; ZVAL   =    4.000    mass and valenz                      
   RCORE  =    1.500    outmost cutoff radius                                   
   RWIGS  =    1.630; RWIGS  =    0.863    wigner-seitz radius (au A)           
   ENMAX  =  400.000; ENMIN  =  300.000 eV                                      
   ICORE  =        2    local potential                                         
   LCOR   =        T    correct aug charges                                     
   LPAW   =        T    paw PP                                                  
   EAUG   =  644.873                                                            
   DEXC   =    0.000                                                            
   RMAX   =    1.529    core radius for proj-oper                               
   RAUG   =    1.300    factor for augmentation sphere                          
   RDEP   =    1.501    radius for radial grids                                 
   RDEPT  =    1.300    core radius for aug-charge                              
                                                                                
   Atomic configuration                                                         
    4 entries                                                                   
     n  l   j            E        occ.                                          
     1  0  0.50      -273.3789   2.0000                                         
     2  0  0.50       -13.7508   2.0000                                         
     2  1  0.50        -5.2854   2.0000                                         
     3  2  1.50        -5.4423   0.0000                                         
   Description                                                                  
     l       E           TYP  RCUT    TYP  RCUT                                 
     0    -13.7508458     23  1.200                                             
     0     -8.2022199     23  1.200                                             
     1     -5.2854383     23  1.500                                             
     1     34.0145650     23  1.500                                             
     2     -5.4423304      7  1.500                                             
  local pseudopotential read in
  partial core-charges read in
  partial kinetic energy density read in
  atomic valenz-charges read in
  non local Contribution for L=           0  read in
    real space projection operators read in
  non local Contribution for L=           0  read in
    real space projection operators read in
  non local Contribution for L=           1  read in
    real space projection operators read in
  non local Contribution for L=           1  read in
    real space projection operators read in
    PAW grid and wavefunctions read in
 
   number of l-projection  operators is LMAX  =           4
   number of lm-projection operators is LMMAX =           8
 
 POTCAR:    PAW_PBE N 08Apr2002                   
   VRHFIN =N: s2p3                                                              
   LEXCH  = PE                                                                  
   EATOM  =   264.5486 eV,   19.4438 Ry                                         
                                                                                
   TITEL  = PAW_PBE N 08Apr2002                                                 
   LULTRA =        F    use ultrasoft PP ?                                      
   IUNSCR =        1    unscreen: 0-lin 1-nonlin 2-no                           
   RPACOR =    1.200    partial core radius                                     
   POMASS =   14.001; ZVAL   =    5.000    mass and valenz                      
   RCORE  =    1.500    outmost cutoff radius                                   
   RWIGS  =    1.400; RWIGS  =    0.741    wigner-seitz radius (au A)           
   ENMAX  =  400.000; ENMIN  =  300.000 eV                                      
   ICORE  =        2    local potential                                         
   LCOR   =        T    correct aug charges                                     
   LPAW   =        T    paw PP                                                  
   EAUG   =  627.112                                                            
   DEXC   =    0.000                                                            
   RMAX   =    1.529    core radius for proj-oper                               
   RAUG   =    1.300    factor for augmentation sphere                          
   RDEP   =    1.514    radius for radial grids                                 
   RDEPT  =    1.338    core radius for aug-charge                              
                                                                                
   Atomic configuration                                                         
    4 entries                                                                   
     n  l   j            E        occ.                                          
     1  0  0.50      -384.7179   2.0000                                         
     2  0  0.50       -18.5828   2.0000                                         
     2  1  0.50        -7.0898   3.0000                                         
     3  2  1.50        -6.8029   0.0000                                         
   Description                                                                  
     l       E           TYP  RCUT    TYP  RCUT                                 
     0    -18.5828119     23  1.200                                             
     0    -13.5018863     23  1.200                                             
     1     -7.0897853     23  1.500                                             
     1      9.5240782     23  1.500                                             
     2     -6.8029130      7  1.500                                             
  local pseudopotential read in
  partial core-charges read in
  partial kinetic energy density read in
  atomic valenz-charges read in
  non local Contribution for L=           0  read in
    real space projection operators read in
  non local Contribution for L=           0  read in
    real space projection operators read in
  non local Contribution for L=           1  read in
    real space projection operators read in
  non local Contribution for L=           1  read in
    real space projection operators read in
    PAW grid and wavefunctions read in
 
   number of l-projection  operators is LMAX  =           4
   number of lm-projection operators is LMMAX =           8
 
 POTCAR:    PAW_PBE Fe 06Sep2000                  
   VRHFIN =Fe:  d7 s1                                                           
   LEXCH  = PE                                                                  
   EATOM  =   594.3153 eV,   43.6809 Ry                                         
                                                                                
   TITEL  = PAW_PBE Fe 06Sep2000                                                
   LULTRA =        F    use ultrasoft PP ?                                      
   IUNSCR =        1    unscreen: 0-lin 1-nonlin 2-no                           
   RPACOR =    2.000    partial core radius                                     
   POMASS =   55.847; ZVAL   =    8.000    mass and valenz                      
   RCORE  =    2.300    outmost cutoff radius                                   
   RWIGS  =    2.460; RWIGS  =    1.302    wigner-seitz radius (au A)           
   ENMAX  =  267.882; ENMIN  =  200.911 eV                                      
   RCLOC  =    1.701    cutoff for local pot                                    
   LCOR   =        T    correct aug charges                                     
   LPAW   =        T    paw PP                                                  
   EAUG   =  511.368                                                            
   DEXC   =    0.000                                                            
   RMAX   =    2.356    core radius for proj-oper                               
   RAUG   =    1.300    factor for augmentation sphere                          
   RDEP   =    2.442    radius for radial grids                                 
   RDEPT  =    1.890    core radius for aug-charge                              
                                                                                
   Atomic configuration                                                         
    9 entries                                                                   
     n  l   j            E        occ.                                          
     1  0  0.50     -6993.8440   2.0000                                         
     2  0  0.50      -814.6047   2.0000                                         
     2  1  1.50      -693.3689   6.0000                                         
     3  0  0.50       -89.4732   2.0000                                         
     3  1  1.50       -55.6373   6.0000                                         
     3  2  2.50        -3.8151   7.0000                                         
     4  0  0.50        -4.2551   1.0000                                         
     4  1  1.50        -3.4015   0.0000                                         
     4  3  2.50        -1.3606   0.0000                                         
   Description                                                                  
     l       E           TYP  RCUT    TYP  RCUT                                 
     2     -3.8151135     23  2.300                                             
     2     -5.1756961     23  2.300                                             
     0     -4.2550963     23  2.300                                             
     0      7.2035603     23  2.300                                             
     1     -2.7211652     23  2.300                                             
     1     18.4316424     23  2.300                                             
  local pseudopotential read in
  partial core-charges read in
  partial kinetic energy density read in
  atomic valenz-charges read in
  non local Contribution for L=           2  read in
    real space projection operators read in
  non local Contribution for L=           2  read in
    real space projection operators read in
  non local Contribution for L=           0  read in
    real space projection operators read in
  non local Contribution for L=           0  read in
    real space projection operators read in
  non local Contribution for L=           1  read in
    real space projection operators read in
  non local Contribution for L=           1  read in
    real space projection operators read in
    PAW grid and wavefunctions read in
 
   number of l-projection  operators is LMAX  =           6
   number of lm-projection operators is LMMAX =          18
 
 POTCAR:    PAW_PBE Sc_sv 07Sep2000               
   VRHFIN =Sc: 3p4s3d                                                           
   LEXCH  = PE                                                                  
   EATOM  =  1273.2868 eV,   93.5839 Ry                                         
                                                                                
   TITEL  = PAW_PBE Sc_sv 07Sep2000                                             
   LULTRA =        F    use ultrasoft PP ?                                      
   IUNSCR =        1    unscreen: 0-lin 1-nonlin 2-no                           
   RPACOR =    2.200    partial core radius                                     
   POMASS =   44.956; ZVAL   =   11.000    mass and valenz                      
   RCORE  =    2.500    outmost cutoff radius                                   
   RWIGS  =    2.700; RWIGS  =    1.429    wigner-seitz radius (au A)           
   ENMAX  =  222.660; ENMIN  =  166.995 eV                                      
   RCLOC  =    1.805    cutoff for local pot                                    
   LCOR   =        T    correct aug charges                                     
   LPAW   =        T    paw PP                                                  
   EAUG   =  443.063                                                            
   RMAX   =    2.551    core radius for proj-oper                               
   RAUG   =    1.300    factor for augmentation sphere                          
   RDEP   =    2.650    radius for radial grids                                 
   RDEPT  =    2.038    core radius for aug-charge                              
                                                                                
   Atomic configuration                                                         
    8 entries                                                                   
     n  l   j            E        occ.                                          
     1  0  0.50     -4394.2533   2.0000                                         
     2  0  0.50      -471.0040   2.0000                                         
     2  1  1.50      -384.9788   6.0000                                         
     3  0  0.50       -52.1410   2.0000                                         
     4  0  0.50        -3.5584   1.0000                                         
     3  1  1.50       -30.8841   6.0000                                         
     3  2  2.50        -1.3655   2.0000                                         
     4  3  2.50        -1.3606   0.0000                                         
   Description                                                                  
     l       E           TYP  RCUT    TYP  RCUT                                 
     0    -52.1409870     23  1.800                                             
     0     -3.5583698     23  2.500                                             
     1    -30.8840697     23  2.300                                             
     1      4.0817478     23  2.300                                             
     2     -1.3655397     23  2.500                                             
     2      0.3564476     23  2.500                                             
  local pseudopotential read in
  partial core-charges read in
  partial kinetic energy density read in
  atomic valenz-charges read in
  non local Contribution for L=           0  read in
    real space projection operators read in
  non local Contribution for L=           0  read in
    real space projection operators read in
  non local Contribution for L=           1  read in
    real space projection operators read in
  non local Contribution for L=           1  read in
    real space projection operators read in
  non local Contribution for L=           2  read in
    real space projection operators read in
  non local Contribution for L=           2  read in
    real space projection operators read in
    PAW grid and wavefunctions read in
 
   number of l-projection  operators is LMAX  =           6
   number of lm-projection operators is LMMAX =          18
 

 ----------------------------------------------------------------------------- 
|                                                                             |
|  ADVICE TO THIS USER RUNNING 'VASP/VAMP'   (HEAR YOUR MASTER'S VOICE ...):  |
|                                                                             |
|      You have a (more or less) 'large supercell' and for larger cells       |
|      it might be more efficient to use real space projection opertators     |
|      So try LREAL= Auto  in the INCAR   file.                               |
|      Mind:          For very  accurate calculation you might also keep the  |
|      reciprocal projection scheme          (i.e. LREAL=.FALSE.)             |
|                                                                             |
 ----------------------------------------------------------------------------- 

  PAW_PBE C 08Apr2002                   :
 energy of atom  1       EATOM= -147.1560
 kinetic energy error for atom=    0.0076 (will be added to EATOM!!)
  PAW_PBE N 08Apr2002                   :
 energy of atom  2       EATOM= -264.5486
 kinetic energy error for atom=    0.0138 (will be added to EATOM!!)
  PAW_PBE Fe 06Sep2000                  :
 energy of atom  3       EATOM= -594.3153
 kinetic energy error for atom=    0.0026 (will be added to EATOM!!)
  PAW_PBE Sc_sv 07Sep2000               :
 energy of atom  4       EATOM=-1273.2868
 kinetic energy error for atom=    0.0031 (will be added to EATOM!!)
 
 
 POSCAR:  C  N Fe Sc                             
  positions in cartesian coordinates
  No initial velocities read in
 exchange correlation table for  LEXCH =        8
   RHO(1)=    0.500       N(1)  =     2000
   RHO(2)=  100.500       N(2)  =     4000

 VTST: version 3.2, (02/03/18)

 CHAIN: initializing optimizer
 
 OPT: Using VASP Conjugate-Gradient optimizer
 CHAIN: Read ICHAIN            0
 
 POSCAR:  C  N Fe Sc                             
  positions in cartesian coordinates
  No initial velocities read in
 


--------------------------------------------------------------------------------------------------------


 ion  position               nearest neighbor table
   1  0.222  0.998  0.497-   3 1.42  17 1.42   4 1.43
   2  0.053  0.097  0.497-  34 1.41   7 1.42   3 1.43
   3  0.110  0.998  0.497-   1 1.42  15 1.43   2 1.43
   4  0.276  0.097  0.498-   5 1.42  19 1.42   1 1.43
   5  0.219  0.194  0.497-   7 1.41   8 1.41   4 1.42
   6  0.053  0.297  0.498-  38 1.42   7 1.43  10 1.44
   7  0.108  0.196  0.497-   5 1.41   2 1.42   6 1.43
   8  0.273  0.292  0.499-  55 1.38   5 1.41  52 1.42  57 2.49
   9  0.060  0.497  0.497-  42 1.43  10 1.44  12 1.46
  10  0.112  0.394  0.498-  55 1.35   6 1.44   9 1.44
  11  0.060  0.697  0.497-  46 1.43  16 1.43  12 1.46
  12  0.119  0.596  0.496-  51 1.43   9 1.46  11 1.46
  13  0.281  0.701  0.498-  51 1.42  14 1.42  25 1.43
  14  0.224  0.800  0.498-  16 1.42  13 1.42  17 1.43
  15  0.056  0.898  0.497-  50 1.41   3 1.43  16 1.44
  16  0.113  0.798  0.497-  14 1.42  11 1.43  15 1.44
  17  0.278  0.899  0.498-  28 1.42   1 1.42  14 1.43
  18  0.556  0.000  0.501-  20 1.42  30 1.43  21 1.43
  19  0.388  0.100  0.501-   4 1.42  20 1.44  23 1.45
  20  0.444  0.001  0.501-  18 1.42  28 1.43  19 1.44
  21  0.610  0.100  0.504-  32 1.42  18 1.43  22 1.43
  22  0.554  0.200  0.509-  53 1.41  21 1.43  23 1.45
  23  0.440  0.202  0.504-  52 1.44  19 1.45  22 1.45
  24  0.558  0.605  0.498-  56 1.39  26 1.43  54 1.43  58 2.59
  25  0.393  0.701  0.499-  29 1.43  54 1.43  13 1.43
  26  0.613  0.704  0.498-  44 1.42  27 1.42  24 1.43
  27  0.558  0.803  0.499-  29 1.42  26 1.42  30 1.43
  28  0.390  0.901  0.499-  17 1.42  20 1.43  29 1.43
  29  0.446  0.801  0.499-  27 1.42  25 1.43  28 1.43
  30  0.612  0.902  0.499-  48 1.42  27 1.43  18 1.43
  31  0.889  0.999  0.498-  33 1.41  34 1.43  50 1.44
  32  0.721  0.100  0.502-  21 1.42  37 1.43  33 1.44
  33  0.777  0.000  0.499-  31 1.41  48 1.43  32 1.44
  34  0.942  0.099  0.498-   2 1.41  31 1.43  35 1.44
  35  0.887  0.199  0.499-  37 1.42  38 1.44  34 1.44
  36  0.718  0.301  0.508-  53 1.42  37 1.45  41 1.46
  37  0.775  0.201  0.502-  35 1.42  32 1.43  36 1.45
  38  0.942  0.299  0.499-   6 1.42  35 1.44  39 1.44
  39  0.887  0.400  0.500-  41 1.43  38 1.44  42 1.45
  40  0.721  0.504  0.500-  56 1.36  45 1.44  41 1.45
  41  0.775  0.401  0.504-  39 1.43  40 1.45  36 1.46
  42  0.947  0.498  0.498-   9 1.43  43 1.44  39 1.45
  43  0.892  0.599  0.497-  45 1.42  46 1.43  42 1.44
  44  0.725  0.702  0.497-  26 1.42  49 1.43  45 1.44
  45  0.780  0.601  0.497-  43 1.42  40 1.44  44 1.44
  46  0.948  0.698  0.497-  11 1.43  43 1.43  47 1.44
  47  0.892  0.799  0.497-  49 1.42  50 1.43  46 1.44
  48  0.724  0.901  0.499-  30 1.42  33 1.43  49 1.44
  49  0.780  0.801  0.497-  47 1.42  44 1.43  48 1.44
  50  0.945  0.899  0.497-  15 1.41  47 1.43  31 1.44
  51  0.232  0.600  0.496-  13 1.42  12 1.43  57 1.96
  52  0.383  0.302  0.503-   8 1.42  23 1.44  58 2.32  57 2.34
  53  0.607  0.298  0.517-  22 1.41  36 1.42  58 2.19
  54  0.445  0.599  0.499-  24 1.43  25 1.43  57 2.08  58 2.49
  55  0.218  0.388  0.498-  10 1.35   8 1.38  57 1.88
  56  0.614  0.510  0.500-  40 1.36  24 1.39  58 2.07
  57  0.332  0.481  0.488-  55 1.88  51 1.96  54 2.08  52 2.34   8 2.49  58 2.53
  58  0.498  0.425  0.549-  56 2.07  53 2.19  52 2.32  54 2.49  57 2.53  24 2.59
 
  LATTYP: Found a triclinic cell.
 ALAT       =    17.9069083105
 B/A-ratio  =     0.6989090346
 C/A-ratio  =     1.1147597147
 COS(alpha) =     0.0000261799
 COS(beta)  =     0.0001248898
 COS(gamma) =     0.7040688048
  
  Lattice vectors:
  
 A1 = ( -12.8075329377, -12.5149696480,   0.0000000000)
 A2 = (  -0.0909329377, -12.5149696480,   0.0000000000)
 A3 = (  -0.0029962476,  -0.0005008446,  19.9618997689)


Analysis of symmetry for initial positions (statically):
=====================================================================
 Subroutine PRICEL returns:
 Original cell was already a primitive cell.
 

 Routine SETGRP: Setting up the symmetry group for a 
 triclinic supercell.


 Subroutine GETGRP returns: Found  1 space group operations
 (whereof  1 operations were pure point group operations)
 out of a pool of  2 trial point group operations.


The static configuration has the point symmetry C_1 .


Analysis of symmetry for dynamics (positions and initial velocities):
=====================================================================
 Subroutine PRICEL returns:
 Original cell was already a primitive cell.
 

 Routine SETGRP: Setting up the symmetry group for a 
 triclinic supercell.


 Subroutine GETGRP returns: Found  1 space group operations
 (whereof  1 operations were pure point group operations)
 out of a pool of  2 trial point group operations.


The dynamic configuration has the point symmetry C_1 .


Analysis of structural, dynamic, and magnetic symmetry:
=====================================================================
 Subroutine PRICEL returns:
 Original cell was already a primitive cell.
 

 Routine SETGRP: Setting up the symmetry group for a 
 triclinic supercell.


 Subroutine GETGRP returns: Found  1 space group operations
 (whereof  1 operations were pure point group operations)
 out of a pool of  2 trial point group operations.


The magnetic configuration has the point symmetry C_1 .


 Subroutine INISYM returns: Found  1 space group operations
 (whereof  1 operations are pure point group operations),
 and found     1 'primitive' translations

 
 
 KPOINTS: KPOINTS created by Atomic Simulation Env

Automatic generation of k-mesh.
Space group operators:
 irot       det(A)        alpha          n_x          n_y          n_z        tau_x        tau_y        tau_z
    1     1.000000     0.000001     1.000000     0.000000     0.000000     0.000000     0.000000     0.000000
 
 Subroutine IBZKPT returns following result:
 ===========================================
 
 Found      2 irreducible k-points:
 
 Following reciprocal coordinates:
            Coordinates               Weight
  0.250000  0.250000 -0.000000      2.000000
 -0.250000  0.250000  0.000000      2.000000
 
 Following cartesian coordinates:
            Coordinates               Weight
  0.019659  0.019833  0.000003      2.000000
 -0.019659  0.020119 -0.000002      2.000000
 
 
 Subroutine IBZKPT_HF returns following result:
 ==============================================
 
 Found      4 k-points in 1st BZ
 the following      4 k-points will be used (e.g. in the exchange kernel)
 Following reciprocal coordinates:   # in IRBZ
  0.250000  0.250000 -0.000000    0.25000000   1 t-inv F
 -0.250000  0.250000  0.000000    0.25000000   2 t-inv F
 -0.250000 -0.250000  0.000000    0.25000000   1 t-inv T
  0.250000 -0.250000 -0.000000    0.25000000   2 t-inv T


--------------------------------------------------------------------------------------------------------




 Dimension of arrays:
   k-points           NKPTS =      2   k-points in BZ     NKDIM =      4   number of bands    NBANDS=    156
   number of dos      NEDOS =    301   number of ions     NIONS =     58
   non local maximal  LDIM  =      6   non local SUM 2l+1 LMDIM =     18
   total plane-waves  NPLWV = ******
   max r-space proj   IRMAX =      1   max aug-charges    IRDMAX=  19417
   dimension x,y,z NGX =    96 NGY =   96 NGZ =  150
   dimension x,y,z NGXF=   192 NGYF=  192 NGZF=  300
   support grid    NGXF=   192 NGYF=  192 NGZF=  300
   ions per type =              54   2   1   1
   NGX,Y,Z   is equivalent  to a cutoff of  12.55, 12.75, 12.49 a.u.
   NGXF,Y,Z  is equivalent  to a cutoff of  25.10, 25.50, 24.98 a.u.

 SYSTEM =  unknown system                          
 POSCAR =   C  N Fe Sc                             

 Startparameter for this run:
   NWRITE =      2    write-flag & timer
   PREC   = accura    normal or accurate (medium, high low for compatibility)
   ISTART =      1    job   : 0-new  1-cont  2-samecut
   ICHARG =      0    charge: 1-file 2-atom 10-const
   ISPIN  =      2    spin polarized calculation?
   LNONCOLLINEAR =      F non collinear calculations
   LSORBIT =      F    spin-orbit coupling
   INIWAV =      1    electr: 0-lowe 1-rand  2-diag
   LASPH  =      T    aspherical Exc in radial PAW
   METAGGA=      F    non-selfconsistent MetaGGA calc.

 Electronic Relaxation 1
   ENCUT  =  500.0 eV  36.75 Ry    6.06 a.u.  23.19 22.82 36.40*2*pi/ulx,y,z
   ENINI  =  500.0     initial cutoff
   ENAUG  =  644.9 eV  augmentation charge cutoff
   NELM   =    250;   NELMIN=  2; NELMDL=  0     # of ELM steps 
   EDIFF  = 0.1E-03   stopping-criterion for ELM
   LREAL  =      F    real-space projection
   NLSPLINE    = F    spline interpolate recip. space projectors
   LCOMPAT=      F    compatible to vasp.4.4
   GGA_COMPAT  = T    GGA compatible to vasp.4.4-vasp.4.6
   LMAXPAW     = -100 max onsite density
   LMAXMIX     =    2 max onsite mixed and CHGCAR
   VOSKOWN=      0    Vosko Wilk Nusair interpolation
   ROPT   =    0.00000   0.00000   0.00000   0.00000
 Ionic relaxation
   EDIFFG = -.3E-01   stopping-criterion for IOM
   NSW    =      0    number of steps for IOM
   NBLOCK =      1;   KBLOCK =      1    inner block; outer block 
   IBRION =     -1    ionic relax: 0-MD 1-quasi-New 2-CG
   NFREE  =      1    steps in history (QN), initial steepest desc. (CG)
   ISIF   =      2    stress and relaxation
   IWAVPR =     10    prediction:  0-non 1-charg 2-wave 3-comb
   ISYM   =      3    0-nonsym 1-usesym 2-fastsym
   LCORR  =      T    Harris-Foulkes like correction to forces

   POTIM  = 0.5000    time-step for ionic-motion
   TEIN   =    0.0    initial temperature
   TEBEG  =    0.0;   TEEND  =   0.0 temperature during run
   SMASS  =  -3.00    Nose mass-parameter (am)
   estimated Nose-frequenzy (Omega)   =  0.10E-29 period in steps =****** mass=  -0.370E-26a.u.
   SCALEE = 1.0000    scale energy and forces
   NPACO  =    256;   APACO  = 16.0  distance and # of slots for P.C.
   PSTRESS=    0.0 pullay stress

  Mass of Ions in am
   POMASS =  12.01 14.00 55.85 44.96
  Ionic Valenz
   ZVAL   =   4.00  5.00  8.00 11.00
  Atomic Wigner-Seitz radii
   RWIGS  =  -1.00 -1.00 -1.00 -1.00
  virtual crystal weights 
   VCA    =   1.00  1.00  1.00  1.00
   NELECT =     245.0000    total number of electrons
   NUPDOWN=      -1.0000    fix difference up-down

 DOS related values:
   EMIN   =  10.00;   EMAX   =-10.00  energy-range for DOS
   EFERMI =   0.00
   ISMEAR =     0;   SIGMA  =   0.10  broadening in eV -4-tet -1-fermi 0-gaus

 Electronic relaxation 2 (details)
   IALGO  =     53    algorithm
   LDIAG  =      T    sub-space diagonalisation (order eigenvalues)
   LSUBROT=      F    optimize rotation matrix (better conditioning)
   TURBO    =      0    0=normal 1=particle mesh
   IRESTART =      0    0=no restart 2=restart with 2 vectors
   NREBOOT  =      0    no. of reboots
   NMIN     =      0    reboot dimension
   EREF     =   0.00    reference energy to select bands
   IMIX   =      4    mixing-type and parameters
     AMIX     =   0.40;   BMIX     =  1.00
     AMIX_MAG =   1.60;   BMIX_MAG =  1.00
     AMIN     =   0.10
     WC   =   100.;   INIMIX=   1;  MIXPRE=   1;  MAXMIX= -45

 Intra band minimization:
   WEIMIN = 0.0000     energy-eigenvalue tresh-hold
   EBREAK =  0.16E-06  absolut break condition
   DEPER  =   0.30     relativ break condition  

   TIME   =   0.20     timestep for ELM

  volume/ion in A,a.u.               =      54.77       369.63
  Fermi-wavevector in a.u.,A,eV,Ry     =   0.696834  1.316825  6.606684  0.485578
  Thomas-Fermi vector in A             =   1.779994
 
 Write flags
   LWAVE        =      T    write WAVECAR
   LDOWNSAMPLE  =      F    k-point downsampling of WAVECAR
   LCHARG       =      T    write CHGCAR
   LVTOT        =      F    write LOCPOT, total local potential
   LVHAR        =      F    write LOCPOT, Hartree potential only
   LELF         =      F    write electronic localiz. function (ELF)
   LORBIT       =     11    0 simple, 1 ext, 2 COOP (PROOUT), +10 PAW based schemes


 Dipole corrections
   LMONO  =      F    monopole corrections only (constant potential shift)
   LDIPOL =      T    correct potential (dipole corrections)
   IDIPOL =      3    1-x, 2-y, 3-z, 4-all directions 
   EPSILON=  1.0000000 bulk dielectric constant

 Exchange correlation treatment:
   GGA     =    PE    GGA type
   LEXCH   =     8    internal setting for exchange type
   VOSKOWN=      0    Vosko Wilk Nusair interpolation
   EXXOEP  =     0    0=HF, 1=EXX-LHF (local Hartree Fock) 2=EXX OEP
   LHFCALC =     T    Hartree Fock is set to
   LSYMGRAD=     F    symmetrize gradient (conserves proper symmetry)
   PRECFOCK=normal    Normal, Fast or Accurate (Low or Medium for compatibility)
   LRHFCALC=     F    long range Hartree Fock
   LRSCOR  =     F    long range correlation only (use DFT for short range part)
   LTHOMAS =     F    Thomas Fermi screening in HF
   LMODELHF=     F    short range full HF, long range fraction AEXX
   ENCUT4O =  -1.0   cutoff for four orbital integrals eV
   LMAXFOCK=     4    L truncation for augmentation on plane wave grid
   LMAXFOCKAE=  -1    L truncation for all-electron charge restoration on plane wave grid
   NMAXFOCKAE=   1    number of basis functions for all-electron charge restoration
   LFOCKAEDFT=     F  apply the AE augmentation even for DFT
   NKREDX  =     1    reduce k-point grid by
   NKREDY  =     1    reduce k-point grid by
   NKREDZ  =     1    reduce k-point grid by
   SHIFTRED=     F    shift reduced grid of Gamma
   HFKIDENT=     F    idential grid for each k-point
   ODDONLY =     F    use only odd q-grid points
   EVENONLY=     F    use only even q-grid points
   HFALPHA =   -1.0000 decay constant for conv. correction
   MCALPHA =    0.0000 extent of test-charge in conv. correction in multipole expansion
   AEXX    =    0.2500 exact exchange contribution
   HFSCREEN=    0.2000 screening length (either q_TF or 0.3 A-1)
   HFSCREENC=   0.2000 screening length for correlation (either q_TF or 0.3 A-1)
   HFRCUT  =    0.0000 spherical cutoff for potential kernel
   ALDAX   =    0.7500 LDA exchange part
   AGGAX   =    0.7500 GGA exchange part
   ALDAC   =    1.0000 LDA correlation
   AGGAC   =    1.0000 GGA correlation
   ENCUTFOCK=  -1.0 apply spherical cutoff to Coloumb kernel
   NBANDSGWLOW=     1    first orbital included in HF term
   NBLOCK_FOCK=    64    blocking factor in FOCK_ACC
 Linear response parameters
   LEPSILON=     F    determine dielectric tensor
   LRPA    =     F    only Hartree local field effects (RPA)
   LNABLA  =     F    use nabla operator in PAW spheres
   LVEL    =     F    velocity operator in full k-point grid
   LINTERFAST=   F  fast interpolation
   KINTER  =     0    interpolate to denser k-point grid
   CSHIFT  =0.1000    complex shift for real part using Kramers Kronig
   OMEGAMAX=  -1.0    maximum frequency
   DEG_THRESHOLD= 0.2000000E-02 threshold for treating states as degnerate
   RTIME   =   -0.100 relaxation time in fs
  (WPLASMAI=    0.000 imaginary part of plasma frequency in eV, 0.658/RTIME)
   DFIELD  = 0.0000000 0.0000000 0.0000000 field for delta impulse in time
 
 Orbital magnetization related:
   ORBITALMAG=     F  switch on orbital magnetization
   LCHIMAG   =     F  perturbation theory with respect to B field
   DQ        =  0.001000  dq finite difference perturbation B field
   LLRAUG    =     F  two centre corrections for induced B field



--------------------------------------------------------------------------------------------------------


 Static calculation
 charge density and potential will be updated during run
 spin polarized calculation
 Conjugate gradient for all bands (Freysoldt, et al. PRB 79, 241103 (2009))
 perform sub-space diagonalisation
    before iterative eigenvector-optimisation
 modified Broyden-mixing scheme, WC =      100.0
 initial mixing is a Kerker type mixing with AMIX =  0.4000 and BMIX =      1.0000
 Hartree-type preconditioning will be used
 using additional bands           33
 reciprocal scheme for non local part
 use partial core corrections
 no Harris-corrections to forces 
 use gradient corrections 
 use of overlap-Matrix (Vanderbilt PP)
 Gauss-broadening in eV      SIGMA  =   0.10


--------------------------------------------------------------------------------------------------------


  energy-cutoff  :      500.00
  volume of cell :     3176.89
      direct lattice vectors                 reciprocal lattice vectors
    12.716600000  0.000000000  0.000000000     0.078637372 -0.000571374  0.000011789
     0.090932938 12.514969648  0.000000000     0.000000000  0.079904309  0.000002005
    -0.002996248 -0.000500845 19.961899769     0.000000000  0.000000000  0.050095432

  length of vectors
    12.716600000 12.515300000 19.961900000     0.078639448  0.079904309  0.050095432


 
 old parameters found on file WAVECAR:
  energy-cutoff  :      500.00
  volume of cell :     3176.89
      direct lattice vectors                 reciprocal lattice vectors
    12.716600000  0.000000000  0.000000000     0.078637372 -0.000571374  0.000011789
     0.090932938 12.514969648  0.000000000     0.000000000  0.079904309  0.000002005
    -0.002996248 -0.000500845 19.961899769     0.000000000  0.000000000  0.050095432

  length of vectors

 
 k-points in units of 2pi/SCALE and weight: KPOINTS created by Atomic Simulation Env
   0.01965934  0.01983323  0.00000345       0.500
  -0.01965934  0.02011892 -0.00000245       0.500
 
 k-points in reciprocal lattice and weights: KPOINTS created by Atomic Simulation Env
   0.25000000  0.25000000 -0.00000000       0.500
  -0.25000000  0.25000000  0.00000000       0.500
 
 position of ions in fractional coordinates (direct lattice) 
   0.22173117  0.99776672  0.49748438
   0.05340495  0.09717041  0.49663400
   0.11025925  0.99777564  0.49659281
   0.27626516  0.09695108  0.49823911
   0.21856258  0.19406290  0.49717607
   0.05316185  0.29674023  0.49783351
   0.10768224  0.19613222  0.49677899
   0.27259821  0.29244131  0.49908810
   0.05971408  0.49720828  0.49670252
   0.11189631  0.39436426  0.49751860
   0.06019463  0.69709510  0.49676147
   0.11904808  0.59643926  0.49631545
   0.28053843  0.70121783  0.49781259
   0.22417016  0.79974610  0.49769009
   0.05631800  0.89794534  0.49655536
   0.11279852  0.79808257  0.49686303
   0.27821313  0.89946057  0.49826346
   0.55571302  0.00042565  0.50110744
   0.38753327  0.10029299  0.50121565
   0.44396480  0.00053072  0.50090688
   0.60974349  0.09981075  0.50373563
   0.55445113  0.19959299  0.50912941
   0.44034035  0.20208506  0.50432719
   0.55794298  0.60502360  0.49807482
   0.39325130  0.70114298  0.49902792
   0.61347265  0.70415557  0.49832485
   0.55752300  0.80252992  0.49884436
   0.38972027  0.90082998  0.49933581
   0.44625297  0.80135904  0.49912334
   0.61213455  0.90160649  0.49922973
   0.88853828  0.99907532  0.49769522
   0.72126970  0.10038385  0.50218826
   0.77746148  0.00032649  0.49935128
   0.94223200  0.09888093  0.49753566
   0.88665832  0.19947802  0.49917080
   0.71774452  0.30066612  0.50818484
   0.77516477  0.20065363  0.50235454
   0.94187314  0.29911242  0.49924497
   0.88714420  0.40030410  0.50025732
   0.72140547  0.50410297  0.50019999
   0.77485556  0.40143746  0.50395479
   0.94718512  0.49846046  0.49775290
   0.89202300  0.59925970  0.49716234
   0.72488041  0.70188190  0.49731509
   0.78030619  0.60142386  0.49732813
   0.94798666  0.69836824  0.49674723
   0.89158361  0.79890113  0.49678165
   0.72353966  0.90065753  0.49853023
   0.77994748  0.80069889  0.49724713
   0.94509509  0.89888448  0.49673418
   0.23157375  0.59987301  0.49586833
   0.38336875  0.30203608  0.50253106
   0.60722285  0.29774637  0.51732622
   0.44549797  0.59931266  0.49865853
   0.21810524  0.38793297  0.49820585
   0.61441558  0.51002191  0.50013102
   0.33235168  0.48091190  0.48840427
   0.49828893  0.42485206  0.54897559
 
 position of ions in cartesian coordinates  (Angst):
   2.90890586 12.48677101  9.93073324
   0.68647738  1.21583601  9.91375817
   1.49136550 12.48688308  9.91293587
   3.52047675  1.21309032  9.94579921
   2.79552999  2.42844225  9.92457890
   0.70152978  3.71344559  9.93770261
   1.38569835  2.45433997  9.91665231
   3.49161958  3.65964417  9.96274668
   0.80308442  6.22229771  9.91512586
   1.45731063  4.93520757  9.93141646
   0.82737146  8.72387524  9.91630259
   1.56663576  7.46417065  9.90739926
   3.62976718  8.77547058  9.93728502
   2.92191433 10.00854896  9.93483972
   0.79633847 11.23750993  9.91218832
   1.50549689  9.98773028  9.91833006
   3.61822271 11.25647219  9.94628516
   7.06531749  0.00507602 10.00305653
   4.93572381  1.25491267 10.00521654
   5.64427017  0.00639104  9.99905290
   7.76143089  1.24887619 10.05552013
   7.06735735  2.49764519 10.16319029
   5.61649722  2.52883585 10.06732880
   7.14866194  7.57160249  9.94251958
   5.06308121  8.77453323  9.96154523
   7.86382416  8.81223598  9.94751072
   7.16127875 10.04338781  9.95788111
   5.03633579 11.27360975  9.96769136
   5.74619501 10.02873404  9.96345018
   7.86476016 11.28332781  9.96557388
  11.38854351 12.50314800  9.93494213
   9.17972183  1.25604926 10.02463177
   9.88520010  0.00383586  9.96800014
  11.98948824  1.23724268  9.93175693
  11.29192269  2.49621138  9.96439755
   9.15308783  3.76257286 10.14433475
   9.87420119  2.51092247 10.02795104
  12.00312726  3.74313284  9.96587807
  11.31635991  5.00954310  9.98608652
   9.21816569  6.30858282  9.98494200
   9.88852212  5.02372522 10.05989506
  12.08880938  6.23796827  9.93609348
  11.39650257  7.49946791  9.92430473
   9.28034837  8.78378159  9.92735405
   9.97604083  7.52655225  9.92761438
  12.11718343  8.73980854  9.91601845
  11.40907013  9.99797464  9.91670549
   9.28137019 11.27145199  9.95161057
   9.98960020 10.02047324  9.92599743
  12.09864612 11.24926321  9.91575797
   2.99789328  7.50714410  9.89847383
   4.90110638  3.77972067 10.03147455
   7.74733502  3.72602774 10.32681420
   5.71822270  7.50013004  9.95417168
   2.80734028  4.85471979  9.94513517
   7.85815646  6.38265820  9.98356535
   4.26865070  6.01835325  9.74947709
   6.37352925  5.31673569 10.95859580
 


--------------------------------------------------------------------------------------------------------


 k-point  1 :   0.2500 0.2500-0.0000  plane waves:   80695
 k-point  2 :  -0.2500 0.2500 0.0000  plane waves:   80648

 maximum and minimum number of plane-waves per node :      2552     2491

 maximum number of plane-waves:     80695
 maximum index in each direction: 
   IXMAX=   23   IYMAX=   22   IZMAX=   36
   IXMIN=  -23   IYMIN=  -23   IZMIN=  -36


 parallel 3D FFT for wavefunctions:
    minimum data exchange during FFTs selected (reduces bandwidth)
 parallel 3D FFT for charge:
    minimum data exchange during FFTs selected (reduces bandwidth)


 FFT grid for exact exchange (Hartree Fock) 
  NGX = 70; NGY = 70; NGZ =112

 
 Radii for the augmentation spheres in the non-local exchange
 for species   1 augmentation radius   0.874 (default was   0.699)
       energy cutoff for augmentation   2000.0
 for species   2 augmentation radius   0.886 (default was   0.709)
       energy cutoff for augmentation   2000.0
 for species   3 augmentation radius   1.263 (default was   1.010)
       energy cutoff for augmentation   2000.0
 for species   4 augmentation radius   1.357 (default was   1.085)
       energy cutoff for augmentation   2000.0

 real space projection operators:
  total allocation   :       2532.88 KBytes
  max/ min on nodes  :        113.65         40.43

 Maximum index for augmentation-charges in exchange          156
  SETUP_FOCK is finished

 total amount of memory used by VASP MPI-rank0   165920. kBytes
=======================================================================

   base      :      30000. kBytes
   nonl-proj :       5324. kBytes
   fftplans  :      14250. kBytes
   grid      :      36827. kBytes
   one-center:         62. kBytes
   HF        :         23. kBytes
   nonlr-proj:       1980. kBytes
   wavefun   :      77454. kBytes
 
     INWAV:  cpu time    3.5435: real time    3.5442
 Broyden mixing: mesh for mixing (old mesh)
   NGX = 47   NGY = 45   NGZ = 73
  (NGX  =192   NGY  =192   NGZ  =300)
  gives a total of 154395 points

 charge density for first step will be calculated from the start-wavefunctions


--------------------------------------------------------------------------------------------------------


 Maximum index for augmentation-charges          854 (set IRDMAX)


--------------------------------------------------------------------------------------------------------


 initial charge from wavefunction
 First call to EWALD:  gamma=   0.121
 Maximum number of real-space cells 3x 3x 2
 Maximum number of reciprocal cells 2x 2x 4

    FEWALD:  cpu time    0.0021: real time    0.0021


--------------------------------------- Iteration      1(   1)  ---------------------------------------


    POTLOK:  cpu time    1.4054: real time    1.4058
    SETDIJ:  cpu time    2.0899: real time    2.0901
    TRIAL :  cpu time  521.7554: real time  522.0285
    CORREC:  cpu time    0.0019: real time    0.0021
    CHARGE:  cpu time    1.6796: real time    1.6801
    --------------------------------------------
      LOOP:  cpu time  526.9486: real time  527.2253

 eigenvalue-minimisations  :     0
 total energy-change (2. order) :-0.6051084E+03  (-0.4584135E+00)
 number of electron     244.9999996 magnetization       1.1060421
 augmentation part       12.7091538 magnetization       1.3224809

 DIPCOR: dipole corrections for dipol
 direction  3 min pos     1,
 dipolmoment           0.000079      0.000013     -0.526208 electrons x Angstroem
 Tr[quadrupol]     -6679.592863

 energy correction for charged system         0.000000 eV
 dipol+quadrupol energy correction           -0.007917 eV
 added-field ion interaction          0.183140 eV  (added to PSCEN)


 Free energy of the ion-electron system (eV)
  ---------------------------------------------------
  alpha Z        PSCENC =       106.10555480
  Ewald energy   TEWEN  =     38933.59377102
  -Hartree energ DENC   =    -47735.98300706
  -exchange      EXHF   =       559.19750893
  -V(xc)+E(xc)   XCENC  =       642.21591032
  PAW double counting   =     26581.48104830   -26607.85158287
  entropy T*S    EENTRO =        -0.01360819
  eigenvalues    EBANDS =     -3318.16889033
  atomic energy  EATOM  =     10234.31575160
  ---------------------------------------------------
  free energy    TOTEN  =      -605.10841060 eV

  energy without entropy =     -605.09480240  energy(sigma->0) =     -605.10160650
  exchange ACFDT corr.  =        -0.01205183  see jH, gK, PRB 81, 115126


--------------------------------------------------------------------------------------------------------




--------------------------------------- Iteration      1(   2)  ---------------------------------------


    POTLOK:  cpu time    1.4125: real time    1.4130
    SETDIJ:  cpu time    2.1190: real time    2.1191
    TRIAL :  cpu time  519.4431: real time  519.7154
    CORREC:  cpu time    0.0018: real time    0.0020
    CHARGE:  cpu time    1.6830: real time    1.6834
    --------------------------------------------
      LOOP:  cpu time  524.6626: real time  524.9361

 eigenvalue-minimisations  :     0
 total energy-change (2. order) :-0.3644943E+00  (-0.3732524E+00)
 number of electron     244.9999996 magnetization       1.0994369
 augmentation part       12.6787567 magnetization       1.3597809

 DIPCOR: dipole corrections for dipol
 direction  3 min pos     1,
 dipolmoment           0.000085      0.000014     -0.564403 electrons x Angstroem
 Tr[quadrupol]     -6679.446133

 energy correction for charged system         0.000000 eV
 dipol+quadrupol energy correction           -0.009108 eV
 added-field ion interaction          0.196434 eV  (added to PSCEN)


 Free energy of the ion-electron system (eV)
  ---------------------------------------------------
  alpha Z        PSCENC =       106.11765705
  Ewald energy   TEWEN  =     38933.59377102
  -Hartree energ DENC   =    -47718.30778876
  -exchange      EXHF   =       559.05375241
  -V(xc)+E(xc)   XCENC  =       641.74208215
  PAW double counting   =     26792.02164074   -26818.38378397
  entropy T*S    EENTRO =        -0.01285862
  eigenvalues    EBANDS =     -3335.61237890
  atomic energy  EATOM  =     10234.31575160
  ---------------------------------------------------
  free energy    TOTEN  =      -605.47290485 eV

  energy without entropy =     -605.46004624  energy(sigma->0) =     -605.46647554
  exchange ACFDT corr.  =        -0.00949544  see jH, gK, PRB 81, 115126


--------------------------------------------------------------------------------------------------------




--------------------------------------- Iteration      1(   3)  ---------------------------------------


    POTLOK:  cpu time    1.4124: real time    1.4130
    SETDIJ:  cpu time    2.0992: real time    2.1026
    TRIAL :  cpu time  518.8201: real time  519.1095
    CORREC:  cpu time    0.0019: real time    0.0021
    CHARGE:  cpu time    1.6745: real time    1.6750
    --------------------------------------------
      LOOP:  cpu time  524.0113: real time  524.3052

 eigenvalue-minimisations  :     0
 total energy-change (2. order) :-0.2860593E+00  (-0.2230141E+00)
 number of electron     244.9999996 magnetization       1.0912326
 augmentation part       12.6822501 magnetization       1.3897090

 DIPCOR: dipole corrections for dipol
 direction  3 min pos     1,
 dipolmoment           0.000087      0.000015     -0.582137 electrons x Angstroem
 Tr[quadrupol]     -6679.289039

 energy correction for charged system         0.000000 eV
 dipol+quadrupol energy correction           -0.009690 eV
 added-field ion interaction          0.202606 eV  (added to PSCEN)


 Free energy of the ion-electron system (eV)
  ---------------------------------------------------
  alpha Z        PSCENC =       106.12324767
  Ewald energy   TEWEN  =     38933.59377102
  -Hartree energ DENC   =    -47701.40745009
  -exchange      EXHF   =       558.97458672
  -V(xc)+E(xc)   XCENC  =       641.31366575
  PAW double counting   =     26979.39633434   -27005.70161525
  entropy T*S    EENTRO =        -0.01194324
  eigenvalues    EBANDS =     -3352.35439727
  atomic energy  EATOM  =     10234.31575160
  ---------------------------------------------------
  free energy    TOTEN  =      -605.75896412 eV

  energy without entropy =     -605.74702088  energy(sigma->0) =     -605.75299250
  exchange ACFDT corr.  =        -0.00809970  see jH, gK, PRB 81, 115126


--------------------------------------------------------------------------------------------------------




--------------------------------------- Iteration      1(   4)  ---------------------------------------


    POTLOK:  cpu time    1.4166: real time    1.4171
    SETDIJ:  cpu time    2.1045: real time    2.1049
    TRIAL :  cpu time  519.6698: real time  519.9099
    CORREC:  cpu time    0.0019: real time    0.0020
    CHARGE:  cpu time    1.6722: real time    1.6727
    --------------------------------------------
      LOOP:  cpu time  524.8676: real time  525.1092

 eigenvalue-minimisations  :     0
 total energy-change (2. order) :-0.1700928E+00  (-0.1211719E+00)
 number of electron     244.9999996 magnetization       1.0818865
 augmentation part       12.6908653 magnetization       1.4104758

 DIPCOR: dipole corrections for dipol
 direction  3 min pos     1,
 dipolmoment           0.000087      0.000015     -0.579859 electrons x Angstroem
 Tr[quadrupol]     -6679.226386

 energy correction for charged system         0.000000 eV
 dipol+quadrupol energy correction           -0.009614 eV
 added-field ion interaction          0.201813 eV  (added to PSCEN)


 Free energy of the ion-electron system (eV)
  ---------------------------------------------------
  alpha Z        PSCENC =       106.12253054
  Ewald energy   TEWEN  =     38933.59377102
  -Hartree energ DENC   =    -47694.42006350
  -exchange      EXHF   =       559.07682086
  -V(xc)+E(xc)   XCENC  =       641.15313396
  PAW double counting   =     27062.38199614   -27088.71174603
  entropy T*S    EENTRO =        -0.01091991
  eigenvalues    EBANDS =     -3359.42930828
  atomic energy  EATOM  =     10234.31575160
  ---------------------------------------------------
  free energy    TOTEN  =      -605.92905692 eV

  energy without entropy =     -605.91813702  energy(sigma->0) =     -605.92359697
  exchange ACFDT corr.  =        -0.00698723  see jH, gK, PRB 81, 115126


--------------------------------------------------------------------------------------------------------




--------------------------------------- Iteration      1(   5)  ---------------------------------------


    POTLOK:  cpu time    1.4165: real time    1.4170
    SETDIJ:  cpu time    2.1163: real time    2.1171
    TRIAL :  cpu time  519.2721: real time  519.4451
    CORREC:  cpu time    0.0017: real time    0.0017
    CHARGE:  cpu time    1.6734: real time    1.6736
    --------------------------------------------
      LOOP:  cpu time  524.4832: real time  524.6577

 eigenvalue-minimisations  :     0
 total energy-change (2. order) :-0.9425721E-01  (-0.7319948E-01)
 number of electron     244.9999996 magnetization       1.0721710
 augmentation part       12.6908665 magnetization       1.4242993

 DIPCOR: dipole corrections for dipol
 direction  3 min pos     1,
 dipolmoment           0.000087      0.000014     -0.577330 electrons x Angstroem
 Tr[quadrupol]     -6679.253191

 energy correction for charged system         0.000000 eV
 dipol+quadrupol energy correction           -0.009530 eV
 added-field ion interaction          0.200933 eV  (added to PSCEN)


 Free energy of the ion-electron system (eV)
  ---------------------------------------------------
  alpha Z        PSCENC =       106.12173416
  Ewald energy   TEWEN  =     38933.59377102
  -Hartree energ DENC   =    -47694.96603963
  -exchange      EXHF   =       559.30268329
  -V(xc)+E(xc)   XCENC  =       641.18189934
  PAW double counting   =     27117.12663779   -27143.54114184
  entropy T*S    EENTRO =        -0.00985667
  eigenvalues    EBANDS =     -3359.14768994
  atomic energy  EATOM  =     10234.31575160
  ---------------------------------------------------
  free energy    TOTEN  =      -606.02331413 eV

  energy without entropy =     -606.01345746  energy(sigma->0) =     -606.01838579
  exchange ACFDT corr.  =        -0.00604994  see jH, gK, PRB 81, 115126


--------------------------------------------------------------------------------------------------------




--------------------------------------- Iteration      1(   6)  ---------------------------------------


    POTLOK:  cpu time    1.4119: real time    1.4120
    SETDIJ:  cpu time    2.1173: real time    2.1175
    TRIAL :  cpu time  519.4437: real time  519.5357
    CORREC:  cpu time    0.0017: real time    0.0017
    CHARGE:  cpu time    1.6722: real time    1.6729
    --------------------------------------------
      LOOP:  cpu time  524.6497: real time  524.7426

 eigenvalue-minimisations  :     0
 total energy-change (2. order) :-0.5982667E-01  (-0.4746251E-01)
 number of electron     244.9999996 magnetization       1.0626186
 augmentation part       12.6887615 magnetization       1.4335655

 DIPCOR: dipole corrections for dipol
 direction  3 min pos     1,
 dipolmoment           0.000087      0.000015     -0.581167 electrons x Angstroem
 Tr[quadrupol]     -6679.315468

 energy correction for charged system         0.000000 eV
 dipol+quadrupol energy correction           -0.009658 eV
 added-field ion interaction          0.202268 eV  (added to PSCEN)


 Free energy of the ion-electron system (eV)
  ---------------------------------------------------
  alpha Z        PSCENC =       106.12294231
  Ewald energy   TEWEN  =     38933.59377102
  -Hartree energ DENC   =    -47698.10164987
  -exchange      EXHF   =       559.54789606
  -V(xc)+E(xc)   XCENC  =       641.27178440
  PAW double counting   =     27174.35201914   -27200.84500871
  entropy T*S    EENTRO =        -0.00879361
  eigenvalues    EBANDS =     -3356.33079008
  atomic energy  EATOM  =     10234.31575160
  ---------------------------------------------------
  free energy    TOTEN  =      -606.08314080 eV

  energy without entropy =     -606.07434719  energy(sigma->0) =     -606.07874400
  exchange ACFDT corr.  =        -0.00523297  see jH, gK, PRB 81, 115126


--------------------------------------------------------------------------------------------------------




--------------------------------------- Iteration      1(   7)  ---------------------------------------


    POTLOK:  cpu time    1.4156: real time    1.4160
    SETDIJ:  cpu time    2.1019: real time    2.1022
    TRIAL :  cpu time  519.1819: real time  519.4316
    CORREC:  cpu time    0.0018: real time    0.0020
    CHARGE:  cpu time    1.6728: real time    1.6738
    --------------------------------------------
      LOOP:  cpu time  524.3769: real time  524.6284

 eigenvalue-minimisations  :     0
 total energy-change (2. order) :-0.3945059E-01  (-0.3019340E-01)
 number of electron     244.9999996 magnetization       1.0537363
 augmentation part       12.6906660 magnetization       1.4401974

 DIPCOR: dipole corrections for dipol
 direction  3 min pos     1,
 dipolmoment           0.000088      0.000015     -0.587344 electrons x Angstroem
 Tr[quadrupol]     -6679.372781

 energy correction for charged system         0.000000 eV
 dipol+quadrupol energy correction           -0.009864 eV
 added-field ion interaction          0.204418 eV  (added to PSCEN)


 Free energy of the ion-electron system (eV)
  ---------------------------------------------------
  alpha Z        PSCENC =       106.12488581
  Ewald energy   TEWEN  =     38933.59377102
  -Hartree energ DENC   =    -47701.20743292
  -exchange      EXHF   =       559.75405052
  -V(xc)+E(xc)   XCENC  =       641.36214247
  PAW double counting   =     27223.49753464   -27250.04374250
  entropy T*S    EENTRO =        -0.00777531
  eigenvalues    EBANDS =     -3353.51075843
  atomic energy  EATOM  =     10234.31575160
  ---------------------------------------------------
  free energy    TOTEN  =      -606.12259140 eV

  energy without entropy =     -606.11481609  energy(sigma->0) =     -606.11870374
  exchange ACFDT corr.  =        -0.00450360  see jH, gK, PRB 81, 115126


--------------------------------------------------------------------------------------------------------




--------------------------------------- Iteration      1(   8)  ---------------------------------------


    POTLOK:  cpu time    1.4098: real time    1.4104
    SETDIJ:  cpu time    2.1105: real time    2.1108
    TRIAL :  cpu time  519.1156: real time  519.3486
    CORREC:  cpu time    0.0018: real time    0.0020
    CHARGE:  cpu time    1.6715: real time    1.6715
    --------------------------------------------
      LOOP:  cpu time  524.3123: real time  524.5464

 eigenvalue-minimisations  :     0
 total energy-change (2. order) :-0.2575855E-01  (-0.2014324E-01)
 number of electron     244.9999996 magnetization       1.0459245
 augmentation part       12.6955719 magnetization       1.4453886

 DIPCOR: dipole corrections for dipol
 direction  3 min pos     1,
 dipolmoment           0.000089      0.000015     -0.591563 electrons x Angstroem
 Tr[quadrupol]     -6679.409518

 energy correction for charged system         0.000000 eV
 dipol+quadrupol energy correction           -0.010006 eV
 added-field ion interaction          0.205886 eV  (added to PSCEN)


 Free energy of the ion-electron system (eV)
  ---------------------------------------------------
  alpha Z        PSCENC =       106.12621191
  Ewald energy   TEWEN  =     38933.59377102
  -Hartree energ DENC   =    -47703.46452240
  -exchange      EXHF   =       559.90408982
  -V(xc)+E(xc)   XCENC  =       641.43487250
  PAW double counting   =     27252.97681033   -27279.56459913
  entropy T*S    EENTRO =        -0.00684661
  eigenvalues    EBANDS =     -3351.46296029
  atomic energy  EATOM  =     10234.31575160
  ---------------------------------------------------
  free energy    TOTEN  =      -606.14834995 eV

  energy without entropy =     -606.14150334  energy(sigma->0) =     -606.14492664
  exchange ACFDT corr.  =        -0.00385612  see jH, gK, PRB 81, 115126


--------------------------------------------------------------------------------------------------------




--------------------------------------- Iteration      1(   9)  ---------------------------------------


    POTLOK:  cpu time    1.4102: real time    1.4103
    SETDIJ:  cpu time    2.1133: real time    2.1133
    TRIAL :  cpu time  518.7068: real time  518.8188
    CORREC:  cpu time    0.0018: real time    0.0020
    CHARGE:  cpu time    1.6732: real time    1.6733
    --------------------------------------------
      LOOP:  cpu time  523.9078: real time  524.0201

 eigenvalue-minimisations  :     0
 total energy-change (2. order) :-0.1759707E-01  (-0.1395482E-01)
 number of electron     244.9999996 magnetization       1.0393485
 augmentation part       12.7002920 magnetization       1.4497221

 DIPCOR: dipole corrections for dipol
 direction  3 min pos     1,
 dipolmoment           0.000089      0.000015     -0.592836 electrons x Angstroem
 Tr[quadrupol]     -6679.426655

 energy correction for charged system         0.000000 eV
 dipol+quadrupol energy correction           -0.010049 eV
 added-field ion interaction          0.206330 eV  (added to PSCEN)


 Free energy of the ion-electron system (eV)
  ---------------------------------------------------
  alpha Z        PSCENC =       106.12661210
  Ewald energy   TEWEN  =     38933.59377102
  -Hartree energ DENC   =    -47704.76129464
  -exchange      EXHF   =       560.00158565
  -V(xc)+E(xc)   XCENC  =       641.48458170
  PAW double counting   =     27264.08216437   -27290.70728238
  entropy T*S    EENTRO =        -0.00603483
  eigenvalues    EBANDS =     -3350.29498983
  atomic energy  EATOM  =     10234.31575160
  ---------------------------------------------------
  free energy    TOTEN  =      -606.16594702 eV

  energy without entropy =     -606.15991219  energy(sigma->0) =     -606.16292961
  exchange ACFDT corr.  =        -0.00329726  see jH, gK, PRB 81, 115126


--------------------------------------------------------------------------------------------------------




--------------------------------------- Iteration      1(  10)  ---------------------------------------


    POTLOK:  cpu time    1.4087: real time    1.4088
    SETDIJ:  cpu time    2.1034: real time    2.1035
    TRIAL :  cpu time  519.4367: real time  519.5731
    CORREC:  cpu time    0.0018: real time    0.0020
    CHARGE:  cpu time    1.6742: real time    1.6748
    --------------------------------------------
      LOOP:  cpu time  524.6275: real time  524.7649

 eigenvalue-minimisations  :     0
 total energy-change (2. order) :-0.1233747E-01  (-0.9801514E-02)
 number of electron     244.9999996 magnetization       1.0339585
 augmentation part       12.7030409 magnetization       1.4534185

 DIPCOR: dipole corrections for dipol
 direction  3 min pos     1,
 dipolmoment           0.000089      0.000015     -0.592263 electrons x Angstroem
 Tr[quadrupol]     -6679.431677

 energy correction for charged system         0.000000 eV
 dipol+quadrupol energy correction           -0.010030 eV
 added-field ion interaction          0.206130 eV  (added to PSCEN)


 Free energy of the ion-electron system (eV)
  ---------------------------------------------------
  alpha Z        PSCENC =       106.12643203
  Ewald energy   TEWEN  =     38933.59377102
  -Hartree energ DENC   =    -47705.30800582
  -exchange      EXHF   =       560.06051166
  -V(xc)+E(xc)   XCENC  =       641.51339312
  PAW double counting   =     27265.23305049   -27291.88909698
  entropy T*S    EENTRO =        -0.00534513
  eigenvalues    EBANDS =     -3349.81805679
  atomic energy  EATOM  =     10234.31575160
  ---------------------------------------------------
  free energy    TOTEN  =      -606.17828449 eV

  energy without entropy =     -606.17293936  energy(sigma->0) =     -606.17561193
  exchange ACFDT corr.  =        -0.00282949  see jH, gK, PRB 81, 115126


--------------------------------------------------------------------------------------------------------




--------------------------------------- Iteration      1(  11)  ---------------------------------------


    POTLOK:  cpu time    1.4029: real time    1.4033
    SETDIJ:  cpu time    2.1170: real time    2.1172
    TRIAL :  cpu time  518.5544: real time  518.8165
    CORREC:  cpu time    0.0018: real time    0.0020
    CHARGE:  cpu time    1.6710: real time    1.6714
    --------------------------------------------
      LOOP:  cpu time  523.7494: real time  524.0127

 eigenvalue-minimisations  :     0
 total energy-change (2. order) :-0.8754579E-02  (-0.7011004E-02)
 number of electron     244.9999996 magnetization       1.0295915
 augmentation part       12.7041685 magnetization       1.4565655

 DIPCOR: dipole corrections for dipol
 direction  3 min pos     1,
 dipolmoment           0.000089      0.000015     -0.591392 electrons x Angstroem
 Tr[quadrupol]     -6679.431860

 energy correction for charged system         0.000000 eV
 dipol+quadrupol energy correction           -0.010000 eV
 added-field ion interaction          0.205827 eV  (added to PSCEN)


 Free energy of the ion-electron system (eV)
  ---------------------------------------------------
  alpha Z        PSCENC =       106.12615824
  Ewald energy   TEWEN  =     38933.59377102
  -Hartree energ DENC   =    -47705.42109918
  -exchange      EXHF   =       560.09647818
  -V(xc)+E(xc)   XCENC  =       641.52768247
  PAW double counting   =     27263.99397903   -27290.67214063
  entropy T*S    EENTRO =        -0.00476773
  eigenvalues    EBANDS =     -3349.74227468
  atomic energy  EATOM  =     10234.31575160
  ---------------------------------------------------
  free energy    TOTEN  =      -606.18703907 eV

  energy without entropy =     -606.18227134  energy(sigma->0) =     -606.18465521
  exchange ACFDT corr.  =        -0.00244618  see jH, gK, PRB 81, 115126


--------------------------------------------------------------------------------------------------------




--------------------------------------- Iteration      1(  12)  ---------------------------------------


    POTLOK:  cpu time    1.4013: real time    1.4018
    SETDIJ:  cpu time    2.1179: real time    2.1182
    TRIAL :  cpu time  519.1511: real time  519.3246
    CORREC:  cpu time    0.0018: real time    0.0020
    CHARGE:  cpu time    1.6683: real time    1.6685
    --------------------------------------------
      LOOP:  cpu time  524.3432: real time  524.5177

 eigenvalue-minimisations  :     0
 total energy-change (2. order) :-0.6315255E-02  (-0.5077535E-02)
 number of electron     244.9999996 magnetization       1.0260611
 augmentation part       12.7048852 magnetization       1.4592620

 DIPCOR: dipole corrections for dipol
 direction  3 min pos     1,
 dipolmoment           0.000089      0.000015     -0.591132 electrons x Angstroem
 Tr[quadrupol]     -6679.431414

 energy correction for charged system         0.000000 eV
 dipol+quadrupol energy correction           -0.009992 eV
 added-field ion interaction          0.205737 eV  (added to PSCEN)


 Free energy of the ion-electron system (eV)
  ---------------------------------------------------
  alpha Z        PSCENC =       106.12607666
  Ewald energy   TEWEN  =     38933.59377102
  -Hartree energ DENC   =    -47705.38111978
  -exchange      EXHF   =       560.12140801
  -V(xc)+E(xc)   XCENC  =       641.53478212
  PAW double counting   =     27263.61002951   -27290.30266899
  entropy T*S    EENTRO =        -0.00428710
  eigenvalues    EBANDS =     -3349.80661675
  atomic energy  EATOM  =     10234.31575160
  ---------------------------------------------------
  free energy    TOTEN  =      -606.19335433 eV

  energy without entropy =     -606.18906723  energy(sigma->0) =     -606.19121078
  exchange ACFDT corr.  =        -0.00213510  see jH, gK, PRB 81, 115126


--------------------------------------------------------------------------------------------------------




--------------------------------------- Iteration      1(  13)  ---------------------------------------


    POTLOK:  cpu time    1.4019: real time    1.4020
    SETDIJ:  cpu time    2.1140: real time    2.1141
    TRIAL :  cpu time  519.4413: real time  519.6984
    CORREC:  cpu time    0.0016: real time    0.0018
    CHARGE:  cpu time    1.6693: real time    1.6697
    --------------------------------------------
      LOOP:  cpu time  524.6309: real time  524.8888

 eigenvalue-minimisations  :     0
 total energy-change (2. order) :-0.4611851E-02  (-0.3727781E-02)
 number of electron     244.9999996 magnetization       1.0232024
 augmentation part       12.7058087 magnetization       1.4616070

 DIPCOR: dipole corrections for dipol
 direction  3 min pos     1,
 dipolmoment           0.000089      0.000015     -0.591502 electrons x Angstroem
 Tr[quadrupol]     -6679.431661

 energy correction for charged system         0.000000 eV
 dipol+quadrupol energy correction           -0.010004 eV
 added-field ion interaction          0.205865 eV  (added to PSCEN)


 Free energy of the ion-electron system (eV)
  ---------------------------------------------------
  alpha Z        PSCENC =       106.12619284
  Ewald energy   TEWEN  =     38933.59377102
  -Hartree energ DENC   =    -47705.35640710
  -exchange      EXHF   =       560.14186701
  -V(xc)+E(xc)   XCENC  =       641.54013475
  PAW double counting   =     27264.10742367   -27290.81047225
  entropy T*S    EENTRO =        -0.00388771
  eigenvalues    EBANDS =     -3349.85194061
  atomic energy  EATOM  =     10234.31575160
  ---------------------------------------------------
  free energy    TOTEN  =      -606.19796618 eV

  energy without entropy =     -606.19407847  energy(sigma->0) =     -606.19602232
  exchange ACFDT corr.  =        -0.00188308  see jH, gK, PRB 81, 115126


--------------------------------------------------------------------------------------------------------




--------------------------------------- Iteration      1(  14)  ---------------------------------------


    POTLOK:  cpu time    1.4005: real time    1.4010
    SETDIJ:  cpu time    2.0989: real time    2.1028
    TRIAL :  cpu time  519.8380: real time  520.0988
    CORREC:  cpu time    0.0018: real time    0.0018
    CHARGE:  cpu time    1.6714: real time    1.6720
    --------------------------------------------
      LOOP:  cpu time  525.0135: real time  525.2793

 eigenvalue-minimisations  :     0
 total energy-change (2. order) :-0.3413004E-02  (-0.2771729E-02)
 number of electron     244.9999996 magnetization       1.0208822
 augmentation part       12.7068078 magnetization       1.4636369

 DIPCOR: dipole corrections for dipol
 direction  3 min pos     1,
 dipolmoment           0.000089      0.000015     -0.592026 electrons x Angstroem
 Tr[quadrupol]     -6679.432689

 energy correction for charged system         0.000000 eV
 dipol+quadrupol energy correction           -0.010022 eV
 added-field ion interaction          0.206048 eV  (added to PSCEN)


 Free energy of the ion-electron system (eV)
  ---------------------------------------------------
  alpha Z        PSCENC =       106.12635755
  Ewald energy   TEWEN  =     38933.59377102
  -Hartree energ DENC   =    -47705.40287326
  -exchange      EXHF   =       560.16023657
  -V(xc)+E(xc)   XCENC  =       641.54596676
  PAW double counting   =     27264.68076195   -27291.39316368
  entropy T*S    EENTRO =        -0.00355610
  eigenvalues    EBANDS =     -3349.82429999
  atomic energy  EATOM  =     10234.31575160
  ---------------------------------------------------
  free energy    TOTEN  =      -606.20137918 eV

  energy without entropy =     -606.19782309  energy(sigma->0) =     -606.19960114
  exchange ACFDT corr.  =        -0.00167858  see jH, gK, PRB 81, 115126


--------------------------------------------------------------------------------------------------------




--------------------------------------- Iteration      1(  15)  ---------------------------------------


    POTLOK:  cpu time    1.3965: real time    1.3971
    SETDIJ:  cpu time    2.1057: real time    2.1059
    TRIAL :  cpu time  519.7985: real time  520.0156
    CORREC:  cpu time    0.0016: real time    0.0016
    CHARGE:  cpu time    1.6709: real time    1.6715
    --------------------------------------------
      LOOP:  cpu time  524.9764: real time  525.1949

 eigenvalue-minimisations  :     0
 total energy-change (2. order) :-0.2554817E-02  (-0.2087259E-02)
 number of electron     244.9999996 magnetization       1.0189939
 augmentation part       12.7075920 magnetization       1.4653446

 DIPCOR: dipole corrections for dipol
 direction  3 min pos     1,
 dipolmoment           0.000089      0.000015     -0.592351 electrons x Angstroem
 Tr[quadrupol]     -6679.434082

 energy correction for charged system         0.000000 eV
 dipol+quadrupol energy correction           -0.010033 eV
 added-field ion interaction          0.206161 eV  (added to PSCEN)


 Free energy of the ion-electron system (eV)
  ---------------------------------------------------
  alpha Z        PSCENC =       106.12645975
  Ewald energy   TEWEN  =     38933.59377102
  -Hartree energ DENC   =    -47705.49083586
  -exchange      EXHF   =       560.17666611
  -V(xc)+E(xc)   XCENC  =       641.55186025
  PAW double counting   =     27265.31564448   -27292.03697046
  entropy T*S    EENTRO =        -0.00328078
  eigenvalues    EBANDS =     -3349.75272480
  atomic energy  EATOM  =     10234.31575160
  ---------------------------------------------------
  free energy    TOTEN  =      -606.20393400 eV

  energy without entropy =     -606.20065322  energy(sigma->0) =     -606.20229361
  exchange ACFDT corr.  =        -0.00151228  see jH, gK, PRB 81, 115126


--------------------------------------------------------------------------------------------------------




--------------------------------------- Iteration      1(  16)  ---------------------------------------


    POTLOK:  cpu time    1.4004: real time    1.4011
    SETDIJ:  cpu time    2.0937: real time    2.0950
    TRIAL :  cpu time  519.3002: real time  519.5190
    CORREC:  cpu time    0.0018: real time    0.0020
    CHARGE:  cpu time    1.6689: real time    1.6694
    --------------------------------------------
      LOOP:  cpu time  524.4678: real time  524.6892

 eigenvalue-minimisations  :     0
 total energy-change (2. order) :-0.1935218E-02  (-0.1593754E-02)
 number of electron     244.9999996 magnetization       1.0174514
 augmentation part       12.7080934 magnetization       1.4667541

 DIPCOR: dipole corrections for dipol
 direction  3 min pos     1,
 dipolmoment           0.000089      0.000015     -0.592462 electrons x Angstroem
 Tr[quadrupol]     -6679.435477

 energy correction for charged system         0.000000 eV
 dipol+quadrupol energy correction           -0.010037 eV
 added-field ion interaction          0.206199 eV  (added to PSCEN)


 Free energy of the ion-electron system (eV)
  ---------------------------------------------------
  alpha Z        PSCENC =       106.12649437
  Ewald energy   TEWEN  =     38933.59377102
  -Hartree energ DENC   =    -47705.57709980
  -exchange      EXHF   =       560.19090612
  -V(xc)+E(xc)   XCENC  =       641.55688800
  PAW double counting   =     27266.31502510   -27293.04408961
  entropy T*S    EENTRO =        -0.00305196
  eigenvalues    EBANDS =     -3349.68023524
  atomic energy  EATOM  =     10234.31575160
  ---------------------------------------------------
  free energy    TOTEN  =      -606.20586922 eV

  energy without entropy =     -606.20281726  energy(sigma->0) =     -606.20434324
  exchange ACFDT corr.  =        -0.00137670  see jH, gK, PRB 81, 115126


--------------------------------------------------------------------------------------------------------




--------------------------------------- Iteration      1(  17)  ---------------------------------------


    POTLOK:  cpu time    1.3964: real time    1.3969
    SETDIJ:  cpu time    2.1090: real time    2.1093
    TRIAL :  cpu time  518.9221: real time  519.0880
    CORREC:  cpu time    0.0018: real time    0.0018
    CHARGE:  cpu time    1.6704: real time    1.6710
    --------------------------------------------
      LOOP:  cpu time  524.1025: real time  524.2699

 eigenvalue-minimisations  :     0
 total energy-change (2. order) :-0.1485338E-02  (-0.1234331E-02)
 number of electron     244.9999996 magnetization       1.0161854
 augmentation part       12.7084414 magnetization       1.4679383

 DIPCOR: dipole corrections for dipol
 direction  3 min pos     1,
 dipolmoment           0.000089      0.000015     -0.592503 electrons x Angstroem
 Tr[quadrupol]     -6679.436679

 energy correction for charged system         0.000000 eV
 dipol+quadrupol energy correction           -0.010038 eV
 added-field ion interaction          0.206214 eV  (added to PSCEN)


 Free energy of the ion-electron system (eV)
  ---------------------------------------------------
  alpha Z        PSCENC =       106.12650741
  Ewald energy   TEWEN  =     38933.59377102
  -Hartree energ DENC   =    -47705.64339330
  -exchange      EXHF   =       560.20303953
  -V(xc)+E(xc)   XCENC  =       641.56080938
  PAW double counting   =     27267.57440851   -27294.30946677
  entropy T*S    EENTRO =        -0.00286129
  eigenvalues    EBANDS =     -3349.62572998
  atomic energy  EATOM  =     10234.31575160
  ---------------------------------------------------
  free energy    TOTEN  =      -606.20735456 eV

  energy without entropy =     -606.20449327  energy(sigma->0) =     -606.20592391
  exchange ACFDT corr.  =        -0.00126578  see jH, gK, PRB 81, 115126


--------------------------------------------------------------------------------------------------------




--------------------------------------- Iteration      1(  18)  ---------------------------------------


    POTLOK:  cpu time    1.3939: real time    1.3944
    SETDIJ:  cpu time    2.1122: real time    2.1124
    TRIAL :  cpu time  519.5521: real time  519.6636
    CORREC:  cpu time    0.0018: real time    0.0019
    CHARGE:  cpu time    1.6715: real time    1.6716
    --------------------------------------------
      LOOP:  cpu time  524.7341: real time  524.8466

 eigenvalue-minimisations  :     0
 total energy-change (2. order) :-0.1155730E-02  (-0.9689629E-03)
 number of electron     244.9999996 magnetization       1.0151405
 augmentation part       12.7087421 magnetization       1.4689601

 DIPCOR: dipole corrections for dipol
 direction  3 min pos     1,
 dipolmoment           0.000089      0.000015     -0.592592 electrons x Angstroem
 Tr[quadrupol]     -6679.437632

 energy correction for charged system         0.000000 eV
 dipol+quadrupol energy correction           -0.010041 eV
 added-field ion interaction          0.206244 eV  (added to PSCEN)


 Free energy of the ion-electron system (eV)
  ---------------------------------------------------
  alpha Z        PSCENC =       106.12653518
  Ewald energy   TEWEN  =     38933.59377102
  -Hartree energ DENC   =    -47705.69330343
  -exchange      EXHF   =       560.21343402
  -V(xc)+E(xc)   XCENC  =       641.56396713
  PAW double counting   =     27268.75889411   -27295.49851744
  entropy T*S    EENTRO =        -0.00270185
  eigenvalues    EBANDS =     -3349.58618119
  atomic energy  EATOM  =     10234.31575160
[...]
  augment    41.16529    40.44953    41.33671    -0.28552     0.10691     0.87263
  Kinetic  3621.24243  3616.48772  4066.68922    17.13482     1.31629     2.96815
  Fock     -340.93966  -339.72895  -314.77605     0.83329    -0.09918    -0.54044
  -------------------------------------------------------------------------------------
  Total     -19.45470   -51.60520    -0.83748     7.53214    -0.38022     0.90818
  in kB      -9.81143   -26.02564    -0.42236     3.79863    -0.19175     0.45802
  external pressure =      -12.09 kB  Pullay stress =        0.00 kB


 VOLUME and BASIS-vectors are now :
 -----------------------------------------------------------------------------
  energy-cutoff  :      500.00
  volume of cell :     3176.89
      direct lattice vectors                 reciprocal lattice vectors
    12.716600000  0.000000000  0.000000000     0.078637372 -0.000571374  0.000011789
     0.090932938 12.514969648  0.000000000     0.000000000  0.079904309  0.000002005
    -0.002996248 -0.000500845 19.961899769     0.000000000  0.000000000  0.050095432

  length of vectors
    12.716600000 12.515300000 19.961900000     0.078639448  0.079904309  0.050095432


 FORCES acting on ions:
    Electron-Ion                     Ewald-Force                    Non-Local-Force
 -----------------------------------------------------------------------------------------------
   0.536E+00 0.300E+01 0.968E+01   -.458E+00 -.326E+01 -.973E+01   -.911E-01 0.213E+00 0.414E-01
   0.162E+01 0.651E+01 0.135E+02   -.183E+01 -.678E+01 -.135E+02   0.189E+00 0.261E+00 0.469E-01
   0.654E+01 0.241E+01 0.120E+02   -.648E+01 -.253E+01 -.120E+02   -.299E-01 0.113E+00 0.481E-01
   -.203E+00 0.990E+01 0.120E+02   0.672E+00 -.101E+02 -.121E+02   -.438E+00 0.283E+00 0.792E-01
   0.206E+01 0.164E+02 0.191E+02   -.196E+01 -.169E+02 -.192E+02   -.744E-01 0.439E+00 0.865E-01
   0.127E+02 0.131E+01 0.789E+01   -.134E+02 -.138E+01 -.791E+01   0.578E+00 0.812E-01 0.134E-01
   0.144E+02 0.597E+01 0.149E+02   -.146E+02 -.614E+01 -.150E+02   0.247E+00 0.173E+00 0.661E-01
   -.123E+02 0.423E+02 0.120E+02   0.154E+02 -.460E+02 -.113E+02   -.317E+01 0.369E+01 -.554E+00
   0.131E+01 -.131E+02 0.130E+02   -.106E+01 0.140E+02 -.131E+02   -.337E+00 -.106E+01 0.157E+00
   0.484E+02 -.167E+02 0.856E+01   -.525E+02 0.175E+02 -.866E+01   0.407E+01 -.703E+00 0.885E-01
   -.243E+01 0.630E+01 0.727E+01   0.285E+01 -.683E+01 -.727E+01   -.452E+00 0.536E+00 0.217E-02
   0.660E+01 0.135E+01 0.113E+02   -.470E+01 -.119E+01 -.114E+02   -.159E+01 0.460E-01 0.126E+00
   0.891E+01 -.611E+01 0.498E+01   -.951E+01 0.456E+01 -.495E+01   0.342E+00 0.137E+01 -.407E-01
   0.212E+01 -.198E+01 0.499E+01   -.188E+01 0.142E+01 -.497E+01   -.248E+00 0.535E+00 -.127E-01
   -.228E+01 0.367E+01 0.102E+02   0.229E+01 -.386E+01 -.102E+02   -.983E-01 0.221E+00 0.315E-01
   0.864E+01 0.131E+01 0.792E+01   -.846E+01 -.165E+01 -.800E+01   -.109E+00 0.276E+00 0.676E-01
   0.370E+01 0.207E+01 0.462E+01   -.371E+01 -.231E+01 -.460E+01   0.294E-01 0.267E+00 -.179E-01
   -.263E+01 -.849E+00 0.259E+01   0.263E+01 0.103E+01 -.269E+01   -.429E-01 -.224E+00 0.100E+00
   -.907E+01 0.300E+01 0.190E+01   0.956E+01 -.251E+01 -.194E+01   -.490E+00 -.449E+00 0.179E-01
   0.201E+01 -.856E+00 -.821E+00   -.202E+01 0.921E+00 0.893E+00   0.534E-01 -.939E-01 -.790E-01
   0.112E+01 0.149E+01 -.234E+01   -.148E+01 -.812E+00 0.208E+01   0.362E+00 -.563E+00 0.233E+00
   0.473E+00 0.102E+02 -.193E+02   0.414E+00 -.888E+01 0.192E+02   -.789E+00 -.140E+01 0.978E-01
   -.525E+01 0.701E+01 0.373E+01   0.551E+01 -.613E+01 -.437E+01   -.291E+00 -.889E+00 0.582E+00
   0.120E+02 -.448E+02 0.444E+02   -.154E+02 0.487E+02 -.459E+02   0.314E+01 -.367E+01 0.139E+01
   0.368E+01 -.912E+01 0.424E+01   -.363E+01 0.784E+01 -.396E+01   0.567E-01 0.116E+01 -.264E+00
   -.316E+01 -.159E+02 0.129E+02   0.299E+01 0.163E+02 -.128E+02   0.155E+00 -.369E+00 -.773E-01
   -.257E+01 -.997E+01 0.745E+01   0.217E+01 0.101E+02 -.746E+01   0.346E+00 -.214E+00 0.115E-01
   -.209E+01 -.168E+01 0.328E+01   0.209E+01 0.165E+01 -.337E+01   -.254E-01 0.653E-01 0.951E-01
   0.694E+01 -.727E+01 0.455E+01   -.736E+01 0.684E+01 -.456E+01   0.446E+00 0.363E+00 0.150E-01
   -.228E-01 -.445E+01 0.720E+01   -.479E-02 0.469E+01 -.727E+01   0.694E-01 -.184E+00 0.820E-01
   -.503E+01 0.338E+01 0.924E+01   0.491E+01 -.339E+01 -.926E+01   0.628E-01 0.246E-01 0.167E-01
   -.743E+01 0.133E+01 -.158E+01   0.722E+01 -.101E+01 0.176E+01   0.161E+00 -.286E+00 -.174E+00
   0.259E+01 -.270E+01 0.470E+01   -.264E+01 0.290E+01 -.473E+01   0.103E+00 -.209E+00 0.240E-01
   0.755E+01 -.126E+01 0.113E+02   -.770E+01 0.135E+01 -.114E+02   0.164E+00 -.644E-01 0.494E-01
   -.194E+01 0.815E+00 0.102E+02   0.162E+01 -.750E+00 -.104E+02   0.291E+00 -.666E-01 0.134E+00
   -.114E+02 -.230E+01 -.187E+02   0.958E+01 0.216E+01 0.187E+02   0.168E+01 0.601E-01 -.289E-02
   0.172E+01 -.267E+01 0.419E+01   -.216E+01 0.331E+01 -.441E+01   0.436E+00 -.634E+00 0.238E+00
   0.102E+02 -.198E+01 0.426E+01   -.105E+02 0.212E+01 -.419E+01   0.394E+00 -.130E+00 -.699E-01
   -.381E+01 -.201E+01 0.248E+01   0.341E+01 0.216E+01 -.252E+01   0.339E+00 -.169E+00 0.425E-01
   -.494E+02 0.160E+02 0.195E+02   0.536E+02 -.167E+02 -.196E+02   -.396E+01 0.612E+00 0.114E+00
   -.311E+01 0.101E+02 -.891E+01   0.274E+01 -.111E+02 0.921E+01   0.399E+00 0.107E+01 -.323E+00
   0.657E+00 0.599E+00 0.996E+01   -.328E+00 -.710E+00 -.100E+02   -.240E+00 0.113E+00 0.727E-01
   -.106E+02 0.382E+00 0.118E+02   0.109E+02 -.503E+00 -.119E+02   -.364E+00 0.107E+00 0.161E-01
   -.145E+02 -.706E+01 0.157E+02   0.147E+02 0.723E+01 -.157E+02   -.136E+00 -.129E+00 0.412E-01
   -.157E+02 -.383E+01 0.206E+02   0.163E+02 0.382E+01 -.208E+02   -.538E+00 -.205E-01 0.196E+00
   -.986E+00 -.127E+01 0.961E+01   0.136E+01 0.122E+01 -.963E+01   -.327E+00 0.928E-01 0.256E-01
   -.743E+01 0.290E+01 0.102E+02   0.756E+01 -.303E+01 -.102E+02   -.137E+00 0.962E-01 0.560E-02
   -.745E+01 -.494E+00 0.742E+01   0.740E+01 0.570E+00 -.741E+01   -.319E-02 -.716E-01 0.123E-02
   -.303E+01 -.583E+01 0.115E+02   0.321E+01 0.600E+01 -.116E+02   -.166E+00 -.185E+00 0.695E-01
   0.465E+01 -.152E+01 0.106E+02   -.453E+01 0.152E+01 -.107E+02   -.414E-01 0.116E-01 0.555E-01
   0.572E+01 0.213E+02 0.151E+02   -.167E+01 -.270E+02 -.154E+02   -.429E+01 0.601E+01 0.294E+00
   -.370E+02 -.137E+02 0.273E+02   0.413E+02 0.200E+02 -.271E+02   -.431E+01 -.635E+01 -.654E-01
   -.245E+01 -.169E+02 -.597E+02   -.268E+01 0.255E+02 0.614E+02   0.503E+01 -.839E+01 -.162E+01
   0.311E+02 0.952E+01 0.320E+02   -.360E+02 -.153E+02 -.329E+02   0.523E+01 0.586E+01 0.102E+01
   0.180E+02 -.411E+02 0.359E+01   -.869E+01 0.568E+02 -.256E+01   -.877E+01 -.151E+02 -.102E+01
   -.177E+02 0.448E+02 0.808E+02   0.686E+01 -.638E+02 -.833E+02   0.998E+01 0.177E+02 0.253E+01
   -.192E+02 -.297E+02 0.215E+03   0.150E+02 0.370E+02 -.212E+03   0.389E+01 -.706E+01 -.339E+01
   0.297E+02 0.348E+02 -.715E+03   -.269E+02 -.386E+02 0.703E+03   -.195E+01 0.332E+01 0.106E+02
 -----------------------------------------------------------------------------------------------
   -.490E+01 0.320E+01 -.128E+02   -.234E-12 0.107E-12 -.114E-12   0.474E+01 -.345E+01 0.113E+02
 
 
 POSITION                                       TOTAL-FORCE (eV/Angst)
 -----------------------------------------------------------------------------------
      2.90891     12.48677      9.93073        -0.021876     -0.034510      0.001200
      0.68648      1.21584      9.91376        -0.020036      0.010863      0.010779
      1.49137     12.48688      9.91294         0.031698     -0.006432      0.007066
      3.52048      1.21309      9.94580         0.009988      0.067480      0.012642
      2.79553      2.42844      9.92458         0.027491     -0.037711      0.042500
      0.70153      3.71345      9.93770        -0.050487      0.011978     -0.009771
      1.38570      2.45434      9.91665         0.048552      0.017783      0.010888
      3.49162      3.65964      9.96275        -0.160953      0.215689      0.051957
      0.80308      6.22230      9.91513        -0.115629     -0.190281      0.019147
      1.45731      4.93521      9.93142         0.242429     -0.007988     -0.006822
      0.82737      8.72388      9.91630        -0.058927      0.032716     -0.000140
      1.56664      7.46417      9.90740         0.232458      0.206947     -0.000359
      3.62977      8.77547      9.93729        -0.244499     -0.116667     -0.014517
      2.92191     10.00855      9.93484        -0.030243     -0.008373      0.002587
      0.79634     11.23751      9.91219        -0.095952      0.047163      0.002392
      1.50550      9.98773      9.91833         0.078647     -0.053840     -0.004542
      3.61822     11.25647      9.94629         0.025581      0.041735     -0.000861
      7.06532      0.00508     10.00306        -0.045853     -0.055034      0.002739
      4.93572      1.25491     10.00522        -0.031458      0.021256     -0.024101
      5.64427      0.00639      9.99905         0.047804     -0.034732     -0.011857
      7.76143      1.24888     10.05552         0.023165      0.085131     -0.008644
      7.06736      2.49765     10.16319         0.060257     -0.090248     -0.016534
      5.61650      2.52884     10.06733        -0.041203     -0.052718     -0.025389
      7.14866      7.57160      9.94252        -0.048781      0.031319      0.017780
      5.06308      8.77453      9.96155         0.100243     -0.062269      0.000887
      7.86382      8.81224      9.94751        -0.003184      0.025942     -0.018196
      7.16128     10.04339      9.95788        -0.031379     -0.090060      0.001540
      5.03634     11.27361      9.96769        -0.040853      0.044436      0.001566
      5.74620     10.02873      9.96345         0.056413     -0.057683      0.004673
      7.86476     11.28333      9.96557         0.049992      0.038972      0.019211
     11.38854     12.50315      9.93494        -0.072961      0.015522      0.006587
      9.17972      1.25605     10.02463        -0.049926      0.021853     -0.003600
      9.88520      0.00384      9.96800         0.070825     -0.030176     -0.001976
     11.98949      1.23724      9.93176         0.039254      0.014706      0.005545
     11.29192      2.49621      9.96440        -0.027643     -0.003309      0.018107
      9.15309      3.76257     10.14433        -0.087378     -0.080071      0.014421
      9.87420      2.51092     10.02795         0.020523     -0.032811      0.029781
     12.00313      3.74313      9.96588         0.054028      0.004507     -0.007214
     11.31636      5.00954      9.98609        -0.053876     -0.034549      0.002560
      9.21817      6.30858      9.98494        -0.044588     -0.053757      0.012816
      9.88852      5.02373     10.05990         0.066508      0.184879     -0.040491
     12.08881      6.23797      9.93609         0.079971      0.012671      0.000660
     11.39650      7.49947      9.92430        -0.074894     -0.007452     -0.000021
      9.28035      8.78378      9.92735        -0.022152      0.040457      0.012918
      9.97604      7.52655      9.92761         0.033645     -0.033615      0.030712
     12.11718      8.73981      9.91602         0.033820      0.041122      0.003839
     11.40907      9.99797      9.91671        -0.032523     -0.022806      0.004860
      9.28137     11.27145      9.95161        -0.059209      0.005446      0.012473
      9.98960     10.02047      9.92600         0.006435     -0.031438      0.015868
     12.09865     11.24926      9.91576         0.085359      0.004811      0.010281
      2.99789      7.50714      9.89847        -0.453445      0.610406     -0.008380
      4.90111      3.77972     10.03147        -0.216716     -0.379783      0.176761
      7.74734      3.72603     10.32681         0.146841     -0.236971      0.005162
      5.71822      7.50013      9.95417         0.642095      0.358389      0.107841
      2.80734      4.85472      9.94514        -0.248374     -0.631597     -0.082785
      7.85816      6.38266      9.98357         0.022456      0.271229      0.261576
      4.26865      6.01835      9.74948        -0.568464      0.165542     -0.082864
      6.37353      5.31674     10.95860         0.716981     -0.174071     -0.573257
 -----------------------------------------------------------------------------------
    total drift:                                0.007557     -0.003142     -0.005158


--------------------------------------------------------------------------------------------------------



  FREE ENERGIE OF THE ION-ELECTRON SYSTEM (eV)
  ---------------------------------------------------
  free  energy   TOTEN  =      -606.21441248 eV

  energy  without entropy=     -606.21264977  energy(sigma->0) =     -606.21353113
 


--------------------------------------------------------------------------------------------------------


    POTLOK:  cpu time    3.4703: real time    3.4706


--------------------------------------------------------------------------------------------------------


 stress matrix after NEB project (eV)
    -19.45470      7.53249      0.90818
      7.53214    -51.60520     -0.37659
      0.91707     -0.38022     -0.83748
  FORCES: max atom, RMS     0.934337    0.258342
  FORCE total and by dimension    1.967473    0.716981
  Stress total and by dimension   56.193483   51.605204
 writing wavefunctions
     LOOP+:  cpu time22632.4455: real time22642.2347
    4ORBIT:  cpu time    0.0000: real time    0.0000
 


 total charge     
 
# of ion       s       p       d       tot
------------------------------------------
    1        0.870   1.783   0.000   2.653
    2        0.868   1.781   0.000   2.650
    3        0.867   1.771   0.000   2.638
    4        0.872   1.784   0.000   2.656
    5        0.875   1.810   0.000   2.685
    6        0.866   1.777   0.000   2.643
    7        0.871   1.776   0.000   2.648
    8        0.876   1.741   0.000   2.617
    9        0.858   1.744   0.000   2.602
   10        0.862   1.739   0.000   2.601
   11        0.862   1.743   0.000   2.605
   12        0.856   1.715   0.000   2.571
   13        0.877   1.768   0.000   2.645
   14        0.871   1.780   0.000   2.651
   15        0.867   1.772   0.000   2.639
   16        0.866   1.767   0.000   2.633
   17        0.870   1.781   0.000   2.651
   18        0.869   1.777   0.000   2.646
   19        0.865   1.764   0.000   2.629
   20        0.866   1.766   0.000   2.633
   21        0.870   1.773   0.000   2.643
   22        0.871   1.748   0.000   2.619
   23        0.864   1.713   0.000   2.577
   24        0.866   1.722   0.000   2.588
   25        0.874   1.742   0.000   2.616
   26        0.870   1.790   0.000   2.661
   27        0.872   1.784   0.000   2.656
   28        0.867   1.770   0.000   2.637
   29        0.868   1.779   0.000   2.647
   30        0.869   1.781   0.000   2.650
   31        0.867   1.772   0.000   2.639
   32        0.866   1.765   0.000   2.631
   33        0.868   1.773   0.000   2.641
   34        0.867   1.771   0.000   2.639
   35        0.865   1.762   0.000   2.627
   36        0.860   1.726   0.000   2.586
   37        0.866   1.755   0.000   2.621
   38        0.864   1.765   0.000   2.630
   39        0.860   1.742   0.000   2.602
   40        0.859   1.725   0.000   2.584
   41        0.856   1.741   0.000   2.597
   42        0.859   1.744   0.000   2.603
   43        0.864   1.763   0.000   2.627
   44        0.869   1.767   0.000   2.636
   45        0.865   1.772   0.000   2.636
   46        0.863   1.754   0.000   2.617
   47        0.865   1.764   0.000   2.629
   48        0.867   1.770   0.000   2.637
   49        0.866   1.773   0.000   2.639
   50        0.867   1.769   0.000   2.636
   51        0.871   1.653   0.000   2.524
   52        0.857   1.676   0.000   2.533
   53        0.878   1.684   0.000   2.562
   54        0.857   1.670   0.000   2.527
   55        1.237   2.708   0.000   3.946
   56        1.240   2.702   0.000   3.942
   57        0.480   0.520   6.284   7.283
   58        2.235   6.170   1.095   9.500
--------------------------------------------------
tot         51.983 106.901   7.379 166.264
 


 magnetization (x)
 
# of ion       s       p       d       tot
------------------------------------------
    1       -0.000  -0.003   0.000  -0.004
    2       -0.000  -0.008   0.000  -0.009
    3        0.000   0.003   0.000   0.003
    4        0.000   0.003   0.000   0.003
    5       -0.001  -0.007   0.000  -0.008
    6       -0.000  -0.005   0.000  -0.006
    7       -0.000  -0.005   0.000  -0.006
    8        0.002   0.014   0.000   0.016
    9       -0.002  -0.036   0.000  -0.038
   10       -0.000  -0.011   0.000  -0.011
   11       -0.001  -0.010   0.000  -0.011
   12        0.001   0.016   0.000   0.017
   13        0.001   0.006   0.000   0.007
   14       -0.001  -0.012   0.000  -0.013
   15       -0.001  -0.009   0.000  -0.010
   16        0.001   0.011   0.000   0.012
   17       -0.000  -0.007   0.000  -0.008
   18       -0.001  -0.015   0.000  -0.016
   19       -0.001  -0.009   0.000  -0.010
   20        0.000   0.002   0.000   0.002
   21        0.000   0.002   0.000   0.002
   22       -0.001  -0.017   0.000  -0.018
   23        0.001  -0.003   0.000  -0.002
   24        0.000   0.004   0.000   0.004
   25       -0.001  -0.008   0.000  -0.009
   26       -0.000   0.001   0.000   0.001
   27        0.000   0.001   0.000   0.002
   28       -0.000  -0.008   0.000  -0.009
   29       -0.000  -0.005   0.000  -0.005
   30        0.000   0.004   0.000   0.004
   31       -0.000  -0.007   0.000  -0.007
   32       -0.000  -0.002   0.000  -0.002
   33        0.000   0.001   0.000   0.001
   34        0.000  -0.000   0.000  -0.000
   35       -0.001  -0.010   0.000  -0.011
   36       -0.000  -0.005   0.000  -0.005
   37        0.000   0.005   0.000   0.005
   38        0.000   0.001   0.000   0.002
   39       -0.001  -0.014   0.000  -0.015
   40       -0.002  -0.031   0.000  -0.033
   41       -0.001  -0.017   0.000  -0.017
   42        0.000  -0.002   0.000  -0.001
   43       -0.001  -0.010   0.000  -0.011
   44       -0.001  -0.019   0.000  -0.021
   45        0.001   0.007   0.000   0.008
   46        0.000  -0.000   0.000   0.000
   47       -0.001  -0.012   0.000  -0.013
   48       -0.000  -0.007   0.000  -0.007
   49        0.000   0.001   0.000   0.001
   50        0.000   0.004   0.000   0.005
   51       -0.017  -0.097   0.000  -0.114
   52       -0.003  -0.037   0.000  -0.040
   53       -0.001  -0.009   0.000  -0.009
   54       -0.005  -0.036   0.000  -0.042
   55       -0.008  -0.086   0.000  -0.094
   56       -0.002  -0.042   0.000  -0.044
   57        0.020   0.001   2.048   2.069
   58       -0.005  -0.008  -0.075  -0.088
--------------------------------------------------
tot         -0.030  -0.545   1.973   1.398
 

 total amount of memory used by VASP MPI-rank0   182489. kBytes
=======================================================================

   base      :      30000. kBytes
   nonl-proj :       5324. kBytes
   fftplans  :      14250. kBytes
   grid      :      36827. kBytes
   one-center:         62. kBytes
   HF        :         23. kBytes
   nonlr-proj:      18549. kBytes
   wavefun   :      77454. kBytes
 
  
  
 General timing and accounting informations for this job:
 ========================================================
  
                  Total CPU time used (sec):    22724.572
                            User time (sec):    22690.562
                          System time (sec):       34.010
                         Elapsed time (sec):    22735.580
  
                   Maximum memory used (kb):      429924.
                   Average memory used (kb):           0.
  
                          Minor page faults:       185170
                          Major page faults:            0
                 Voluntary context switches:         1367
