 vasp.5.4.4.18Apr17-6-g9f103f2a35 (build Feb 25 2019 10:51:38) complex          
  
 executed on             LinuxIFC date 2021.06.17  13:25:57
 running on   48 total cores
 distrk:  each k-point on   24 cores,    2 groups
 distr:  one band on NCORES_PER_BAND=  24 cores,    1 groups


--------------------------------------------------------------------------------------------------------


 INCAR:
 POTCAR:    PAW_PBE C 08Apr2002                   
 POTCAR:    PAW_PBE N 08Apr2002                   
 POTCAR:    PAW_PBE Fe 06Sep2000                  
 POTCAR:    PAW_PBE V 08Apr2002                   

 ----------------------------------------------------------------------------- 
|                                                                             |
|           W    W    AA    RRRRR   N    N  II  N    N   GGGG   !!!           |
|           W    W   A  A   R    R  NN   N  II  NN   N  G    G  !!!           |
|           W    W  A    A  R    R  N N  N  II  N N  N  G       !!!           |
|           W WW W  AAAAAA  RRRRR   N  N N  II  N  N N  G  GGG   !            |
|           WW  WW  A    A  R   R   N   NN  II  N   NN  G    G                |
|           W    W  A    A  R    R  N    N  II  N    N   GGGG   !!!           |
|                                                                             |
|      For optimal performance we recommend to set                            |
|        NCORE= 4 - approx SQRT( number of cores)                             |
|      NCORE specifies how many cores store one orbital (NPAR=cpu/NCORE).     |
|      This setting can  greatly improve the performance of VASP for DFT.     |
|      The default,   NCORE=1            might be grossly inefficient         |
|      on modern multi-core architectures or massively parallel machines.     |
|      Do your own testing !!!!                                               |
|      Unfortunately you need to use the default for GW and RPA calculations. |
|      (for HF NCORE is supported but not extensively tested yet)             |
|                                                                             |
 ----------------------------------------------------------------------------- 


 ----------------------------------------------------------------------------- 
|                                                                             |
|           W    W    AA    RRRRR   N    N  II  N    N   GGGG   !!!           |
|           W    W   A  A   R    R  NN   N  II  NN   N  G    G  !!!           |
|           W    W  A    A  R    R  N N  N  II  N N  N  G       !!!           |
|           W WW W  AAAAAA  RRRRR   N  N N  II  N  N N  G  GGG   !            |
|           WW  WW  A    A  R   R   N   NN  II  N   NN  G    G                |
|           W    W  A    A  R    R  N    N  II  N    N   GGGG   !!!           |
|                                                                             |
|      You have enabled k-point parallelism (KPAR>1).                         |
|      This developmental code was originally  written by Paul Kent at ORNL,  |
|      and carefully double checked in Vienna.                                |
|      GW as well as linear response parallelism added by Martijn Marsman     |
|      and Georg Kresse.                                                      |
|      Carefully verify results versus KPAR=1.                                |
|      Report problems to Paul Kent and Vienna.                               |
|                                                                             |
 ----------------------------------------------------------------------------- 

 POTCAR:    PAW_PBE C 08Apr2002                   
   VRHFIN =C: s2p2                                                              
   LEXCH  = PE                                                                  
   EATOM  =   147.1560 eV,   10.8157 Ry                                         
                                                                                
   TITEL  = PAW_PBE C 08Apr2002                                                 
   LULTRA =        F    use ultrasoft PP ?                                      
   IUNSCR =        1    unscreen: 0-lin 1-nonlin 2-no                           
   RPACOR =    1.200    partial core radius                                     
   POMASS =   12.011; ZVAL   =    4.000    mass and valenz                      
   RCORE  =    1.500    outmost cutoff radius                                   
   RWIGS  =    1.630; RWIGS  =    0.863    wigner-seitz radius (au A)           
   ENMAX  =  400.000; ENMIN  =  300.000 eV                                      
   ICORE  =        2    local potential                                         
   LCOR   =        T    correct aug charges                                     
   LPAW   =        T    paw PP                                                  
   EAUG   =  644.873                                                            
   DEXC   =    0.000                                                            
   RMAX   =    1.529    core radius for proj-oper                               
   RAUG   =    1.300    factor for augmentation sphere                          
   RDEP   =    1.501    radius for radial grids                                 
   RDEPT  =    1.300    core radius for aug-charge                              
                                                                                
   Atomic configuration                                                         
    4 entries                                                                   
     n  l   j            E        occ.                                          
     1  0  0.50      -273.3789   2.0000                                         
     2  0  0.50       -13.7508   2.0000                                         
     2  1  0.50        -5.2854   2.0000                                         
     3  2  1.50        -5.4423   0.0000                                         
   Description                                                                  
     l       E           TYP  RCUT    TYP  RCUT                                 
     0    -13.7508458     23  1.200                                             
     0     -8.2022199     23  1.200                                             
     1     -5.2854383     23  1.500                                             
     1     34.0145650     23  1.500                                             
     2     -5.4423304      7  1.500                                             
  local pseudopotential read in
  partial core-charges read in
  partial kinetic energy density read in
  atomic valenz-charges read in
  non local Contribution for L=           0  read in
    real space projection operators read in
  non local Contribution for L=           0  read in
    real space projection operators read in
  non local Contribution for L=           1  read in
    real space projection operators read in
  non local Contribution for L=           1  read in
    real space projection operators read in
    PAW grid and wavefunctions read in
 
   number of l-projection  operators is LMAX  =           4
   number of lm-projection operators is LMMAX =           8
 
 POTCAR:    PAW_PBE N 08Apr2002                   
   VRHFIN =N: s2p3                                                              
   LEXCH  = PE                                                                  
   EATOM  =   264.5486 eV,   19.4438 Ry                                         
                                                                                
   TITEL  = PAW_PBE N 08Apr2002                                                 
   LULTRA =        F    use ultrasoft PP ?                                      
   IUNSCR =        1    unscreen: 0-lin 1-nonlin 2-no                           
   RPACOR =    1.200    partial core radius                                     
   POMASS =   14.001; ZVAL   =    5.000    mass and valenz                      
   RCORE  =    1.500    outmost cutoff radius                                   
   RWIGS  =    1.400; RWIGS  =    0.741    wigner-seitz radius (au A)           
   ENMAX  =  400.000; ENMIN  =  300.000 eV                                      
   ICORE  =        2    local potential                                         
   LCOR   =        T    correct aug charges                                     
   LPAW   =        T    paw PP                                                  
   EAUG   =  627.112                                                            
   DEXC   =    0.000                                                            
   RMAX   =    1.529    core radius for proj-oper                               
   RAUG   =    1.300    factor for augmentation sphere                          
   RDEP   =    1.514    radius for radial grids                                 
   RDEPT  =    1.338    core radius for aug-charge                              
                                                                                
   Atomic configuration                                                         
    4 entries                                                                   
     n  l   j            E        occ.                                          
     1  0  0.50      -384.7179   2.0000                                         
     2  0  0.50       -18.5828   2.0000                                         
     2  1  0.50        -7.0898   3.0000                                         
     3  2  1.50        -6.8029   0.0000                                         
   Description                                                                  
     l       E           TYP  RCUT    TYP  RCUT                                 
     0    -18.5828119     23  1.200                                             
     0    -13.5018863     23  1.200                                             
     1     -7.0897853     23  1.500                                             
     1      9.5240782     23  1.500                                             
     2     -6.8029130      7  1.500                                             
  local pseudopotential read in
  partial core-charges read in
  partial kinetic energy density read in
  atomic valenz-charges read in
  non local Contribution for L=           0  read in
    real space projection operators read in
  non local Contribution for L=           0  read in
    real space projection operators read in
  non local Contribution for L=           1  read in
    real space projection operators read in
  non local Contribution for L=           1  read in
    real space projection operators read in
    PAW grid and wavefunctions read in
 
   number of l-projection  operators is LMAX  =           4
   number of lm-projection operators is LMMAX =           8
 
 POTCAR:    PAW_PBE Fe 06Sep2000                  
   VRHFIN =Fe:  d7 s1                                                           
   LEXCH  = PE                                                                  
   EATOM  =   594.3153 eV,   43.6809 Ry                                         
                                                                                
   TITEL  = PAW_PBE Fe 06Sep2000                                                
   LULTRA =        F    use ultrasoft PP ?                                      
   IUNSCR =        1    unscreen: 0-lin 1-nonlin 2-no                           
   RPACOR =    2.000    partial core radius                                     
   POMASS =   55.847; ZVAL   =    8.000    mass and valenz                      
   RCORE  =    2.300    outmost cutoff radius                                   
   RWIGS  =    2.460; RWIGS  =    1.302    wigner-seitz radius (au A)           
   ENMAX  =  267.882; ENMIN  =  200.911 eV                                      
   RCLOC  =    1.701    cutoff for local pot                                    
   LCOR   =        T    correct aug charges                                     
   LPAW   =        T    paw PP                                                  
   EAUG   =  511.368                                                            
   DEXC   =    0.000                                                            
   RMAX   =    2.356    core radius for proj-oper                               
   RAUG   =    1.300    factor for augmentation sphere                          
   RDEP   =    2.442    radius for radial grids                                 
   RDEPT  =    1.890    core radius for aug-charge                              
                                                                                
   Atomic configuration                                                         
    9 entries                                                                   
     n  l   j            E        occ.                                          
     1  0  0.50     -6993.8440   2.0000                                         
     2  0  0.50      -814.6047   2.0000                                         
     2  1  1.50      -693.3689   6.0000                                         
     3  0  0.50       -89.4732   2.0000                                         
     3  1  1.50       -55.6373   6.0000                                         
     3  2  2.50        -3.8151   7.0000                                         
     4  0  0.50        -4.2551   1.0000                                         
     4  1  1.50        -3.4015   0.0000                                         
     4  3  2.50        -1.3606   0.0000                                         
   Description                                                                  
     l       E           TYP  RCUT    TYP  RCUT                                 
     2     -3.8151135     23  2.300                                             
     2     -5.1756961     23  2.300                                             
     0     -4.2550963     23  2.300                                             
     0      7.2035603     23  2.300                                             
     1     -2.7211652     23  2.300                                             
     1     18.4316424     23  2.300                                             
  local pseudopotential read in
  partial core-charges read in
  partial kinetic energy density read in
  atomic valenz-charges read in
  non local Contribution for L=           2  read in
    real space projection operators read in
  non local Contribution for L=           2  read in
    real space projection operators read in
  non local Contribution for L=           0  read in
    real space projection operators read in
  non local Contribution for L=           0  read in
    real space projection operators read in
  non local Contribution for L=           1  read in
    real space projection operators read in
  non local Contribution for L=           1  read in
    real space projection operators read in
    PAW grid and wavefunctions read in
 
   number of l-projection  operators is LMAX  =           6
   number of lm-projection operators is LMMAX =          18
 
 POTCAR:    PAW_PBE V 08Apr2002                   
   VRHFIN =V: p6 d4 s1                                                          
   LEXCH  = PE                                                                  
   EATOM  =   170.8679 eV,   12.5584 Ry                                         
                                                                                
   TITEL  = PAW_PBE V 08Apr2002                                                 
   LULTRA =        F    use ultrasoft PP ?                                      
   IUNSCR =        1    unscreen: 0-lin 1-nonlin 2-no                           
   RPACOR =    2.000    partial core radius                                     
   POMASS =   50.941; ZVAL   =    5.000    mass and valenz                      
   RCORE  =    2.700    outmost cutoff radius                                   
   RWIGS  =    2.500; RWIGS  =    1.323    wigner-seitz radius (au A)           
   ENMAX  =  192.543; ENMIN  =  144.408 eV                                      
   RCLOC  =    1.779    cutoff for local pot                                    
   LCOR   =        T    correct aug charges                                     
   LPAW   =        T    paw PP                                                  
   EAUG   =  358.662                                                            
   DEXC   =    0.000                                                            
   RMAX   =    2.768    core radius for proj-oper                               
   RAUG   =    1.300    factor for augmentation sphere                          
   RDEP   =    2.762    radius for radial grids                                 
   RDEPT  =    2.240    core radius for aug-charge                              
                                                                                
   Atomic configuration                                                         
    9 entries                                                                   
     n  l   j            E        occ.                                          
     1  0  0.50     -5360.7193   2.0000                                         
     2  0  0.50      -598.4546   2.0000                                         
     2  1  1.50      -499.0155   6.0000                                         
     3  0  0.50       -66.5711   2.0000                                         
     3  1  1.50       -40.5282   6.0000                                         
     3  2  2.50        -2.4291   4.0000                                         
     4  0  0.50        -3.8743   1.0000                                         
     4  1  0.50        -2.7212   0.0000                                         
     4  3  2.50        -1.3606   0.0000                                         
   Description                                                                  
     l       E           TYP  RCUT    TYP  RCUT                                 
     2     -2.4290901     23  2.700                                             
     2     -3.7896727     23  2.700                                             
     0     -3.8742752     23  2.700                                             
     0     27.2116520     23  2.700                                             
     1     -2.7211652     23  2.700                                             
     1     27.2116520     23  2.700                                             
  local pseudopotential read in
  partial core-charges read in
  partial kinetic energy density read in
  atomic valenz-charges read in
  non local Contribution for L=           2  read in
    real space projection operators read in
  non local Contribution for L=           2  read in
    real space projection operators read in
  non local Contribution for L=           0  read in
    real space projection operators read in
  non local Contribution for L=           0  read in
    real space projection operators read in
  non local Contribution for L=           1  read in
    real space projection operators read in
  non local Contribution for L=           1  read in
    real space projection operators read in
    PAW grid and wavefunctions read in
 
   number of l-projection  operators is LMAX  =           6
   number of lm-projection operators is LMMAX =          18
 

 ----------------------------------------------------------------------------- 
|                                                                             |
|  ADVICE TO THIS USER RUNNING 'VASP/VAMP'   (HEAR YOUR MASTER'S VOICE ...):  |
|                                                                             |
|      You have a (more or less) 'large supercell' and for larger cells       |
|      it might be more efficient to use real space projection opertators     |
|      So try LREAL= Auto  in the INCAR   file.                               |
|      Mind:          For very  accurate calculation you might also keep the  |
|      reciprocal projection scheme          (i.e. LREAL=.FALSE.)             |
|                                                                             |
 ----------------------------------------------------------------------------- 

  PAW_PBE C 08Apr2002                   :
 energy of atom  1       EATOM= -147.1560
 kinetic energy error for atom=    0.0076 (will be added to EATOM!!)
  PAW_PBE N 08Apr2002                   :
 energy of atom  2       EATOM= -264.5486
 kinetic energy error for atom=    0.0138 (will be added to EATOM!!)
  PAW_PBE Fe 06Sep2000                  :
 energy of atom  3       EATOM= -594.3153
 kinetic energy error for atom=    0.0026 (will be added to EATOM!!)
  PAW_PBE V 08Apr2002                   :
 energy of atom  4       EATOM= -170.8679
 kinetic energy error for atom=    0.0003 (will be added to EATOM!!)
 
 
 POSCAR:  C  N Fe  V                             
  positions in cartesian coordinates
  No initial velocities read in
 exchange correlation table for  LEXCH =        8
   RHO(1)=    0.500       N(1)  =     2000
   RHO(2)=  100.500       N(2)  =     4000

 VTST: version 3.2, (02/03/18)

 CHAIN: initializing optimizer
 
 OPT: Using VASP Conjugate-Gradient optimizer
 CHAIN: Read ICHAIN            0
 
 POSCAR:  C  N Fe  V                             
  positions in cartesian coordinates
  No initial velocities read in
 


--------------------------------------------------------------------------------------------------------


 ion  position               nearest neighbor table
   1  0.222  0.002  0.500-  19 1.42   4 1.42   3 1.43
   2  0.057  0.102  0.500-   3 1.42  33 1.43   7 1.43
   3  0.110  0.002  0.500-   2 1.42  17 1.42   1 1.43
   4  0.279  0.103  0.500-  21 1.42   1 1.42   5 1.43
   5  0.226  0.205  0.500-   4 1.43   7 1.43   8 1.44
   6  0.058  0.303  0.500-   7 1.42  11 1.43  37 1.44
   7  0.113  0.203  0.500-   6 1.42   2 1.43   5 1.43
   8  0.286  0.306  0.500-  50 1.39   5 1.44   9 1.45
   9  0.230  0.408  0.500-  49 1.39   8 1.45  11 1.45
  10  0.057  0.501  0.500-  14 1.42  11 1.43  40 1.44
  11  0.116  0.403  0.500-   6 1.43  10 1.43   9 1.45
  12  0.226  0.600  0.500-  49 1.38  15 1.43  14 1.44
  13  0.055  0.700  0.500-  18 1.41  14 1.43  44 1.44
  14  0.113  0.601  0.500-  10 1.42  13 1.43  12 1.44
  15  0.279  0.702  0.500-  52 1.37  16 1.42  12 1.43
  16  0.222  0.801  0.500-  19 1.42  15 1.42  18 1.43
  17  0.054  0.901  0.500-  18 1.42   3 1.42  48 1.43
  18  0.110  0.801  0.500-  13 1.41  17 1.42  16 1.43
  19  0.277  0.902  0.500-  16 1.42  27 1.42   1 1.42
  20  0.555  0.999  0.500-  22 1.41  23 1.42  29 1.43
  21  0.390  0.103  0.500-  25 1.42   4 1.42  22 1.43
  22  0.444  0.001  0.500-  20 1.41  27 1.42  21 1.43
  23  0.611  0.100  0.500-  31 1.42  20 1.42  24 1.42
  24  0.558  0.202  0.500-  51 1.37  23 1.42  25 1.44
  25  0.445  0.204  0.500-  50 1.39  21 1.42  24 1.44
  26  0.554  0.795  0.500-  53 1.38  29 1.43  28 1.44
  27  0.389  0.900  0.500-  22 1.42  19 1.42  28 1.43
  28  0.441  0.798  0.500-  52 1.37  27 1.43  26 1.44
  29  0.609  0.898  0.500-  46 1.42  20 1.43  26 1.43
  30  0.888  0.000  0.500-  48 1.42  32 1.42  33 1.43
  31  0.722  0.100  0.500-  23 1.42  32 1.42  36 1.42
  32  0.776  0.999  0.500-  31 1.42  30 1.42  46 1.43
  33  0.944  0.101  0.500-  34 1.43  30 1.43   2 1.43
  34  0.889  0.202  0.500-  37 1.42  33 1.43  36 1.43
  35  0.718  0.300  0.500-  51 1.37  36 1.43  39 1.45
  36  0.777  0.201  0.500-  31 1.42  34 1.43  35 1.43
  37  0.945  0.302  0.500-  34 1.42  38 1.42   6 1.44
  38  0.888  0.401  0.500-  40 1.42  37 1.42  39 1.44
  39  0.774  0.403  0.500-  54 1.36  38 1.44  35 1.45
  40  0.944  0.501  0.500-  38 1.42  41 1.43  10 1.44
  41  0.885  0.599  0.500-  44 1.42  40 1.43  43 1.45
  42  0.712  0.695  0.500-  53 1.38  47 1.45  43 1.46
  43  0.771  0.594  0.500-  54 1.36  41 1.45  42 1.46
  44  0.942  0.699  0.500-  45 1.42  41 1.42  13 1.44
  45  0.886  0.798  0.500-  44 1.42  48 1.43  47 1.44
  46  0.720  0.898  0.500-  29 1.42  47 1.43  32 1.43
  47  0.773  0.796  0.500-  46 1.43  45 1.44  42 1.45
  48  0.942  0.899  0.500-  30 1.42  17 1.43  45 1.43
  49  0.285  0.506  0.500-  12 1.38   9 1.39  56 2.39
  50  0.395  0.304  0.500-  25 1.39   8 1.39  55 1.99
  51  0.611  0.300  0.500-  35 1.37  24 1.37  55 2.04
  52  0.387  0.702  0.500-  28 1.37  15 1.37  56 2.10
  53  0.603  0.695  0.500-  26 1.38  42 1.38  56 2.44
  54  0.718  0.497  0.500-  43 1.36  39 1.36
  55  0.503  0.421  0.499-  56 1.69  50 1.99  51 2.04
  56  0.468  0.553  0.500-  55 1.69  52 2.10  49 2.39  53 2.44
 
  LATTYP: Found a triclinic cell.
 ALAT       =    17.7762245877
 B/A-ratio  =     0.6912660188
 C/A-ratio  =     1.1426667063
 COS(alpha) =     0.0001431170
 COS(beta)  =     0.0002314030
 COS(gamma) =     0.6980919229
  
  Lattice vectors:
  
 A1 = (  12.8456405402, -12.2875416461,   0.0000000000)
 A2 = (   0.1171405402, -12.2875416461,   0.0000000000)
 A3 = (   0.0037578750,  -0.0028713426, -20.3122994494)


Analysis of symmetry for initial positions (statically):
=====================================================================
 Subroutine PRICEL returns:
 Original cell was already a primitive cell.
 

 Routine SETGRP: Setting up the symmetry group for a 
 triclinic supercell.


 Subroutine GETGRP returns: Found  1 space group operations
 (whereof  1 operations were pure point group operations)
 out of a pool of  2 trial point group operations.


The static configuration has the point symmetry C_1 .


Analysis of symmetry for dynamics (positions and initial velocities):
=====================================================================
 Subroutine PRICEL returns:
 Original cell was already a primitive cell.
 

 Routine SETGRP: Setting up the symmetry group for a 
 triclinic supercell.


 Subroutine GETGRP returns: Found  1 space group operations
 (whereof  1 operations were pure point group operations)
 out of a pool of  2 trial point group operations.


The dynamic configuration has the point symmetry C_1 .


Analysis of structural, dynamic, and magnetic symmetry:
=====================================================================
 Subroutine PRICEL returns:
 Original cell was already a primitive cell.
 

 Routine SETGRP: Setting up the symmetry group for a 
 triclinic supercell.


 Subroutine GETGRP returns: Found  1 space group operations
 (whereof  1 operations were pure point group operations)
 out of a pool of  2 trial point group operations.


The magnetic configuration has the point symmetry C_1 .


 Subroutine INISYM returns: Found  1 space group operations
 (whereof  1 operations are pure point group operations),
 and found     1 'primitive' translations

 
 
 KPOINTS: KPOINTS created by Atomic Simulation Env

Automatic generation of k-mesh.
Space group operators:
 irot       det(A)        alpha          n_x          n_y          n_z        tau_x        tau_y        tau_z
    1     1.000000     0.000000     1.000000     0.000000     0.000000     0.000000     0.000000     0.000000
 
 Subroutine IBZKPT returns following result:
 ===========================================
 
 Found      2 irreducible k-points:
 
 Following reciprocal coordinates:
            Coordinates               Weight
  0.250000  0.250000 -0.000000      2.000000
 -0.250000  0.250000  0.000000      2.000000
 
 Following cartesian coordinates:
            Coordinates               Weight
  0.019641  0.020533  0.000001      2.000000
 -0.019641  0.020159 -0.000006      2.000000
 
 
 Subroutine IBZKPT_HF returns following result:
 ==============================================
 
 Found      4 k-points in 1st BZ
 the following      4 k-points will be used (e.g. in the exchange kernel)
 Following reciprocal coordinates:   # in IRBZ
  0.250000  0.250000 -0.000000    0.25000000   1 t-inv F
 -0.250000  0.250000  0.000000    0.25000000   2 t-inv F
 -0.250000 -0.250000  0.000000    0.25000000   1 t-inv T
  0.250000 -0.250000  0.000000    0.25000000   2 t-inv T


--------------------------------------------------------------------------------------------------------




 Dimension of arrays:
   k-points           NKPTS =      2   k-points in BZ     NKDIM =      4   number of bands    NBANDS=    150
   number of dos      NEDOS =    301   number of ions     NIONS =     56
   non local maximal  LDIM  =      6   non local SUM 2l+1 LMDIM =     18
   total plane-waves  NPLWV = ******
   max r-space proj   IRMAX =      1   max aug-charges    IRDMAX=  24936
   dimension x,y,z NGX =    96 NGY =   90 NGZ =  150
   dimension x,y,z NGXF=   192 NGYF=  180 NGZF=  300
   support grid    NGXF=   192 NGYF=  180 NGZF=  300
   ions per type =              48   6   1   1
   NGX,Y,Z   is equivalent  to a cutoff of  12.54, 12.18, 12.28 a.u.
   NGXF,Y,Z  is equivalent  to a cutoff of  25.08, 24.35, 24.55 a.u.

 SYSTEM =  unknown system                          
 POSCAR =   C  N Fe  V                             

 Startparameter for this run:
   NWRITE =      2    write-flag & timer
   PREC   = accura    normal or accurate (medium, high low for compatibility)
   ISTART =      1    job   : 0-new  1-cont  2-samecut
   ICHARG =      0    charge: 1-file 2-atom 10-const
   ISPIN  =      2    spin polarized calculation?
   LNONCOLLINEAR =      F non collinear calculations
   LSORBIT =      F    spin-orbit coupling
   INIWAV =      1    electr: 0-lowe 1-rand  2-diag
   LASPH  =      T    aspherical Exc in radial PAW
   METAGGA=      F    non-selfconsistent MetaGGA calc.

 Electronic Relaxation 1
   ENCUT  =  500.0 eV  36.75 Ry    6.06 a.u.  23.21 22.40 37.03*2*pi/ulx,y,z
   ENINI  =  500.0     initial cutoff
   ENAUG  =  644.9 eV  augmentation charge cutoff
   NELM   =    250;   NELMIN=  2; NELMDL=  0     # of ELM steps 
   EDIFF  = 0.1E-03   stopping-criterion for ELM
   LREAL  =      F    real-space projection
   NLSPLINE    = F    spline interpolate recip. space projectors
   LCOMPAT=      F    compatible to vasp.4.4
   GGA_COMPAT  = T    GGA compatible to vasp.4.4-vasp.4.6
   LMAXPAW     = -100 max onsite density
   LMAXMIX     =    2 max onsite mixed and CHGCAR
   VOSKOWN=      0    Vosko Wilk Nusair interpolation
   ROPT   =    0.00000   0.00000   0.00000   0.00000
 Ionic relaxation
   EDIFFG = -.3E-01   stopping-criterion for IOM
   NSW    =      0    number of steps for IOM
   NBLOCK =      1;   KBLOCK =      1    inner block; outer block 
   IBRION =     -1    ionic relax: 0-MD 1-quasi-New 2-CG
   NFREE  =      1    steps in history (QN), initial steepest desc. (CG)
   ISIF   =      2    stress and relaxation
   IWAVPR =     10    prediction:  0-non 1-charg 2-wave 3-comb
   ISYM   =      3    0-nonsym 1-usesym 2-fastsym
   LCORR  =      T    Harris-Foulkes like correction to forces

   POTIM  = 0.5000    time-step for ionic-motion
   TEIN   =    0.0    initial temperature
   TEBEG  =    0.0;   TEEND  =   0.0 temperature during run
   SMASS  =  -3.00    Nose mass-parameter (am)
   estimated Nose-frequenzy (Omega)   =  0.10E-29 period in steps =****** mass=  -0.370E-26a.u.
   SCALEE = 1.0000    scale energy and forces
   NPACO  =    256;   APACO  = 16.0  distance and # of slots for P.C.
   PSTRESS=    0.0 pullay stress

  Mass of Ions in am
   POMASS =  12.01 14.00 55.85 50.94
  Ionic Valenz
   ZVAL   =   4.00  5.00  8.00  5.00
  Atomic Wigner-Seitz radii
   RWIGS  =  -1.00 -1.00 -1.00 -1.00
  virtual crystal weights 
   VCA    =   1.00  1.00  1.00  1.00
   NELECT =     235.0000    total number of electrons
   NUPDOWN=      -1.0000    fix difference up-down

 DOS related values:
   EMIN   =  10.00;   EMAX   =-10.00  energy-range for DOS
   EFERMI =   0.00
   ISMEAR =     0;   SIGMA  =   0.10  broadening in eV -4-tet -1-fermi 0-gaus

 Electronic relaxation 2 (details)
   IALGO  =     53    algorithm
   LDIAG  =      T    sub-space diagonalisation (order eigenvalues)
   LSUBROT=      F    optimize rotation matrix (better conditioning)
   TURBO    =      0    0=normal 1=particle mesh
   IRESTART =      0    0=no restart 2=restart with 2 vectors
   NREBOOT  =      0    no. of reboots
   NMIN     =      0    reboot dimension
   EREF     =   0.00    reference energy to select bands
   IMIX   =      4    mixing-type and parameters
     AMIX     =   0.40;   BMIX     =  1.00
     AMIX_MAG =   1.60;   BMIX_MAG =  1.00
     AMIN     =   0.10
     WC   =   100.;   INIMIX=   1;  MIXPRE=   1;  MAXMIX= -45

 Intra band minimization:
   WEIMIN = 0.0000     energy-eigenvalue tresh-hold
   EBREAK =  0.17E-06  absolut break condition
   DEPER  =   0.30     relativ break condition  

   TIME   =   0.20     timestep for ELM

  volume/ion in A,a.u.               =      56.73       382.83
  Fermi-wavevector in a.u.,A,eV,Ry     =   0.687222  1.298661  6.425678  0.472274
  Thomas-Fermi vector in A             =   1.767675
 
 Write flags
   LWAVE        =      T    write WAVECAR
   LDOWNSAMPLE  =      F    k-point downsampling of WAVECAR
   LCHARG       =      T    write CHGCAR
   LVTOT        =      F    write LOCPOT, total local potential
   LVHAR        =      F    write LOCPOT, Hartree potential only
   LELF         =      F    write electronic localiz. function (ELF)
   LORBIT       =     11    0 simple, 1 ext, 2 COOP (PROOUT), +10 PAW based schemes


 Dipole corrections
   LMONO  =      F    monopole corrections only (constant potential shift)
   LDIPOL =      T    correct potential (dipole corrections)
   IDIPOL =      3    1-x, 2-y, 3-z, 4-all directions 
   EPSILON=  1.0000000 bulk dielectric constant

 Exchange correlation treatment:
   GGA     =    PE    GGA type
   LEXCH   =     8    internal setting for exchange type
   VOSKOWN=      0    Vosko Wilk Nusair interpolation
   EXXOEP  =     0    0=HF, 1=EXX-LHF (local Hartree Fock) 2=EXX OEP
   LHFCALC =     T    Hartree Fock is set to
   LSYMGRAD=     F    symmetrize gradient (conserves proper symmetry)
   PRECFOCK=normal    Normal, Fast or Accurate (Low or Medium for compatibility)
   LRHFCALC=     F    long range Hartree Fock
   LRSCOR  =     F    long range correlation only (use DFT for short range part)
   LTHOMAS =     F    Thomas Fermi screening in HF
   LMODELHF=     F    short range full HF, long range fraction AEXX
   ENCUT4O =  -1.0   cutoff for four orbital integrals eV
   LMAXFOCK=     4    L truncation for augmentation on plane wave grid
   LMAXFOCKAE=  -1    L truncation for all-electron charge restoration on plane wave grid
   NMAXFOCKAE=   1    number of basis functions for all-electron charge restoration
   LFOCKAEDFT=     F  apply the AE augmentation even for DFT
   NKREDX  =     1    reduce k-point grid by
   NKREDY  =     1    reduce k-point grid by
   NKREDZ  =     1    reduce k-point grid by
   SHIFTRED=     F    shift reduced grid of Gamma
   HFKIDENT=     F    idential grid for each k-point
   ODDONLY =     F    use only odd q-grid points
   EVENONLY=     F    use only even q-grid points
   HFALPHA =   -1.0000 decay constant for conv. correction
   MCALPHA =    0.0000 extent of test-charge in conv. correction in multipole expansion
   AEXX    =    0.2500 exact exchange contribution
   HFSCREEN=    0.2000 screening length (either q_TF or 0.3 A-1)
   HFSCREENC=   0.2000 screening length for correlation (either q_TF or 0.3 A-1)
   HFRCUT  =    0.0000 spherical cutoff for potential kernel
   ALDAX   =    0.7500 LDA exchange part
   AGGAX   =    0.7500 GGA exchange part
   ALDAC   =    1.0000 LDA correlation
   AGGAC   =    1.0000 GGA correlation
   ENCUTFOCK=  -1.0 apply spherical cutoff to Coloumb kernel
   NBANDSGWLOW=     1    first orbital included in HF term
   NBLOCK_FOCK=    64    blocking factor in FOCK_ACC
 Linear response parameters
   LEPSILON=     F    determine dielectric tensor
   LRPA    =     F    only Hartree local field effects (RPA)
   LNABLA  =     F    use nabla operator in PAW spheres
   LVEL    =     F    velocity operator in full k-point grid
   LINTERFAST=   F  fast interpolation
   KINTER  =     0    interpolate to denser k-point grid
   CSHIFT  =0.1000    complex shift for real part using Kramers Kronig
   OMEGAMAX=  -1.0    maximum frequency
   DEG_THRESHOLD= 0.2000000E-02 threshold for treating states as degnerate
   RTIME   =   -0.100 relaxation time in fs
  (WPLASMAI=    0.000 imaginary part of plasma frequency in eV, 0.658/RTIME)
   DFIELD  = 0.0000000 0.0000000 0.0000000 field for delta impulse in time
 
 Orbital magnetization related:
   ORBITALMAG=     F  switch on orbital magnetization
   LCHIMAG   =     F  perturbation theory with respect to B field
   DQ        =  0.001000  dq finite difference perturbation B field
   LLRAUG    =     F  two centre corrections for induced B field



--------------------------------------------------------------------------------------------------------


 Static calculation
 charge density and potential will be updated during run
 spin polarized calculation
 Conjugate gradient for all bands (Freysoldt, et al. PRB 79, 241103 (2009))
 perform sub-space diagonalisation
    before iterative eigenvector-optimisation
 modified Broyden-mixing scheme, WC =      100.0
 initial mixing is a Kerker type mixing with AMIX =  0.4000 and BMIX =      1.0000
 Hartree-type preconditioning will be used
 using additional bands           32
 reciprocal scheme for non local part
 use partial core corrections
 no Harris-corrections to forces 
 use gradient corrections 
 use of overlap-Matrix (Vanderbilt PP)
 Gauss-broadening in eV      SIGMA  =   0.10


--------------------------------------------------------------------------------------------------------


  energy-cutoff  :      500.00
  volume of cell :     3176.88
      direct lattice vectors                 reciprocal lattice vectors
    12.728500000  0.000000000  0.000000000     0.078563853  0.000748971  0.000014429
    -0.117140540 12.287541646  0.000000000     0.000000000  0.081383244 -0.000011504
    -0.003757875  0.002871343 20.312299449     0.000000000  0.000000000  0.049231255

  length of vectors
    12.728500000 12.288100000 20.312300000     0.078567424  0.081383245  0.049231255


 
 old parameters found on file WAVECAR:
  energy-cutoff  :      500.00
  volume of cell :     3176.88
      direct lattice vectors                 reciprocal lattice vectors
    12.728500000  0.000000000  0.000000000     0.078563853  0.000748971  0.000014429
    -0.117140540 12.287541646  0.000000000     0.000000000  0.081383244 -0.000011504
    -0.003757875  0.002871343 20.312299449     0.000000000  0.000000000  0.049231255

  length of vectors

 
 k-points in units of 2pi/SCALE and weight: KPOINTS created by Atomic Simulation Env
   0.01964096  0.02053305  0.00000073       0.500
  -0.01964096  0.02015857 -0.00000648       0.500
 
 k-points in reciprocal lattice and weights: KPOINTS created by Atomic Simulation Env
   0.25000000  0.25000000 -0.00000000       0.500
  -0.25000000  0.25000000  0.00000000       0.500
 
 position of ions in fractional coordinates (direct lattice) 
   0.22240879  0.00247402  0.49994301
   0.05655511  0.10231768  0.50004303
   0.11036444  0.00165448  0.49999836
   0.27870291  0.10318263  0.49989817
   0.22615439  0.20521500  0.49994001
   0.05843858  0.30310624  0.50003870
   0.11347640  0.20346173  0.50002577
   0.28581740  0.30561613  0.49987654
   0.23031426  0.40771867  0.50001108
   0.05667090  0.50125599  0.50002892
   0.11608600  0.40326737  0.50003371
   0.22554232  0.59981898  0.50006581
   0.05468812  0.70006629  0.49999849
   0.11273552  0.60128509  0.50004171
   0.27948533  0.70236012  0.50002416
   0.22175997  0.80111265  0.49998901
   0.05429265  0.90076717  0.49999242
   0.10968011  0.80065155  0.49998896
   0.27699231  0.90191908  0.49994837
   0.55494075  0.99917552  0.49995590
   0.39038669  0.10260884  0.49985510
   0.44442988  0.00113575  0.49991372
   0.61065021  0.10015881  0.49995952
   0.55800512  0.20191850  0.49983712
   0.44499735  0.20394451  0.49976805
   0.55437694  0.79508789  0.50000897
   0.38865070  0.90044221  0.49994409
   0.44130457  0.79843408  0.49998061
   0.60880529  0.89754018  0.50000460
   0.88834218  0.00014370  0.50005071
   0.72210537  0.09976818  0.50004137
   0.77647842  0.99916976  0.50004770
   0.94435182  0.10123977  0.50007926
   0.88923133  0.20165494  0.50008040
   0.71844130  0.30029811  0.49994494
   0.77684609  0.20140373  0.50005622
   0.94524469  0.30197721  0.50003981
   0.88751821  0.40055218  0.49997503
   0.77434423  0.40328069  0.49992786
   0.94377484  0.50051195  0.49997496
   0.88492325  0.59884481  0.49995243
   0.71201479  0.69547640  0.49997002
   0.77086202  0.59365441  0.49991942
   0.94169752  0.69886349  0.49996290
   0.88555240  0.79802218  0.49996957
   0.72024549  0.89794988  0.50001735
   0.77258074  0.79589813  0.49998231
   0.94212761  0.89942139  0.50000231
   0.28511744  0.50627195  0.50006224
   0.39494307  0.30369326  0.49967379
   0.61113677  0.29972600  0.49978214
   0.38729682  0.70169058  0.49999276
   0.60320459  0.69505481  0.50001483
   0.71825734  0.49695948  0.49987562
   0.50328979  0.42127522  0.49900339
   0.46782888  0.55309062  0.49998676
 
 position of ions in cartesian coordinates  (Angst):
   2.82876170  0.03183517 10.15499216
   0.70599709  1.25866860 10.15702368
   1.40270108  0.02176513 10.15611639
   3.53350459  1.26929630 10.15408127
   2.85268843  2.52302333 10.15493124
   0.70645038  3.72586630 10.15693574
   1.41867170  2.50148018 10.15667319
   3.60034824  3.75670623 10.15364203
   2.88191565  5.01129584 10.15637481
   0.66073905  6.16063964 10.15673717
   1.42848257  4.95660034 10.15683452
   2.79867311  7.37173653 10.15748639
   0.61221263  8.60352941 10.15611902
   1.36264015  7.38975144 10.15699699
   3.47327520  8.63171500 10.15664057
   2.72695014  9.84514067 10.15592645
   0.58366869 11.06964979 10.15599572
   1.30039565  9.83947487 10.15592539
   3.41816663 11.08380384 10.15510094
   6.94464065 12.27884630 10.15525393
   4.95513897  1.26224564 10.15320643
   5.65491406  0.01539094 10.15439711
   7.75904978  1.23214109 10.15532744
   7.07703706  2.48251723 10.15284121
   5.63838051  2.50741161 10.15143838
   6.96137089  9.77111127 10.15633184
   4.83958336 11.06565666 10.15501408
   5.52173733  9.81222758 10.15575578
   7.64216087 11.02999803 10.15624322
  11.30536742  0.00320158 10.15717967
   9.17775219  1.22734143 10.15699014
   9.76448316 12.27877591 10.15711866
  12.00644367  1.24542376 10.15775958
  11.29307974  2.47927940 10.15778284
   9.10762422  3.69136105 10.15503142
   9.86261374  2.47619259 10.15729171
  11.99429413  3.71199333 10.15695836
  11.24797580  4.92323717 10.15564254
   9.80712140  4.95676369 10.15468439
  11.95232891  6.15149704 10.15564107
  11.19171778  7.35976602 10.15518350
   8.97953300  8.54713085 10.15554080
   9.74049764  7.29598874 10.15451299
  11.90265284  8.58874985 10.15539620
  11.17639419  9.80716635 10.15553153
   9.06057934 11.03503223 10.15650206
   9.73868309  9.78106702 10.15579036
  11.88463367 11.05311350 10.15619674
   3.56793322  6.22227356 10.15741406
   4.98958041  3.73307825 10.14952356
   7.74186620  3.68433078 10.15172453
   4.84563227  8.62348785 10.15600265
   7.59459152  8.54195065 10.15645095
   9.08224593  6.10784562 10.15362327
   6.35490050  5.17786963 10.13590636
   5.88809165  6.79755971 10.15588078
 


--------------------------------------------------------------------------------------------------------


 k-point  1 :   0.2500 0.2500-0.0000  plane waves:   80658
 k-point  2 :  -0.2500 0.2500 0.0000  plane waves:   80622

 maximum and minimum number of plane-waves per node :      3397     3333

 maximum number of plane-waves:     80658
 maximum index in each direction: 
   IXMAX=   23   IYMAX=   22   IZMAX=   37
   IXMIN=  -23   IYMIN=  -22   IZMIN=  -37


 parallel 3D FFT for wavefunctions:
    minimum data exchange during FFTs selected (reduces bandwidth)
 parallel 3D FFT for charge:
    minimum data exchange during FFTs selected (reduces bandwidth)


 FFT grid for exact exchange (Hartree Fock) 
  NGX = 70; NGY = 70; NGZ =112

 
 Radii for the augmentation spheres in the non-local exchange
 for species   1 augmentation radius   0.874 (default was   0.699)
       energy cutoff for augmentation   2000.0
 for species   2 augmentation radius   0.886 (default was   0.709)
       energy cutoff for augmentation   2000.0
 for species   3 augmentation radius   1.263 (default was   1.010)
       energy cutoff for augmentation   2000.0
 for species   4 augmentation radius   1.508 (default was   1.206)
       energy cutoff for augmentation   2000.0

 real space projection operators:
  total allocation   :       2594.23 KBytes
  max/ min on nodes  :        163.26         36.14

 Maximum index for augmentation-charges in exchange           65
  SETUP_FOCK is finished

 total amount of memory used by VASP MPI-rank0   202246. kBytes
=======================================================================

   base      :      30000. kBytes
   nonl-proj :       6973. kBytes
   fftplans  :      17535. kBytes
   grid      :      46049. kBytes
   one-center:         93. kBytes
   HF        :         46. kBytes
   nonlr-proj:       2508. kBytes
   wavefun   :      99042. kBytes
 
     INWAV:  cpu time    3.3879: real time    5.8310
 Broyden mixing: mesh for mixing (old mesh)
   NGX = 47   NGY = 45   NGZ = 75
  (NGX  =192   NGY  =180   NGZ  =300)
  gives a total of 158625 points

 charge density for first step will be calculated from the start-wavefunctions


--------------------------------------------------------------------------------------------------------


 Maximum index for augmentation-charges          911 (set IRDMAX)


--------------------------------------------------------------------------------------------------------


 initial charge from wavefunction
 First call to EWALD:  gamma=   0.121
 Maximum number of real-space cells 3x 3x 2
 Maximum number of reciprocal cells 2x 2x 4

    FEWALD:  cpu time    0.0025: real time    0.0025


--------------------------------------- Iteration      1(   1)  ---------------------------------------


    POTLOK:  cpu time    2.0399: real time    2.0437
    SETDIJ:  cpu time    2.0804: real time    2.0815
    TRIAL :  cpu time  310.4636: real time  310.8165
    CORREC:  cpu time    0.0010: real time    0.0010
    CHARGE:  cpu time    1.3282: real time    1.3287
    --------------------------------------------
      LOOP:  cpu time  315.9482: real time  316.3080

 eigenvalue-minimisations  :     0
 total energy-change (2. order) :-0.5864428E+03  (-0.4019848E+00)
 number of electron     235.0000014 magnetization      -0.3481472
 augmentation part       12.1474660 magnetization      -0.1448765

 DIPCOR: dipole corrections for dipol
 direction  3 min pos     1,
 dipolmoment          -0.000000      0.000000      0.000565 electrons x Angstroem
 Tr[quadrupol]     -6011.085381

 energy correction for charged system         0.000000 eV
 dipol+quadrupol energy correction            0.000000 eV
 added-field ion interaction          0.000000 eV  (added to PSCEN)


 Free energy of the ion-electron system (eV)
  ---------------------------------------------------
  alpha Z        PSCENC =        93.45915054
  Ewald energy   TEWEN  =     38033.53170843
  -Hartree energ DENC   =    -46047.30690996
  -exchange      EXHF   =       532.08230377
  -V(xc)+E(xc)   XCENC  =       566.18921730
  PAW double counting   =     25313.09074448   -25309.60011703
  entropy T*S    EENTRO =        -0.05839400
  eigenvalues    EBANDS =     -3073.17806972
  atomic energy  EATOM  =      9305.35219883
  ---------------------------------------------------
  free energy    TOTEN  =      -586.44282875 eV

  energy without entropy =     -586.38443475  energy(sigma->0) =     -586.41363175
  exchange ACFDT corr.  =        -0.16856622  see jH, gK, PRB 81, 115126


--------------------------------------------------------------------------------------------------------




--------------------------------------- Iteration      1(   2)  ---------------------------------------


    POTLOK:  cpu time    2.0593: real time    2.0604
    SETDIJ:  cpu time    2.0809: real time    2.0831
    TRIAL :  cpu time  311.1659: real time  311.4210
    CORREC:  cpu time    0.0010: real time    0.0010
    CHARGE:  cpu time    1.3253: real time    1.3261
    --------------------------------------------
      LOOP:  cpu time  316.6336: real time  316.8949

 eigenvalue-minimisations  :     0
 total energy-change (2. order) :-0.2969303E+00  (-0.3269792E+00)
 number of electron     235.0000014 magnetization      -0.4249178
 augmentation part       12.1093116 magnetization      -0.1716841

 DIPCOR: dipole corrections for dipol
 direction  3 min pos     1,
 dipolmoment          -0.000000      0.000000      0.000383 electrons x Angstroem
 Tr[quadrupol]     -6010.869142

 energy correction for charged system         0.000000 eV
 dipol+quadrupol energy correction            0.000000 eV
 added-field ion interaction          0.000000 eV  (added to PSCEN)


 Free energy of the ion-electron system (eV)
  ---------------------------------------------------
  alpha Z        PSCENC =        93.45915054
  Ewald energy   TEWEN  =     38033.53170843
  -Hartree energ DENC   =    -46031.52839595
  -exchange      EXHF   =       531.88940161
  -V(xc)+E(xc)   XCENC  =       565.85851644
  PAW double counting   =     25430.57658507   -25426.53845792
  entropy T*S    EENTRO =        -0.05410844
  eigenvalues    EBANDS =     -3089.28207212
  atomic energy  EATOM  =      9305.35219883
  ---------------------------------------------------
  free energy    TOTEN  =      -586.73975907 eV

  energy without entropy =     -586.68565063  energy(sigma->0) =     -586.71270485
  exchange ACFDT corr.  =        -0.17581382  see jH, gK, PRB 81, 115126


--------------------------------------------------------------------------------------------------------




--------------------------------------- Iteration      1(   3)  ---------------------------------------


    POTLOK:  cpu time    2.0815: real time    2.0829
    SETDIJ:  cpu time    2.0821: real time    2.0832
    TRIAL :  cpu time  311.0554: real time  311.3263
    CORREC:  cpu time    0.0010: real time    0.0010
    CHARGE:  cpu time    1.3248: real time    1.3265
    --------------------------------------------
      LOOP:  cpu time  316.5461: real time  316.8239

 eigenvalue-minimisations  :     0
 total energy-change (2. order) :-0.2523125E+00  (-0.2006774E+00)
 number of electron     235.0000013 magnetization      -0.4942422
 augmentation part       12.1216613 magnetization      -0.1894255

 DIPCOR: dipole corrections for dipol
 direction  3 min pos     1,
 dipolmoment          -0.000000      0.000000      0.001336 electrons x Angstroem
 Tr[quadrupol]     -6010.677967

 energy correction for charged system         0.000000 eV
 dipol+quadrupol energy correction            0.000000 eV
 added-field ion interaction          0.000000 eV  (added to PSCEN)


 Free energy of the ion-electron system (eV)
  ---------------------------------------------------
  alpha Z        PSCENC =        93.45915059
  Ewald energy   TEWEN  =     38033.53170843
  -Hartree energ DENC   =    -46012.65391746
  -exchange      EXHF   =       531.66334871
  -V(xc)+E(xc)   XCENC  =       565.39343610
  PAW double counting   =     25572.32146694   -25567.82307181
  entropy T*S    EENTRO =        -0.04952243
  eigenvalues    EBANDS =     -3108.18228345
  atomic energy  EATOM  =      9305.35219883
  ---------------------------------------------------
  free energy    TOTEN  =      -586.99207156 eV

  energy without entropy =     -586.94254913  energy(sigma->0) =     -586.96731034
  exchange ACFDT corr.  =        -0.16386936  see jH, gK, PRB 81, 115126


--------------------------------------------------------------------------------------------------------




--------------------------------------- Iteration      1(   4)  ---------------------------------------


    POTLOK:  cpu time    2.0939: real time    2.0960
    SETDIJ:  cpu time    2.0726: real time    2.0746
    TRIAL :  cpu time  311.2227: real time  311.4829
    CORREC:  cpu time    0.0010: real time    0.0010
    CHARGE:  cpu time    1.3279: real time    1.3289
    --------------------------------------------
      LOOP:  cpu time  316.7193: real time  316.9873

 eigenvalue-minimisations  :     0
 total energy-change (2. order) :-0.1559128E+00  (-0.1342315E+00)
 number of electron     235.0000013 magnetization      -0.6050728
 augmentation part       12.1191997 magnetization      -0.2297983

 DIPCOR: dipole corrections for dipol
 direction  3 min pos     1,
 dipolmoment          -0.000000      0.000000      0.001714 electrons x Angstroem
 Tr[quadrupol]     -6010.625326

 energy correction for charged system         0.000000 eV
 dipol+quadrupol energy correction            0.000000 eV
 added-field ion interaction          0.000000 eV  (added to PSCEN)


 Free energy of the ion-electron system (eV)
  ---------------------------------------------------
  alpha Z        PSCENC =        93.45915062
  Ewald energy   TEWEN  =     38033.53170843
  -Hartree energ DENC   =    -46005.83829392
  -exchange      EXHF   =       531.71431344
  -V(xc)+E(xc)   XCENC  =       565.22748564
  PAW double counting   =     25694.12399635   -25689.75706564
  entropy T*S    EENTRO =        -0.04187995
  eigenvalues    EBANDS =     -3114.91195567
  atomic energy  EATOM  =      9305.35219883
  ---------------------------------------------------
  free energy    TOTEN  =      -587.14798436 eV

  energy without entropy =     -587.10610441  energy(sigma->0) =     -587.12704438
  exchange ACFDT corr.  =        -0.15828322  see jH, gK, PRB 81, 115126


--------------------------------------------------------------------------------------------------------




--------------------------------------- Iteration      1(   5)  ---------------------------------------


    POTLOK:  cpu time    2.0900: real time    2.0910
    SETDIJ:  cpu time    2.0857: real time    2.0876
    TRIAL :  cpu time  310.8742: real time  311.1454
    CORREC:  cpu time    0.0010: real time    0.0010
    CHARGE:  cpu time    1.3235: real time    1.3255
    --------------------------------------------
      LOOP:  cpu time  316.3775: real time  316.6567

 eigenvalue-minimisations  :     0
 total energy-change (2. order) :-0.1144243E+00  (-0.1045650E+00)
 number of electron     235.0000013 magnetization      -0.7116426
 augmentation part       12.1156011 magnetization      -0.2690227

 DIPCOR: dipole corrections for dipol
 direction  3 min pos     1,
 dipolmoment          -0.000000      0.000000      0.002031 electrons x Angstroem
 Tr[quadrupol]     -6010.653303

 energy correction for charged system         0.000000 eV
 dipol+quadrupol energy correction            0.000000 eV
 added-field ion interaction          0.000000 eV  (added to PSCEN)


 Free energy of the ion-electron system (eV)
  ---------------------------------------------------
  alpha Z        PSCENC =        93.45915065
  Ewald energy   TEWEN  =     38033.53170843
  -Hartree energ DENC   =    -46007.48326052
  -exchange      EXHF   =       531.99629699
  -V(xc)+E(xc)   XCENC  =       565.32408527
  PAW double counting   =     25782.85384282   -25778.53059297
  entropy T*S    EENTRO =        -0.03335150
  eigenvalues    EBANDS =     -3113.72395826
  atomic energy  EATOM  =      9305.35219883
  ---------------------------------------------------
  free energy    TOTEN  =      -587.26240871 eV

  energy without entropy =     -587.22905721  energy(sigma->0) =     -587.24573296
  exchange ACFDT corr.  =        -0.10232716  see jH, gK, PRB 81, 115126


--------------------------------------------------------------------------------------------------------




--------------------------------------- Iteration      1(   6)  ---------------------------------------


    POTLOK:  cpu time    2.0841: real time    2.0856
    SETDIJ:  cpu time    2.0933: real time    2.0943
    TRIAL :  cpu time  310.1336: real time  310.3876
    CORREC:  cpu time    0.0010: real time    0.0010
    CHARGE:  cpu time    1.3286: real time    1.3304
    --------------------------------------------
      LOOP:  cpu time  315.6417: real time  315.9046

 eigenvalue-minimisations  :     0
 total energy-change (2. order) :-0.9120825E-01  (-0.8410272E-01)
 number of electron     235.0000013 magnetization      -0.7872769
 augmentation part       12.1234529 magnetization      -0.2949157

 DIPCOR: dipole corrections for dipol
 direction  3 min pos     1,
 dipolmoment          -0.000000      0.000000      0.002390 electrons x Angstroem
 Tr[quadrupol]     -6010.706268

 energy correction for charged system         0.000000 eV
 dipol+quadrupol energy correction            0.000000 eV
 added-field ion interaction          0.000000 eV  (added to PSCEN)


 Free energy of the ion-electron system (eV)
  ---------------------------------------------------
  alpha Z        PSCENC =        93.45915070
  Ewald energy   TEWEN  =     38033.53170843
  -Hartree energ DENC   =    -46011.54776664
  -exchange      EXHF   =       532.31987461
  -V(xc)+E(xc)   XCENC  =       565.49760068
  PAW double counting   =     25840.35888606   -25836.02188022
  entropy T*S    EENTRO =        -0.02633524
  eigenvalues    EBANDS =     -3110.27003791
  atomic energy  EATOM  =      9305.35219883
  ---------------------------------------------------
  free energy    TOTEN  =      -587.35361696 eV

  energy without entropy =     -587.32728171  energy(sigma->0) =     -587.34044934
  exchange ACFDT corr.  =        -0.06869156  see jH, gK, PRB 81, 115126


--------------------------------------------------------------------------------------------------------




--------------------------------------- Iteration      1(   7)  ---------------------------------------


    POTLOK:  cpu time    2.0761: real time    2.0793
    SETDIJ:  cpu time    2.0946: real time    2.0955
    TRIAL :  cpu time  310.8183: real time  311.7605
    CORREC:  cpu time    0.0009: real time    0.0009
    CHARGE:  cpu time    1.3214: real time    1.3227
    --------------------------------------------
      LOOP:  cpu time  316.3125: real time  317.2642

 eigenvalue-minimisations  :     0
 total energy-change (2. order) :-0.7650112E-01  (-0.7235458E-01)
 number of electron     235.0000013 magnetization      -0.8426975
 augmentation part       12.1335477 magnetization      -0.3141147

 DIPCOR: dipole corrections for dipol
 direction  3 min pos     1,
 dipolmoment          -0.000000      0.000000      0.002619 electrons x Angstroem
 Tr[quadrupol]     -6010.752826

 energy correction for charged system         0.000000 eV
 dipol+quadrupol energy correction            0.000000 eV
 added-field ion interaction          0.000000 eV  (added to PSCEN)


 Free energy of the ion-electron system (eV)
  ---------------------------------------------------
  alpha Z        PSCENC =        93.45915073
  Ewald energy   TEWEN  =     38033.53170843
  -Hartree energ DENC   =    -46015.04072435
  -exchange      EXHF   =       532.58078065
  -V(xc)+E(xc)   XCENC  =       565.64986810
  PAW double counting   =     25874.37433863   -25870.11164007
  entropy T*S    EENTRO =        -0.02065068
  eigenvalues    EBANDS =     -3107.19946378
  atomic energy  EATOM  =      9305.35219883
  ---------------------------------------------------
  free energy    TOTEN  =      -587.43011808 eV

  energy without entropy =     -587.40946740  energy(sigma->0) =     -587.41979274
  exchange ACFDT corr.  =        -0.04792803  see jH, gK, PRB 81, 115126


--------------------------------------------------------------------------------------------------------




--------------------------------------- Iteration      1(   8)  ---------------------------------------


    POTLOK:  cpu time    2.0762: real time    2.0779
    SETDIJ:  cpu time    2.0992: real time    2.1014
    TRIAL :  cpu time  309.8218: real time  310.0753
    CORREC:  cpu time    0.0009: real time    0.0009
    CHARGE:  cpu time    1.3204: real time    1.3213
    --------------------------------------------
      LOOP:  cpu time  315.3195: real time  315.5805

 eigenvalue-minimisations  :     0
 total energy-change (2. order) :-0.6663886E-01  (-0.6274805E-01)
 number of electron     235.0000013 magnetization      -0.8867330
 augmentation part       12.1399813 magnetization      -0.3311430

 DIPCOR: dipole corrections for dipol
 direction  3 min pos     1,
 dipolmoment          -0.000001      0.000000      0.002777 electrons x Angstroem
 Tr[quadrupol]     -6010.779059

 energy correction for charged system         0.000000 eV
 dipol+quadrupol energy correction            0.000000 eV
 added-field ion interaction          0.000000 eV  (added to PSCEN)


 Free energy of the ion-electron system (eV)
  ---------------------------------------------------
  alpha Z        PSCENC =        93.45915076
  Ewald energy   TEWEN  =     38033.53170843
  -Hartree energ DENC   =    -46016.92862839
  -exchange      EXHF   =       532.76728840
  -V(xc)+E(xc)   XCENC  =       565.75779394
  PAW double counting   =     25892.80893908   -25888.64140073
  entropy T*S    EENTRO =        -0.01579448
  eigenvalues    EBANDS =     -3105.58315658
  atomic energy  EATOM  =      9305.35219883
  ---------------------------------------------------
  free energy    TOTEN  =      -587.49675694 eV

  energy without entropy =     -587.48096246  energy(sigma->0) =     -587.48885970
  exchange ACFDT corr.  =        -0.03396108  see jH, gK, PRB 81, 115126


--------------------------------------------------------------------------------------------------------




--------------------------------------- Iteration      1(   9)  ---------------------------------------


    POTLOK:  cpu time    2.0702: real time    2.0713
    SETDIJ:  cpu time    2.0937: real time    2.0948
    TRIAL :  cpu time  309.7344: real time  309.9892
    CORREC:  cpu time    0.0009: real time    0.0009
    CHARGE:  cpu time    1.3215: real time    1.3222
    --------------------------------------------
      LOOP:  cpu time  315.2220: real time  315.4824

 eigenvalue-minimisations  :     0
 total energy-change (2. order) :-0.5832623E-01  (-0.5494865E-01)
 number of electron     235.0000013 magnetization      -0.9209480
 augmentation part       12.1435830 magnetization      -0.3462361

 DIPCOR: dipole corrections for dipol
 direction  3 min pos     1,
 dipolmoment          -0.000001      0.000000      0.002910 electrons x Angstroem
 Tr[quadrupol]     -6010.788876

 energy correction for charged system         0.000000 eV
 dipol+quadrupol energy correction            0.000000 eV
 added-field ion interaction          0.000000 eV  (added to PSCEN)


 Free energy of the ion-electron system (eV)
  ---------------------------------------------------
  alpha Z        PSCENC =        93.45915078
  Ewald energy   TEWEN  =     38033.53170843
  -Hartree energ DENC   =    -46017.57576875
  -exchange      EXHF   =       532.90355907
  -V(xc)+E(xc)   XCENC  =       565.83351175
  PAW double counting   =     25901.88661909   -25897.78303661
  entropy T*S    EENTRO =        -0.01175652
  eigenvalues    EBANDS =     -3105.14723128
  atomic energy  EATOM  =      9305.35219883
  ---------------------------------------------------
  free energy    TOTEN  =      -587.55508317 eV

  energy without entropy =     -587.54332665  energy(sigma->0) =     -587.54920491
  exchange ACFDT corr.  =        -0.02008045  see jH, gK, PRB 81, 115126


--------------------------------------------------------------------------------------------------------




--------------------------------------- Iteration      1(  10)  ---------------------------------------


    POTLOK:  cpu time    2.0662: real time    2.0681
    SETDIJ:  cpu time    2.0946: real time    2.0959
    TRIAL :  cpu time  309.2838: real time  309.5307
    CORREC:  cpu time    0.0010: real time    0.0010
    CHARGE:  cpu time    1.3217: real time    1.3227
    --------------------------------------------
      LOOP:  cpu time  314.7710: real time  315.0246

 eigenvalue-minimisations  :     0
 total energy-change (2. order) :-0.5136356E-01  (-0.4819531E-01)
 number of electron     235.0000013 magnetization      -0.9457360
 augmentation part       12.1466493 magnetization      -0.3587694

 DIPCOR: dipole corrections for dipol
 direction  3 min pos     1,
 dipolmoment          -0.000001      0.000000      0.003026 electrons x Angstroem
 Tr[quadrupol]     -6010.791777

 energy correction for charged system         0.000000 eV
 dipol+quadrupol energy correction            0.000000 eV
 added-field ion interaction          0.000000 eV  (added to PSCEN)


 Free energy of the ion-electron system (eV)
  ---------------------------------------------------
  alpha Z        PSCENC =        93.45915080
  Ewald energy   TEWEN  =     38033.53170843
  -Hartree energ DENC   =    -46017.70958515
  -exchange      EXHF   =       533.01346911
  -V(xc)+E(xc)   XCENC  =       565.89403778
  PAW double counting   =     25905.79351985   -25901.72968673
  entropy T*S    EENTRO =        -0.00862587
  eigenvalues    EBANDS =     -3105.19950313
  atomic energy  EATOM  =      9305.35219883
  ---------------------------------------------------
  free energy    TOTEN  =      -587.60644672 eV

  energy without entropy =     -587.59782086  energy(sigma->0) =     -587.60213379
  exchange ACFDT corr.  =        -0.01367604  see jH, gK, PRB 81, 115126


--------------------------------------------------------------------------------------------------------




--------------------------------------- Iteration      1(  11)  ---------------------------------------


    POTLOK:  cpu time    2.0618: real time    2.0627
    SETDIJ:  cpu time    2.0952: real time    2.0965
    TRIAL :  cpu time  308.7134: real time  308.9687
    CORREC:  cpu time    0.0009: real time    0.0009
    CHARGE:  cpu time    1.3219: real time    1.3230
    --------------------------------------------
      LOOP:  cpu time  314.1955: real time  314.4575

 eigenvalue-minimisations  :     0
 total energy-change (2. order) :-0.4532324E-01  (-0.4244321E-01)
 number of electron     235.0000013 magnetization      -0.9627523
 augmentation part       12.1501721 magnetization      -0.3688092

 DIPCOR: dipole corrections for dipol
 direction  3 min pos     1,
 dipolmoment          -0.000001      0.000000      0.003126 electrons x Angstroem
 Tr[quadrupol]     -6010.793601

 energy correction for charged system         0.000000 eV
 dipol+quadrupol energy correction            0.000000 eV
 added-field ion interaction          0.000000 eV  (added to PSCEN)


 Free energy of the ion-electron system (eV)
  ---------------------------------------------------
  alpha Z        PSCENC =        93.45915081
  Ewald energy   TEWEN  =     38033.53170843
  -Hartree energ DENC   =    -46017.76119981
  -exchange      EXHF   =       533.11040809
  -V(xc)+E(xc)   XCENC  =       565.94877671
  PAW double counting   =     25907.21578847   -25903.18647079
  entropy T*S    EENTRO =        -0.00633225
  eigenvalues    EBANDS =     -3105.31350485
  atomic energy  EATOM  =      9305.35219883
  ---------------------------------------------------
  free energy    TOTEN  =      -587.65176996 eV

  energy without entropy =     -587.64543771  energy(sigma->0) =     -587.64860384
  exchange ACFDT corr.  =        -0.00969431  see jH, gK, PRB 81, 115126


--------------------------------------------------------------------------------------------------------




--------------------------------------- Iteration      1(  12)  ---------------------------------------


    POTLOK:  cpu time    2.0577: real time    2.0604
    SETDIJ:  cpu time    2.0958: real time    2.0970
    TRIAL :  cpu time  308.2632: real time  308.5092
    CORREC:  cpu time    0.0009: real time    0.0009
    CHARGE:  cpu time    1.3300: real time    1.3308
    --------------------------------------------
      LOOP:  cpu time  313.7488: real time  314.0030

 eigenvalue-minimisations  :     0
 total energy-change (2. order) :-0.4018159E-01  (-0.3760728E-01)
 number of electron     235.0000013 magnetization      -0.9741133
 augmentation part       12.1538858 magnetization      -0.3770572

 DIPCOR: dipole corrections for dipol
 direction  3 min pos     1,
 dipolmoment          -0.000001      0.000000      0.003212 electrons x Angstroem
 Tr[quadrupol]     -6010.795775

 energy correction for charged system         0.000000 eV
 dipol+quadrupol energy correction            0.000000 eV
 added-field ion interaction          0.000000 eV  (added to PSCEN)


 Free energy of the ion-electron system (eV)
  ---------------------------------------------------
  alpha Z        PSCENC =        93.45915083
  Ewald energy   TEWEN  =     38033.53170843
  -Hartree energ DENC   =    -46017.85168728
  -exchange      EXHF   =       533.19989117
  -V(xc)+E(xc)   XCENC  =       566.00087923
  PAW double counting   =     25907.89174056   -25903.90062030
  entropy T*S    EENTRO =        -0.00470698
  eigenvalues    EBANDS =     -3105.36888077
  atomic energy  EATOM  =      9305.35219883
  ---------------------------------------------------
  free energy    TOTEN  =      -587.69195155 eV

  energy without entropy =     -587.68724457  energy(sigma->0) =     -587.68959806
  exchange ACFDT corr.  =        -0.00619811  see jH, gK, PRB 81, 115126


--------------------------------------------------------------------------------------------------------




--------------------------------------- Iteration      1(  13)  ---------------------------------------


    POTLOK:  cpu time    2.0536: real time    2.0546
    SETDIJ:  cpu time    2.0958: real time    2.0969
    TRIAL :  cpu time  308.1536: real time  308.4061
    CORREC:  cpu time    0.0010: real time    0.0010
    CHARGE:  cpu time    1.3320: real time    1.3329
    --------------------------------------------
      LOOP:  cpu time  313.6379: real time  313.8971

 eigenvalue-minimisations  :     0
 total energy-change (2. order) :-0.3579766E-01  (-0.3347864E-01)
 number of electron     235.0000013 magnetization      -0.9816282
 augmentation part       12.1572181 magnetization      -0.3842478

 DIPCOR: dipole corrections for dipol
 direction  3 min pos     1,
 dipolmoment          -0.000001      0.000000      0.003286 electrons x Angstroem
 Tr[quadrupol]     -6010.797988

 energy correction for charged system         0.000000 eV
 dipol+quadrupol energy correction            0.000000 eV
 added-field ion interaction          0.000000 eV  (added to PSCEN)


 Free energy of the ion-electron system (eV)
  ---------------------------------------------------
  alpha Z        PSCENC =        93.45915084
  Ewald energy   TEWEN  =     38033.53170843
  -Hartree energ DENC   =    -46017.97446628
  -exchange      EXHF   =       533.28384526
  -V(xc)+E(xc)   XCENC  =       566.05102222
  PAW double counting   =     25908.90222069   -25904.95248951
  entropy T*S    EENTRO =        -0.00357396
  eigenvalues    EBANDS =     -3105.37623271
  atomic energy  EATOM  =      9305.35219883
  ---------------------------------------------------
  free energy    TOTEN  =      -587.72774921 eV

  energy without entropy =     -587.72417526  energy(sigma->0) =     -587.72596223
  exchange ACFDT corr.  =        -0.00414409  see jH, gK, PRB 81, 115126


--------------------------------------------------------------------------------------------------------




--------------------------------------- Iteration      1(  14)  ---------------------------------------


    POTLOK:  cpu time    2.0511: real time    2.0523
    SETDIJ:  cpu time    2.0941: real time    2.0961
    TRIAL :  cpu time  307.3738: real time  307.6320
    CORREC:  cpu time    0.0009: real time    0.0009
    CHARGE:  cpu time    1.3303: real time    1.3309
    --------------------------------------------
      LOOP:  cpu time  312.8509: real time  313.1164

 eigenvalue-minimisations  :     0
 total energy-change (2. order) :-0.3199473E-01  (-0.2988788E-01)
 number of electron     235.0000013 magnetization      -0.9866108
 augmentation part       12.1599531 magnetization      -0.3907607

 DIPCOR: dipole corrections for dipol
 direction  3 min pos     1,
 dipolmoment          -0.000001      0.000000      0.003349 electrons x Angstroem
 Tr[quadrupol]     -6010.799850

 energy correction for charged system         0.000000 eV
 dipol+quadrupol energy correction            0.000000 eV
 added-field ion interaction          0.000000 eV  (added to PSCEN)


 Free energy of the ion-electron system (eV)
  ---------------------------------------------------
  alpha Z        PSCENC =        93.45915086
  Ewald energy   TEWEN  =     38033.53170843
  -Hartree energ DENC   =    -46018.09673585
  -exchange      EXHF   =       533.36290852
  -V(xc)+E(xc)   XCENC  =       566.09907074
  PAW double counting   =     25910.65102402   -25906.74168137
  entropy T*S    EENTRO =        -0.00278740
  eigenvalues    EBANDS =     -3105.37381417
  atomic energy  EATOM  =      9305.35219883
  ---------------------------------------------------
  free energy    TOTEN  =      -587.75974395 eV

  energy without entropy =     -587.75695655  energy(sigma->0) =     -587.75835025
  exchange ACFDT corr.  =        -0.00290346  see jH, gK, PRB 81, 115126


--------------------------------------------------------------------------------------------------------




--------------------------------------- Iteration      1(  15)  ---------------------------------------


    POTLOK:  cpu time    2.0467: real time    2.0491
    SETDIJ:  cpu time    2.0914: real time    2.0924
    TRIAL :  cpu time  307.3144: real time  307.5891
    CORREC:  cpu time    0.0009: real time    0.0009
    CHARGE:  cpu time    1.3187: real time    1.3194
    --------------------------------------------
      LOOP:  cpu time  312.7734: real time  313.0551

 eigenvalue-minimisations  :     0
 total energy-change (2. order) :-0.2863893E-01  (-0.2669733E-01)
 number of electron     235.0000013 magnetization      -0.9899464
 augmentation part       12.1623263 magnetization      -0.3965954

 DIPCOR: dipole corrections for dipol
 direction  3 min pos     1,
 dipolmoment          -0.000001      0.000000      0.003406 electrons x Angstroem
 Tr[quadrupol]     -6010.801243

 energy correction for charged system         0.000000 eV
 dipol+quadrupol energy correction            0.000000 eV
 added-field ion interaction          0.000000 eV  (added to PSCEN)


 Free energy of the ion-electron system (eV)
  ---------------------------------------------------
  alpha Z        PSCENC =        93.45915087
  Ewald energy   TEWEN  =     38033.53170843
  -Hartree energ DENC   =    -46018.19209661
  -exchange      EXHF   =       533.43729973
  -V(xc)+E(xc)   XCENC  =       566.14462309
  PAW double counting   =     25913.02485823   -25909.15191310
  entropy T*S    EENTRO =        -0.00223876
  eigenvalues    EBANDS =     -3105.39142495
  atomic energy  EATOM  =      9305.35219883
  ---------------------------------------------------
  free energy    TOTEN  =      -587.78838288 eV

  energy without entropy =     -587.78614412  energy(sigma->0) =     -587.78726350
  exchange ACFDT corr.  =        -0.00212896  see jH, gK, PRB 81, 115126


--------------------------------------------------------------------------------------------------------




--------------------------------------- Iteration      1(  16)  ---------------------------------------


    POTLOK:  cpu time    2.0443: real time    2.0465
    SETDIJ:  cpu time    2.0922: real time    2.0934
    TRIAL :  cpu time  307.1825: real time  307.4429
    CORREC:  cpu time    0.0010: real time    0.0009
    CHARGE:  cpu time    1.3251: real time    1.3264
    --------------------------------------------
      LOOP:  cpu time  312.6467: real time  312.9143

 eigenvalue-minimisations  :     0
 total energy-change (2. order) :-0.2562672E-01  (-0.2383096E-01)
 number of electron     235.0000013 magnetization      -0.9922123
 augmentation part       12.1645804 magnetization      -0.4017305

 DIPCOR: dipole corrections for dipol
 direction  3 min pos     1,
 dipolmoment          -0.000001      0.000000      0.003455 electrons x Angstroem
 Tr[quadrupol]     -6010.802343

 energy correction for charged system         0.000000 eV
 dipol+quadrupol energy correction            0.000000 eV
 added-field ion interaction          0.000000 eV  (added to PSCEN)


 Free energy of the ion-electron system (eV)
  ---------------------------------------------------
  alpha Z        PSCENC =        93.45915088
  Ewald energy   TEWEN  =     38033.53170843
  -Hartree energ DENC   =    -46018.26744655
  -exchange      EXHF   =       533.50745419
  -V(xc)+E(xc)   XCENC  =       566.18780721
  PAW double counting   =     25915.71130693   -25911.87223379
  entropy T*S    EENTRO =        -0.00185156
  eigenvalues    EBANDS =     -3105.42171697
  atomic energy  EATOM  =      9305.35219883
  ---------------------------------------------------
  free energy    TOTEN  =      -587.81400960 eV

  energy without entropy =     -587.81215804  energy(sigma->0) =     -587.81308382
  exchange ACFDT corr.  =        -0.00162953  see jH, gK, PRB 81, 115126


--------------------------------------------------------------------------------------------------------




--------------------------------------- Iteration      1(  17)  ---------------------------------------


    POTLOK:  cpu time    2.0437: real time    2.0459
    SETDIJ:  cpu time    2.0938: real time    2.0949
    TRIAL :  cpu time  307.1835: real time  307.4405
    CORREC:  cpu time    0.0009: real time    0.0009
    CHARGE:  cpu time    1.3175: real time    1.3182
    --------------------------------------------
      LOOP:  cpu time  312.6410: real time  312.9048

 eigenvalue-minimisations  :     0
 total energy-change (2. order) :-0.2290306E-01  (-0.2125124E-01)
 number of electron     235.0000013 magnetization      -0.9937789
 augmentation part       12.1667286 magnetization      -0.4063134

 DIPCOR: dipole corrections for dipol
 direction  3 min pos     1,
 dipolmoment          -0.000001      0.000000      0.003491 electrons x Angstroem
 Tr[quadrupol]     -6010.803294

 energy correction for charged system         0.000000 eV
 dipol+quadrupol energy correction            0.000000 eV
 added-field ion interaction          0.000000 eV  (added to PSCEN)


 Free energy of the ion-electron system (eV)
  ---------------------------------------------------
  alpha Z        PSCENC =        93.45915088
  Ewald energy   TEWEN  =     38033.53170843
  -Hartree energ DENC   =    -46018.33929232
  -exchange      EXHF   =       533.57375828
  -V(xc)+E(xc)   XCENC  =       566.22896799
  PAW double counting   =     25918.42548745   -25914.62010779
  entropy T*S    EENTRO =        -0.00157378
  eigenvalues    EBANDS =     -3105.44693286
  atomic energy  EATOM  =      9305.35219883
  ---------------------------------------------------
  free energy    TOTEN  =      -587.83691266 eV

  energy without entropy =     -587.83533888  energy(sigma->0) =     -587.83612577
  exchange ACFDT corr.  =        -0.00129732  see jH, gK, PRB 81, 115126


--------------------------------------------------------------------------------------------------------




--------------------------------------- Iteration      1(  18)  ---------------------------------------


    POTLOK:  cpu time    2.0401: real time    2.0424
    SETDIJ:  cpu time    2.0916: real time    2.0932
    TRIAL :  cpu time  306.9554: real time  307.2216
    CORREC:  cpu time    0.0009: real time    0.0009
[...]
  Alpha Z    93.45915    93.45915    93.45915
  Ewald   45946.93747 46162.62163-54076.05173   -61.77350    -2.23901    -0.40044
  Hartree 45410.81214 45434.10047-44826.06431   -12.68429    -2.09845    -0.02577
  E(xc)    -686.54916  -689.45241  -699.89441     1.01337    -0.04967     0.01186
  Local  -93898.17759-94098.98133 95892.34369    64.75986     4.50672     0.31663
  n-local  -187.27430  -190.70206  -180.85234     0.31260    -0.09826     0.02930
  augment    41.59442    34.99381    39.68535     1.94445     0.00087     0.02085
  Kinetic  3536.16835  3513.94066  4027.46575     5.51255     0.14208     0.03341
  Fock     -299.58758  -300.73099  -270.51505     0.11054    -0.10884     0.00084
  -------------------------------------------------------------------------------------
  Total     -42.61710   -40.75107    -0.42389    -0.80443     0.05544    -0.01333
  in kB     -21.49281   -20.55173    -0.21378    -0.40569     0.02796    -0.00672
  external pressure =      -14.09 kB  Pullay stress =        0.00 kB


 VOLUME and BASIS-vectors are now :
 -----------------------------------------------------------------------------
  energy-cutoff  :      500.00
  volume of cell :     3176.88
      direct lattice vectors                 reciprocal lattice vectors
    12.728500000  0.000000000  0.000000000     0.078563853  0.000748971  0.000014429
    -0.117140540 12.287541646  0.000000000     0.000000000  0.081383244 -0.000011504
    -0.003757875  0.002871343 20.312299449     0.000000000  0.000000000  0.049231255

  length of vectors
    12.728500000 12.288100000 20.312300000     0.078567424  0.081383245  0.049231255


 FORCES acting on ions:
    Electron-Ion                     Ewald-Force                    Non-Local-Force
 -----------------------------------------------------------------------------------------------
   0.925E+00 -.896E-01 0.855E-01   -.137E+01 0.241E+00 -.845E-01   0.476E+00 -.669E-01 -.461E-03
   0.342E-01 -.398E+01 -.370E+00   -.455E-03 0.389E+01 0.368E+00   -.157E-01 0.352E-01 0.787E-03
   0.122E+01 0.115E+01 -.147E+00   -.146E+01 -.115E+01 0.148E+00   0.142E+00 0.491E-02 -.141E-02
   0.599E+01 0.124E+01 0.198E+00   -.642E+01 -.151E+01 -.200E+00   0.298E+00 0.186E+00 0.199E-02
   0.579E+01 -.698E+01 -.105E+00   -.623E+01 0.714E+01 0.104E+00   0.455E+00 -.987E-01 -.367E-04
   0.248E+01 -.434E+01 -.351E+00   -.253E+01 0.422E+01 0.349E+00   0.137E+00 0.106E+00 0.143E-02
   -.170E+01 0.417E+00 -.385E+00   0.128E+01 -.293E+00 0.386E+00   0.341E+00 -.726E-01 -.159E-02
   0.214E+02 -.181E+02 -.241E-01   -.252E+02 0.185E+02 0.384E-01   0.338E+01 -.306E+00 -.137E-01
   -.386E+01 0.125E+02 -.510E+00   0.245E+01 -.149E+02 0.513E+00   0.136E+01 0.225E+01 -.566E-02
   0.588E+01 0.296E+01 -.313E+00   -.603E+01 -.307E+01 0.315E+00   0.959E-02 0.739E-01 -.306E-02
   -.708E+01 0.179E+01 -.371E+00   0.702E+01 -.216E+01 0.369E+00   0.927E-01 0.291E+00 0.142E-02
   -.232E+01 -.100E+02 -.640E+00   0.532E+00 0.122E+02 0.638E+00   0.167E+01 -.208E+01 -.183E-02
   0.530E+01 0.441E+01 -.972E-01   -.544E+01 -.422E+01 0.978E-01   0.210E+00 -.116E+00 -.718E-03
   -.259E+01 -.376E+01 -.386E+00   0.241E+01 0.406E+01 0.385E+00   0.344E+00 -.243E+00 0.468E-03
   0.121E+02 0.137E+02 -.359E+00   -.156E+02 -.140E+02 0.360E+00   0.348E+01 0.220E+00 -.256E-02
   0.404E+01 0.437E+01 -.975E-01   -.463E+01 -.429E+01 0.983E-01   0.613E+00 -.381E-01 -.863E-04
   0.196E+01 0.127E+01 -.358E-01   -.199E+01 -.113E+01 0.355E-01   0.508E-01 -.825E-01 0.922E-03
   0.379E+00 0.365E+00 -.326E-01   -.962E+00 -.462E+00 0.320E-01   0.492E+00 0.245E-01 0.122E-02
   0.174E+01 -.157E+01 0.940E-01   -.203E+01 0.189E+01 -.953E-01   0.248E+00 -.361E+00 0.151E-02
   -.624E+01 0.778E+01 -.795E-01   0.582E+01 -.778E+01 0.769E-01   0.291E+00 0.630E-01 0.365E-02
   -.508E+00 0.728E+01 0.261E+00   0.758E+00 -.782E+01 -.262E+00   -.682E-01 0.578E+00 0.754E-03
   0.406E+01 0.208E+01 0.104E+00   -.361E+01 -.201E+01 -.105E+00   -.337E+00 -.325E-01 0.161E-02
   0.115E+01 0.718E+01 -.272E+00   -.140E+01 -.776E+01 0.271E+00   0.153E+00 0.563E+00 -.122E-02
   0.114E+02 0.206E+02 0.618E-01   -.128E+02 -.236E+02 -.504E-01   0.130E+01 0.284E+01 -.127E-01
   -.781E+01 0.168E+02 0.461E+00   0.924E+01 -.199E+02 -.447E+00   -.131E+01 0.284E+01 -.120E-01
   0.110E+02 0.722E+01 -.328E+00   -.118E+02 -.485E+01 0.325E+00   0.104E+01 -.238E+01 0.151E-03
   -.534E+01 0.293E+01 0.506E-01   0.563E+01 -.241E+01 -.501E-01   -.182E+00 -.603E+00 0.387E-03
   -.246E+02 -.116E+01 -.117E+00   0.262E+02 0.408E+01 0.118E+00   -.173E+01 -.285E+01 0.267E-03
   0.405E+01 0.592E+01 -.275E+00   -.425E+01 -.555E+01 0.276E+00   0.185E+00 -.452E+00 -.127E-02
   -.577E+00 0.669E+00 -.350E+00   0.789E+00 -.645E+00 0.350E+00   -.100E+00 -.160E-01 0.308E-03
   -.618E+01 0.429E+01 -.558E+00   0.655E+01 -.466E+01 0.557E+00   -.299E+00 0.245E+00 -.977E-03
   0.319E+00 0.516E+01 -.405E+00   0.522E-01 -.510E+01 0.406E+00   -.435E+00 0.149E-01 -.634E-03
   -.193E+00 -.200E+00 -.555E+00   0.206E+00 0.994E-01 0.556E+00   -.366E-01 0.228E-01 -.242E-02
   0.521E+00 -.657E+00 -.628E+00   -.544E-02 0.839E+00 0.627E+00   -.412E+00 -.835E-01 -.442E-03
   -.247E+02 -.197E+02 -.430E+00   0.284E+02 0.202E+02 0.440E+00   -.345E+01 -.423E+00 -.129E-01
   -.771E+01 -.385E+01 -.728E+00   0.818E+01 0.400E+01 0.727E+00   -.521E+00 -.219E-01 -.314E-02
   -.434E+01 -.344E+01 -.352E+00   0.448E+01 0.328E+01 0.351E+00   -.224E+00 0.772E-01 0.106E-02
   0.489E+01 0.237E+01 -.383E-01   -.489E+01 -.280E+01 0.377E-01   -.811E-01 0.406E+00 0.235E-02
   0.292E+01 0.124E+02 -.688E-01   -.127E+01 -.145E+02 0.751E-01   -.156E+01 0.194E+01 -.581E-02
   -.374E+01 -.439E+01 0.880E-02   0.386E+01 0.441E+01 -.981E-02   0.129E-01 -.454E-01 0.259E-02
   0.116E+02 -.397E+01 0.476E-01   -.117E+02 0.437E+01 -.463E-01   0.262E-02 -.381E+00 -.141E-02
   -.545E+01 0.263E+02 -.831E-01   0.837E+01 -.266E+02 0.812E-01   -.292E+01 0.400E+00 0.149E-02
   0.164E+02 -.276E+02 0.121E+00   -.150E+02 0.298E+02 -.122E+00   -.135E+01 -.216E+01 0.153E-02
   0.140E+01 0.219E+01 0.106E+00   -.136E+01 -.201E+01 -.106E+00   -.977E-01 -.633E-01 0.144E-02
   0.703E+01 0.176E+01 0.104E+00   -.661E+01 -.192E+01 -.105E+00   -.301E+00 0.700E-01 0.202E-02
   -.423E+01 0.431E+01 -.255E+00   0.454E+01 -.409E+01 0.255E+00   -.326E+00 -.210E+00 0.129E-03
   0.421E+00 0.137E+02 -.368E-01   -.862E-01 -.140E+02 0.375E-01   -.395E+00 0.212E+00 -.412E-04
   0.272E+01 0.563E+01 -.640E-01   -.276E+01 -.558E+01 0.650E-01   0.289E-01 0.100E-02 -.641E-04
   -.117E+03 -.969E+00 -.111E+01   0.141E+03 0.150E+01 0.114E+01   -.220E+02 -.576E+00 -.311E-01
   -.802E+01 -.714E+02 0.110E+01   0.172E+02 0.880E+02 -.111E+01   -.858E+01 -.157E+02 0.159E-01
   0.154E+02 -.822E+02 0.240E+00   -.259E+02 0.101E+03 -.260E+00   0.976E+01 -.176E+02 0.199E-01
   -.637E+02 0.101E+03 -.243E+00   0.745E+02 -.120E+03 0.242E+00   -.101E+02 0.180E+02 0.364E-02
   0.576E+02 0.127E+03 -.626E+00   -.701E+02 -.148E+03 0.641E+00   0.118E+02 0.203E+02 -.152E-01
   0.140E+03 -.151E+02 0.246E+00   -.169E+03 0.143E+02 -.255E+00   0.270E+02 0.757E+00 0.669E-02
   -.455E+02 -.981E+02 0.109E+02   0.525E+02 0.624E+02 -.111E+02   -.440E+01 0.278E+02 0.117E+00
   -.178E+02 -.695E+02 -.233E+01   0.106E+02 0.886E+02 0.251E+01   0.432E+01 -.937E+01 -.643E-01
 -----------------------------------------------------------------------------------------------
   -.948E+01 -.239E+02 0.185E-01   -.142E-13 0.313E-12 0.222E-14   0.850E+01 0.238E+02 -.424E-02
 
 
 POSITION                                       TOTAL-FORCE (eV/Angst)
 -----------------------------------------------------------------------------------
      2.82876      0.03184     10.15499         0.059074      0.080460      0.000531
      0.70600      1.25867     10.15702         0.016566     -0.058607     -0.000474
      1.40270      0.02177     10.15612        -0.090168      0.001775     -0.000961
      3.53350      1.26930     10.15408        -0.107873     -0.069460      0.000566
      2.85269      2.52302     10.15493         0.043869      0.048664     -0.001796
      0.70645      3.72587     10.15694         0.101698     -0.016041     -0.000225
      1.41867      2.50148     10.15667        -0.060934      0.055106     -0.000661
      3.60035      3.75671     10.15364        -0.170449      0.071445     -0.000086
      2.88192      5.01130     10.15637         0.022462     -0.097688     -0.002598
      0.66074      6.16064     10.15674        -0.134890     -0.027371     -0.000999
      1.42848      4.95660     10.15683         0.023372     -0.059887     -0.000657
      2.79867      7.37174     10.15749        -0.026248      0.012613     -0.004265
      0.61221      8.60353     10.15612         0.088146      0.080017     -0.000065
      1.36264      7.38975     10.15700         0.169854      0.039878     -0.001239
      3.47328      8.63171     10.15664         0.131036     -0.070162     -0.001886
      2.72695      9.84514     10.15593         0.063449      0.042155      0.000726
      0.58367     11.06965     10.15600         0.014446      0.051553      0.000751
      1.30040      9.83947     10.15593        -0.066887     -0.075176      0.000771
      3.41817     11.08380     10.15510        -0.030450     -0.066101      0.000306
      6.94464     12.27885     10.15525        -0.131322      0.070097      0.001249
      4.95514      1.26225     10.15321         0.171899      0.072039     -0.000538
      5.65491      0.01539     10.15440         0.114793      0.028746      0.000462
      7.75905      1.23214     10.15533        -0.079876      0.016984     -0.002608
      7.07704      2.48252     10.15284        -0.042177      0.035611     -0.001904
      5.63838      2.50741     10.15144         0.056811     -0.100882      0.001413
      6.96137      9.77111     10.15633         0.241831     -0.153452     -0.002422
      4.83958     11.06566     10.15501         0.090715     -0.115270      0.000985
      5.52174      9.81223     10.15576        -0.252118     -0.092483      0.000954
      7.64216     11.03000     10.15624        -0.002964     -0.109814     -0.001089
     11.30537      0.00320     10.15718         0.104589      0.004102      0.000224
      9.17775      1.22734     10.15699         0.041299     -0.107106     -0.002060
      9.76448     12.27878     10.15712        -0.082901      0.077304      0.000079
     12.00644      1.24542     10.15776        -0.025081     -0.075334     -0.001512
     11.29308      2.47928     10.15778         0.085713      0.096556     -0.001014
      9.10762      3.69136     10.15503         0.005521     -0.013918     -0.003651
      9.86261      2.47619     10.15729        -0.084901      0.117472     -0.004283
     11.99429      3.71199     10.15696        -0.102768     -0.082628     -0.000117
     11.24798      4.92324     10.15564        -0.084790      0.012168      0.001929
      9.80712      4.95676     10.15468        -0.005613     -0.001234      0.000167
     11.95233      6.15150     10.15564         0.121375     -0.032827      0.001761
     11.19172      7.35977     10.15518        -0.131999     -0.007630     -0.000173
      8.97953      8.54713     10.15554        -0.164523      0.127575     -0.000344
      9.74050      7.29599     10.15451         0.036124     -0.183049      0.000819
     11.90265      8.58875     10.15540        -0.070343      0.120869      0.002310
     11.17639      9.80717     10.15553         0.113036     -0.090592      0.001544
      9.06058     11.03503     10.15650        -0.036350     -0.008783      0.000022
      9.73868      9.78107     10.15579        -0.083455     -0.049692      0.000750
     11.88463     11.05311     10.15620        -0.006827      0.061987      0.000951
      3.56793      6.22227     10.15741        -0.356169     -0.092870     -0.005939
      4.98958      3.73308     10.14952        -0.148360     -0.328406      0.003897
      7.74187      3.68433     10.15172         0.101473     -0.362207      0.001074
      4.84563      8.62349     10.15600        -0.143364      0.393714      0.002245
      7.59459      8.54195     10.15645         0.285507      0.619412     -0.001768
      9.08225      6.10785     10.15362         0.505956      0.054469     -0.001251
      6.35490      5.17787     10.13591         0.763536     -2.568254     -0.002554
      5.88809      6.79756     10.15588        -0.850351      2.724149      0.022651
 -----------------------------------------------------------------------------------
    total drift:                                0.001705     -0.009191     -0.001374


--------------------------------------------------------------------------------------------------------



  FREE ENERGIE OF THE ION-ELECTRON SYSTEM (eV)
  ---------------------------------------------------
  free  energy   TOTEN  =      -588.01974776 eV

  energy  without entropy=     -588.01919211  energy(sigma->0) =     -588.01946994
 


--------------------------------------------------------------------------------------------------------


    POTLOK:  cpu time    4.2174: real time    4.2196


--------------------------------------------------------------------------------------------------------


 stress matrix after NEB project (eV)
    -42.61710     -0.80462     -0.01333
     -0.80443    -40.75107      0.05545
     -0.01331      0.05544     -0.42389
  FORCES: max atom, RMS     2.853874    0.557473
  FORCE total and by dimension    4.171748    2.724149
  Stress total and by dimension   58.977524   42.617104
 writing wavefunctions
     LOOP+:  cpu time22528.2190: real time22558.3850
    4ORBIT:  cpu time    0.0000: real time    0.0000
 


 total charge     
 
# of ion       s       p       d       tot
------------------------------------------
    1        0.865   1.787   0.000   2.652
    2        0.867   1.772   0.000   2.638
    3        0.867   1.782   0.000   2.650
    4        0.871   1.768   0.000   2.639
    5        0.862   1.762   0.000   2.624
    6        0.864   1.773   0.000   2.637
    7        0.866   1.771   0.000   2.636
    8        0.851   1.719   0.000   2.570
    9        0.849   1.712   0.000   2.560
   10        0.867   1.774   0.000   2.641
   11        0.862   1.756   0.000   2.618
   12        0.857   1.744   0.000   2.601
   13        0.865   1.776   0.000   2.641
   14        0.867   1.776   0.000   2.644
   15        0.864   1.755   0.000   2.619
   16        0.869   1.785   0.000   2.653
   17        0.867   1.775   0.000   2.642
   18        0.869   1.784   0.000   2.653
   19        0.873   1.773   0.000   2.646
   20        0.866   1.794   0.000   2.660
   21        0.868   1.782   0.000   2.650
   22        0.867   1.796   0.000   2.662
   23        0.869   1.786   0.000   2.655
   24        0.861   1.750   0.000   2.611
   25        0.859   1.742   0.000   2.601
   26        0.859   1.734   0.000   2.593
   27        0.868   1.786   0.000   2.654
   28        0.863   1.746   0.000   2.610
   29        0.867   1.777   0.000   2.644
   30        0.868   1.780   0.000   2.648
   31        0.872   1.772   0.000   2.644
   32        0.864   1.788   0.000   2.652
   33        0.867   1.773   0.000   2.639
   34        0.867   1.776   0.000   2.644
   35        0.861   1.741   0.000   2.602
   36        0.866   1.776   0.000   2.642
   37        0.864   1.777   0.000   2.641
   38        0.868   1.777   0.000   2.645
   39        0.858   1.745   0.000   2.603
   40        0.868   1.768   0.000   2.636
   41        0.864   1.766   0.000   2.630
   42        0.851   1.702   0.000   2.554
   43        0.854   1.722   0.000   2.577
   44        0.866   1.778   0.000   2.644
   45        0.864   1.767   0.000   2.631
   46        0.871   1.766   0.000   2.637
   47        0.862   1.757   0.000   2.619
   48        0.867   1.772   0.000   2.638
   49        1.228   2.617   0.000   3.845
   50        1.221   2.661   0.000   3.882
   51        1.231   2.680   0.000   3.911
   52        1.236   2.684   0.000   3.919
   53        1.232   2.613   0.000   3.845
   54        1.246   2.626   0.000   3.872
   55        0.318   0.377   6.640   7.335
   56        0.298   0.409   3.934   4.642
--------------------------------------------------
tot         49.499 101.408  10.574 161.481
 


 magnetization (x)
 
# of ion       s       p       d       tot
------------------------------------------
    1        0.000   0.003   0.000   0.003
    2       -0.000  -0.004   0.000  -0.004
    3       -0.000  -0.005   0.000  -0.005
    4       -0.000  -0.003   0.000  -0.004
    5        0.000   0.000   0.000   0.001
    6       -0.000  -0.002   0.000  -0.002
    7       -0.000  -0.005   0.000  -0.005
    8       -0.001  -0.024   0.000  -0.026
    9        0.000  -0.015   0.000  -0.015
   10       -0.002  -0.040   0.000  -0.043
   11        0.001   0.003   0.000   0.003
   12        0.000  -0.015   0.000  -0.015
   13       -0.000  -0.001   0.000  -0.001
   14        0.000  -0.001   0.000  -0.000
   15       -0.001  -0.020   0.000  -0.021
   16        0.001   0.003   0.000   0.003
   17       -0.000  -0.005   0.000  -0.005
   18       -0.000  -0.008   0.000  -0.008
   19       -0.000  -0.002   0.000  -0.002
   20       -0.000  -0.004   0.000  -0.005
   21       -0.000  -0.004   0.000  -0.004
   22       -0.000  -0.002   0.000  -0.002
   23        0.000   0.001   0.000   0.001
   24       -0.000  -0.007   0.000  -0.008
   25        0.000  -0.006   0.000  -0.006
   26        0.000   0.002   0.000   0.002
   27       -0.000  -0.008   0.000  -0.008
   28        0.001   0.004   0.000   0.004
   29       -0.000  -0.003   0.000  -0.003
   30       -0.001  -0.012   0.000  -0.013
   31       -0.000  -0.003   0.000  -0.003
   32        0.000   0.003   0.000   0.004
   33        0.001   0.004   0.000   0.005
   34       -0.001  -0.015   0.000  -0.016
   35       -0.001  -0.022   0.000  -0.023
   36        0.000   0.003   0.000   0.004
   37        0.001   0.007   0.000   0.007
   38       -0.001  -0.012   0.000  -0.013
   39        0.001   0.007   0.000   0.009
   40        0.000  -0.004   0.000  -0.004
   41       -0.001  -0.018   0.000  -0.019
   42       -0.001  -0.017   0.000  -0.018
   43        0.001   0.008   0.000   0.010
   44        0.001   0.009   0.000   0.009
   45       -0.001  -0.017   0.000  -0.018
   46       -0.000  -0.001   0.000  -0.001
   47        0.000   0.004   0.000   0.005
   48        0.001   0.004   0.000   0.004
   49       -0.009  -0.137   0.000  -0.146
   50       -0.003  -0.041   0.000  -0.044
   51       -0.001  -0.019   0.000  -0.020
   52       -0.002  -0.037   0.000  -0.039
   53       -0.003  -0.025   0.000  -0.028
   54       -0.005  -0.093   0.000  -0.098
   55        0.005   0.015  -2.309  -2.288
   56        0.065   0.016   2.261   2.341
--------------------------------------------------
tot          0.042  -0.563  -0.048  -0.570
 

 total amount of memory used by VASP MPI-rank0   224224. kBytes
=======================================================================

   base      :      30000. kBytes
   nonl-proj :       6973. kBytes
   fftplans  :      17535. kBytes
   grid      :      46049. kBytes
   one-center:         93. kBytes
   HF        :         46. kBytes
   nonlr-proj:      24486. kBytes
   wavefun   :      99042. kBytes
 
  
  
 General timing and accounting informations for this job:
 ========================================================
  
                  Total CPU time used (sec):    22580.494
                            User time (sec):    22550.125
                          System time (sec):       30.368
                         Elapsed time (sec):    22616.991
  
                   Maximum memory used (kb):      483328.
                   Average memory used (kb):           0.
  
                          Minor page faults:      1472926
                          Major page faults:          218
                 Voluntary context switches:       252118
