 vasp.5.4.4.18Apr17-6-g9f103f2a35 (build Feb 25 2019 10:51:38) complex          
  
 executed on             LinuxIFC date 2021.06.19  03:24:24
 running on   80 total cores
 distrk:  each k-point on   40 cores,    2 groups
 distr:  one band on NCORES_PER_BAND=  40 cores,    1 groups


--------------------------------------------------------------------------------------------------------


 INCAR:
 POTCAR:    PAW_PBE C 08Apr2002                   
 POTCAR:    PAW_PBE N 08Apr2002                   
 POTCAR:    PAW_PBE Fe 06Sep2000                  
 POTCAR:    PAW_PBE Sc_sv 07Sep2000               

 ----------------------------------------------------------------------------- 
|                                                                             |
|           W    W    AA    RRRRR   N    N  II  N    N   GGGG   !!!           |
|           W    W   A  A   R    R  NN   N  II  NN   N  G    G  !!!           |
|           W    W  A    A  R    R  N N  N  II  N N  N  G       !!!           |
|           W WW W  AAAAAA  RRRRR   N  N N  II  N  N N  G  GGG   !            |
|           WW  WW  A    A  R   R   N   NN  II  N   NN  G    G                |
|           W    W  A    A  R    R  N    N  II  N    N   GGGG   !!!           |
|                                                                             |
|      For optimal performance we recommend to set                            |
|        NCORE= 4 - approx SQRT( number of cores)                             |
|      NCORE specifies how many cores store one orbital (NPAR=cpu/NCORE).     |
|      This setting can  greatly improve the performance of VASP for DFT.     |
|      The default,   NCORE=1            might be grossly inefficient         |
|      on modern multi-core architectures or massively parallel machines.     |
|      Do your own testing !!!!                                               |
|      Unfortunately you need to use the default for GW and RPA calculations. |
|      (for HF NCORE is supported but not extensively tested yet)             |
|                                                                             |
 ----------------------------------------------------------------------------- 


 ----------------------------------------------------------------------------- 
|                                                                             |
|           W    W    AA    RRRRR   N    N  II  N    N   GGGG   !!!           |
|           W    W   A  A   R    R  NN   N  II  NN   N  G    G  !!!           |
|           W    W  A    A  R    R  N N  N  II  N N  N  G       !!!           |
|           W WW W  AAAAAA  RRRRR   N  N N  II  N  N N  G  GGG   !            |
|           WW  WW  A    A  R   R   N   NN  II  N   NN  G    G                |
|           W    W  A    A  R    R  N    N  II  N    N   GGGG   !!!           |
|                                                                             |
|      You have enabled k-point parallelism (KPAR>1).                         |
|      This developmental code was originally  written by Paul Kent at ORNL,  |
|      and carefully double checked in Vienna.                                |
|      GW as well as linear response parallelism added by Martijn Marsman     |
|      and Georg Kresse.                                                      |
|      Carefully verify results versus KPAR=1.                                |
|      Report problems to Paul Kent and Vienna.                               |
|                                                                             |
 ----------------------------------------------------------------------------- 

 POTCAR:    PAW_PBE C 08Apr2002                   
   VRHFIN =C: s2p2                                                              
   LEXCH  = PE                                                                  
   EATOM  =   147.1560 eV,   10.8157 Ry                                         
                                                                                
   TITEL  = PAW_PBE C 08Apr2002                                                 
   LULTRA =        F    use ultrasoft PP ?                                      
   IUNSCR =        1    unscreen: 0-lin 1-nonlin 2-no                           
   RPACOR =    1.200    partial core radius                                     
   POMASS =   12.011; ZVAL   =    4.000    mass and valenz                      
   RCORE  =    1.500    outmost cutoff radius                                   
   RWIGS  =    1.630; RWIGS  =    0.863    wigner-seitz radius (au A)           
   ENMAX  =  400.000; ENMIN  =  300.000 eV                                      
   ICORE  =        2    local potential                                         
   LCOR   =        T    correct aug charges                                     
   LPAW   =        T    paw PP                                                  
   EAUG   =  644.873                                                            
   DEXC   =    0.000                                                            
   RMAX   =    1.529    core radius for proj-oper                               
   RAUG   =    1.300    factor for augmentation sphere                          
   RDEP   =    1.501    radius for radial grids                                 
   RDEPT  =    1.300    core radius for aug-charge                              
                                                                                
   Atomic configuration                                                         
    4 entries                                                                   
     n  l   j            E        occ.                                          
     1  0  0.50      -273.3789   2.0000                                         
     2  0  0.50       -13.7508   2.0000                                         
     2  1  0.50        -5.2854   2.0000                                         
     3  2  1.50        -5.4423   0.0000                                         
   Description                                                                  
     l       E           TYP  RCUT    TYP  RCUT                                 
     0    -13.7508458     23  1.200                                             
     0     -8.2022199     23  1.200                                             
     1     -5.2854383     23  1.500                                             
     1     34.0145650     23  1.500                                             
     2     -5.4423304      7  1.500                                             
  local pseudopotential read in
  partial core-charges read in
  partial kinetic energy density read in
  atomic valenz-charges read in
  non local Contribution for L=           0  read in
    real space projection operators read in
  non local Contribution for L=           0  read in
    real space projection operators read in
  non local Contribution for L=           1  read in
    real space projection operators read in
  non local Contribution for L=           1  read in
    real space projection operators read in
    PAW grid and wavefunctions read in
 
   number of l-projection  operators is LMAX  =           4
   number of lm-projection operators is LMMAX =           8
 
 POTCAR:    PAW_PBE N 08Apr2002                   
   VRHFIN =N: s2p3                                                              
   LEXCH  = PE                                                                  
   EATOM  =   264.5486 eV,   19.4438 Ry                                         
                                                                                
   TITEL  = PAW_PBE N 08Apr2002                                                 
   LULTRA =        F    use ultrasoft PP ?                                      
   IUNSCR =        1    unscreen: 0-lin 1-nonlin 2-no                           
   RPACOR =    1.200    partial core radius                                     
   POMASS =   14.001; ZVAL   =    5.000    mass and valenz                      
   RCORE  =    1.500    outmost cutoff radius                                   
   RWIGS  =    1.400; RWIGS  =    0.741    wigner-seitz radius (au A)           
   ENMAX  =  400.000; ENMIN  =  300.000 eV                                      
   ICORE  =        2    local potential                                         
   LCOR   =        T    correct aug charges                                     
   LPAW   =        T    paw PP                                                  
   EAUG   =  627.112                                                            
   DEXC   =    0.000                                                            
   RMAX   =    1.529    core radius for proj-oper                               
   RAUG   =    1.300    factor for augmentation sphere                          
   RDEP   =    1.514    radius for radial grids                                 
   RDEPT  =    1.338    core radius for aug-charge                              
                                                                                
   Atomic configuration                                                         
    4 entries                                                                   
     n  l   j            E        occ.                                          
     1  0  0.50      -384.7179   2.0000                                         
     2  0  0.50       -18.5828   2.0000                                         
     2  1  0.50        -7.0898   3.0000                                         
     3  2  1.50        -6.8029   0.0000                                         
   Description                                                                  
     l       E           TYP  RCUT    TYP  RCUT                                 
     0    -18.5828119     23  1.200                                             
     0    -13.5018863     23  1.200                                             
     1     -7.0897853     23  1.500                                             
     1      9.5240782     23  1.500                                             
     2     -6.8029130      7  1.500                                             
  local pseudopotential read in
  partial core-charges read in
  partial kinetic energy density read in
  atomic valenz-charges read in
  non local Contribution for L=           0  read in
    real space projection operators read in
  non local Contribution for L=           0  read in
    real space projection operators read in
  non local Contribution for L=           1  read in
    real space projection operators read in
  non local Contribution for L=           1  read in
    real space projection operators read in
    PAW grid and wavefunctions read in
 
   number of l-projection  operators is LMAX  =           4
   number of lm-projection operators is LMMAX =           8
 
 POTCAR:    PAW_PBE Fe 06Sep2000                  
   VRHFIN =Fe:  d7 s1                                                           
   LEXCH  = PE                                                                  
   EATOM  =   594.3153 eV,   43.6809 Ry                                         
                                                                                
   TITEL  = PAW_PBE Fe 06Sep2000                                                
   LULTRA =        F    use ultrasoft PP ?                                      
   IUNSCR =        1    unscreen: 0-lin 1-nonlin 2-no                           
   RPACOR =    2.000    partial core radius                                     
   POMASS =   55.847; ZVAL   =    8.000    mass and valenz                      
   RCORE  =    2.300    outmost cutoff radius                                   
   RWIGS  =    2.460; RWIGS  =    1.302    wigner-seitz radius (au A)           
   ENMAX  =  267.882; ENMIN  =  200.911 eV                                      
   RCLOC  =    1.701    cutoff for local pot                                    
   LCOR   =        T    correct aug charges                                     
   LPAW   =        T    paw PP                                                  
   EAUG   =  511.368                                                            
   DEXC   =    0.000                                                            
   RMAX   =    2.356    core radius for proj-oper                               
   RAUG   =    1.300    factor for augmentation sphere                          
   RDEP   =    2.442    radius for radial grids                                 
   RDEPT  =    1.890    core radius for aug-charge                              
                                                                                
   Atomic configuration                                                         
    9 entries                                                                   
     n  l   j            E        occ.                                          
     1  0  0.50     -6993.8440   2.0000                                         
     2  0  0.50      -814.6047   2.0000                                         
     2  1  1.50      -693.3689   6.0000                                         
     3  0  0.50       -89.4732   2.0000                                         
     3  1  1.50       -55.6373   6.0000                                         
     3  2  2.50        -3.8151   7.0000                                         
     4  0  0.50        -4.2551   1.0000                                         
     4  1  1.50        -3.4015   0.0000                                         
     4  3  2.50        -1.3606   0.0000                                         
   Description                                                                  
     l       E           TYP  RCUT    TYP  RCUT                                 
     2     -3.8151135     23  2.300                                             
     2     -5.1756961     23  2.300                                             
     0     -4.2550963     23  2.300                                             
     0      7.2035603     23  2.300                                             
     1     -2.7211652     23  2.300                                             
     1     18.4316424     23  2.300                                             
  local pseudopotential read in
  partial core-charges read in
  partial kinetic energy density read in
  atomic valenz-charges read in
  non local Contribution for L=           2  read in
    real space projection operators read in
  non local Contribution for L=           2  read in
    real space projection operators read in
  non local Contribution for L=           0  read in
    real space projection operators read in
  non local Contribution for L=           0  read in
    real space projection operators read in
  non local Contribution for L=           1  read in
    real space projection operators read in
  non local Contribution for L=           1  read in
    real space projection operators read in
    PAW grid and wavefunctions read in
 
   number of l-projection  operators is LMAX  =           6
   number of lm-projection operators is LMMAX =          18
 
 POTCAR:    PAW_PBE Sc_sv 07Sep2000               
   VRHFIN =Sc: 3p4s3d                                                           
   LEXCH  = PE                                                                  
   EATOM  =  1273.2868 eV,   93.5839 Ry                                         
                                                                                
   TITEL  = PAW_PBE Sc_sv 07Sep2000                                             
   LULTRA =        F    use ultrasoft PP ?                                      
   IUNSCR =        1    unscreen: 0-lin 1-nonlin 2-no                           
   RPACOR =    2.200    partial core radius                                     
   POMASS =   44.956; ZVAL   =   11.000    mass and valenz                      
   RCORE  =    2.500    outmost cutoff radius                                   
   RWIGS  =    2.700; RWIGS  =    1.429    wigner-seitz radius (au A)           
   ENMAX  =  222.660; ENMIN  =  166.995 eV                                      
   RCLOC  =    1.805    cutoff for local pot                                    
   LCOR   =        T    correct aug charges                                     
   LPAW   =        T    paw PP                                                  
   EAUG   =  443.063                                                            
   RMAX   =    2.551    core radius for proj-oper                               
   RAUG   =    1.300    factor for augmentation sphere                          
   RDEP   =    2.650    radius for radial grids                                 
   RDEPT  =    2.038    core radius for aug-charge                              
                                                                                
   Atomic configuration                                                         
    8 entries                                                                   
     n  l   j            E        occ.                                          
     1  0  0.50     -4394.2533   2.0000                                         
     2  0  0.50      -471.0040   2.0000                                         
     2  1  1.50      -384.9788   6.0000                                         
     3  0  0.50       -52.1410   2.0000                                         
     4  0  0.50        -3.5584   1.0000                                         
     3  1  1.50       -30.8841   6.0000                                         
     3  2  2.50        -1.3655   2.0000                                         
     4  3  2.50        -1.3606   0.0000                                         
   Description                                                                  
     l       E           TYP  RCUT    TYP  RCUT                                 
     0    -52.1409870     23  1.800                                             
     0     -3.5583698     23  2.500                                             
     1    -30.8840697     23  2.300                                             
     1      4.0817478     23  2.300                                             
     2     -1.3655397     23  2.500                                             
     2      0.3564476     23  2.500                                             
  local pseudopotential read in
  partial core-charges read in
  partial kinetic energy density read in
  atomic valenz-charges read in
  non local Contribution for L=           0  read in
    real space projection operators read in
  non local Contribution for L=           0  read in
    real space projection operators read in
  non local Contribution for L=           1  read in
    real space projection operators read in
  non local Contribution for L=           1  read in
    real space projection operators read in
  non local Contribution for L=           2  read in
    real space projection operators read in
  non local Contribution for L=           2  read in
    real space projection operators read in
    PAW grid and wavefunctions read in
 
   number of l-projection  operators is LMAX  =           6
   number of lm-projection operators is LMMAX =          18
 

 ----------------------------------------------------------------------------- 
|                                                                             |
|  ADVICE TO THIS USER RUNNING 'VASP/VAMP'   (HEAR YOUR MASTER'S VOICE ...):  |
|                                                                             |
|      You have a (more or less) 'large supercell' and for larger cells       |
|      it might be more efficient to use real space projection opertators     |
|      So try LREAL= Auto  in the INCAR   file.                               |
|      Mind:          For very  accurate calculation you might also keep the  |
|      reciprocal projection scheme          (i.e. LREAL=.FALSE.)             |
|                                                                             |
 ----------------------------------------------------------------------------- 

  PAW_PBE C 08Apr2002                   :
 energy of atom  1       EATOM= -147.1560
 kinetic energy error for atom=    0.0076 (will be added to EATOM!!)
  PAW_PBE N 08Apr2002                   :
 energy of atom  2       EATOM= -264.5486
 kinetic energy error for atom=    0.0138 (will be added to EATOM!!)
  PAW_PBE Fe 06Sep2000                  :
 energy of atom  3       EATOM= -594.3153
 kinetic energy error for atom=    0.0026 (will be added to EATOM!!)
  PAW_PBE Sc_sv 07Sep2000               :
 energy of atom  4       EATOM=-1273.2868
 kinetic energy error for atom=    0.0031 (will be added to EATOM!!)
 
 
 POSCAR:  C  N Fe Sc                             
  positions in cartesian coordinates
  No initial velocities read in
 exchange correlation table for  LEXCH =        8
   RHO(1)=    0.500       N(1)  =     2000
   RHO(2)=  100.500       N(2)  =     4000

 VTST: version 3.2, (02/03/18)

 CHAIN: initializing optimizer
 
 OPT: Using VASP Conjugate-Gradient optimizer
 CHAIN: Read ICHAIN            0
 
 POSCAR:  C  N Fe Sc                             
  positions in cartesian coordinates
  No initial velocities read in
 


--------------------------------------------------------------------------------------------------------


 ion  position               nearest neighbor table
   1  0.221  1.000  0.505-   3 1.42   4 1.43  20 1.43
   2  0.055  0.101  0.506-  34 1.42   3 1.44   7 1.44
   3  0.109  1.000  0.505-   1 1.42  18 1.43   2 1.44
   4  0.277  0.099  0.506-  22 1.42   5 1.43   1 1.43
   5  0.224  0.200  0.506-   4 1.43   7 1.43   8 1.44
   6  0.056  0.301  0.504-   7 1.43  38 1.44  11 1.44
   7  0.111  0.201  0.505-   5 1.43   6 1.43   2 1.44
   8  0.284  0.298  0.504-  51 1.39   5 1.44   9 1.45
   9  0.227  0.399  0.501-  11 1.44   8 1.45  12 1.45
  10  0.056  0.500  0.501-  11 1.45  15 1.45  42 1.45
  11  0.114  0.400  0.502-   6 1.44   9 1.44  10 1.45
  12  0.285  0.499  0.493-  53 1.34   9 1.45  13 1.47
  13  0.227  0.600  0.495-  15 1.44  16 1.45  12 1.47
  14  0.056  0.699  0.501-  19 1.43  46 1.44  15 1.44
  15  0.114  0.600  0.499-  14 1.44  13 1.44  10 1.45
  16  0.282  0.702  0.494-  55 1.38  17 1.44  13 1.45
  17  0.223  0.800  0.500-  19 1.43  20 1.43  16 1.44
  18  0.055  0.899  0.504-  50 1.42   3 1.43  19 1.44
  19  0.111  0.799  0.502-  17 1.43  14 1.43  18 1.44
  20  0.276  0.901  0.502-  28 1.42   1 1.43  17 1.43
  21  0.555  1.000  0.505-  23 1.41  30 1.42  24 1.42
  22  0.388  0.098  0.507-  26 1.41   4 1.42  23 1.42
  23  0.444  1.000  0.505-  21 1.41  28 1.42  22 1.42
  24  0.610  0.098  0.507-  25 1.41  32 1.42  21 1.42
  25  0.555  0.196  0.507-  52 1.38  24 1.41  26 1.43
  26  0.443  0.196  0.507-  51 1.38  22 1.41  25 1.43
  27  0.556  0.804  0.495-  56 1.37  30 1.41  29 1.45
  28  0.388  0.902  0.501-  29 1.41  23 1.42  20 1.42
  29  0.442  0.804  0.495-  55 1.37  28 1.41  27 1.45
  30  0.610  0.902  0.501-  27 1.41  21 1.42  48 1.42
  31  0.889  1.000  0.505-  33 1.42  50 1.43  34 1.44
  32  0.722  0.099  0.506-  24 1.42  37 1.43  33 1.43
  33  0.777  1.000  0.505-  31 1.42  32 1.43  48 1.43
  34  0.943  0.101  0.506-   2 1.42  31 1.44  35 1.44
  35  0.887  0.201  0.505-  37 1.43  38 1.43  34 1.44
  36  0.715  0.298  0.504-  52 1.39  37 1.44  41 1.45
  37  0.775  0.200  0.506-  32 1.43  35 1.43  36 1.44
  38  0.943  0.301  0.505-  35 1.43   6 1.44  39 1.44
  39  0.885  0.400  0.502-  38 1.44  41 1.44  42 1.45
  40  0.714  0.499  0.493-  54 1.34  41 1.45  45 1.47
  41  0.771  0.399  0.501-  39 1.44  36 1.45  40 1.45
  42  0.942  0.500  0.501-  39 1.45  43 1.45  10 1.45
  43  0.885  0.600  0.499-  46 1.44  45 1.44  42 1.45
  44  0.716  0.702  0.494-  56 1.38  49 1.44  45 1.45
  45  0.771  0.600  0.495-  43 1.44  44 1.45  40 1.47
  46  0.943  0.699  0.501-  47 1.43  14 1.44  43 1.44
  47  0.888  0.799  0.502-  49 1.43  46 1.43  50 1.44
  48  0.722  0.901  0.502-  30 1.42  33 1.43  49 1.43
  49  0.776  0.800  0.500-  47 1.43  48 1.43  44 1.44
  50  0.943  0.899  0.504-  18 1.42  31 1.43  47 1.44
  51  0.393  0.294  0.505-  26 1.38   8 1.39  57 1.93
  52  0.606  0.294  0.505-  25 1.38  36 1.39  57 1.93
  53  0.389  0.499  0.483-  12 1.34  57 1.86  58 2.00
  54  0.609  0.499  0.483-  40 1.34  57 1.86  58 2.00
  55  0.390  0.708  0.488-  29 1.37  16 1.38  58 2.17
  56  0.608  0.708  0.488-  27 1.37  44 1.38  58 2.17
  57  0.499  0.403  0.496-  54 1.86  53 1.86  52 1.93  51 1.93  58 2.61
  58  0.499  0.595  0.444-  53 2.00  54 2.00  55 2.17  56 2.17  57 2.61
 
  LATTYP: Found a triclinic cell.
 ALAT       =    12.4915000000
 B/A-ratio  =     1.4265666552
 C/A-ratio  =     1.6020894208
 COS(alpha) =     0.0000421339
 COS(beta)  =     0.0002199115
 COS(gamma) =     0.7010173256
  
  Lattice vectors:
  
 A1 = (  -0.0005886481, -12.4914999861,   0.0000000000)
 A2 = ( -12.7087886481, -12.4914999861,   0.0000000000)
 A3 = (   0.0031435561,  -0.0044011267, -20.0124992692)


Analysis of symmetry for initial positions (statically):
=====================================================================
 Subroutine PRICEL returns:
 Original cell was already a primitive cell.
 

 Routine SETGRP: Setting up the symmetry group for a 
 triclinic supercell.


 Subroutine GETGRP returns: Found  1 space group operations
 (whereof  1 operations were pure point group operations)
 out of a pool of  2 trial point group operations.


The static configuration has the point symmetry C_1 .


Analysis of symmetry for dynamics (positions and initial velocities):
=====================================================================
 Subroutine PRICEL returns:
 Original cell was already a primitive cell.
 

 Routine SETGRP: Setting up the symmetry group for a 
 triclinic supercell.


 Subroutine GETGRP returns: Found  1 space group operations
 (whereof  1 operations were pure point group operations)
 out of a pool of  2 trial point group operations.


The dynamic configuration has the point symmetry C_1 .


Analysis of structural, dynamic, and magnetic symmetry:
=====================================================================
 Subroutine PRICEL returns:
 Original cell was already a primitive cell.
 

 Routine SETGRP: Setting up the symmetry group for a 
 triclinic supercell.


 Subroutine GETGRP returns: Found  1 space group operations
 (whereof  1 operations were pure point group operations)
 out of a pool of  2 trial point group operations.


The magnetic configuration has the point symmetry C_1 .


 Subroutine INISYM returns: Found  1 space group operations
 (whereof  1 operations are pure point group operations),
 and found     1 'primitive' translations

 
 
 KPOINTS: KPOINTS created by Atomic Simulation Env

Automatic generation of k-mesh.
Space group operators:
 irot       det(A)        alpha          n_x          n_y          n_z        tau_x        tau_y        tau_z
    1     1.000000     0.000000     1.000000     0.000000     0.000000     0.000000     0.000000     0.000000
 
 Subroutine IBZKPT returns following result:
 ===========================================
 
 Found      2 irreducible k-points:
 
 Following reciprocal coordinates:
            Coordinates               Weight
  0.250000  0.250000  0.000000      2.000000
 -0.250000  0.250000  0.000000      2.000000
 
 Following cartesian coordinates:
            Coordinates               Weight
  0.019672  0.020013 -0.000001      2.000000
 -0.019672  0.020015 -0.000007      2.000000
 
 
 Subroutine IBZKPT_HF returns following result:
 ==============================================
 
 Found      4 k-points in 1st BZ
 the following      4 k-points will be used (e.g. in the exchange kernel)
 Following reciprocal coordinates:   # in IRBZ
  0.250000  0.250000  0.000000    0.25000000   1 t-inv F
 -0.250000  0.250000  0.000000    0.25000000   2 t-inv F
 -0.250000 -0.250000 -0.000000    0.25000000   1 t-inv T
  0.250000 -0.250000 -0.000000    0.25000000   2 t-inv T


--------------------------------------------------------------------------------------------------------




 Dimension of arrays:
   k-points           NKPTS =      2   k-points in BZ     NKDIM =      4   number of bands    NBANDS=    158
   number of dos      NEDOS =    301   number of ions     NIONS =     58
   non local maximal  LDIM  =      6   non local SUM 2l+1 LMDIM =     18
   total plane-waves  NPLWV = ******
   max r-space proj   IRMAX =      1   max aug-charges    IRDMAX=  19417
   dimension x,y,z NGX =    96 NGY =   96 NGZ =  150
   dimension x,y,z NGXF=   192 NGYF=  192 NGZF=  300
   support grid    NGXF=   192 NGYF=  192 NGZF=  300
   ions per type =              50   6   1   1
   NGX,Y,Z   is equivalent  to a cutoff of  12.56, 12.78, 12.46 a.u.
   NGXF,Y,Z  is equivalent  to a cutoff of  25.12, 25.55, 24.92 a.u.

 SYSTEM =  unknown system                          
 POSCAR =   C  N Fe Sc                             

 Startparameter for this run:
   NWRITE =      2    write-flag & timer
   PREC   = accura    normal or accurate (medium, high low for compatibility)
   ISTART =      1    job   : 0-new  1-cont  2-samecut
   ICHARG =      0    charge: 1-file 2-atom 10-const
   ISPIN  =      2    spin polarized calculation?
   LNONCOLLINEAR =      F non collinear calculations
   LSORBIT =      F    spin-orbit coupling
   INIWAV =      1    electr: 0-lowe 1-rand  2-diag
   LASPH  =      T    aspherical Exc in radial PAW
   METAGGA=      F    non-selfconsistent MetaGGA calc.

 Electronic Relaxation 1
   ENCUT  =  500.0 eV  36.75 Ry    6.06 a.u.  23.17 22.77 36.49*2*pi/ulx,y,z
   ENINI  =  500.0     initial cutoff
   ENAUG  =  644.9 eV  augmentation charge cutoff
   NELM   =    250;   NELMIN=  2; NELMDL=  0     # of ELM steps 
   EDIFF  = 0.1E-03   stopping-criterion for ELM
   LREAL  =      F    real-space projection
   NLSPLINE    = F    spline interpolate recip. space projectors
   LCOMPAT=      F    compatible to vasp.4.4
   GGA_COMPAT  = T    GGA compatible to vasp.4.4-vasp.4.6
   LMAXPAW     = -100 max onsite density
   LMAXMIX     =    2 max onsite mixed and CHGCAR
   VOSKOWN=      0    Vosko Wilk Nusair interpolation
   ROPT   =    0.00000   0.00000   0.00000   0.00000
 Ionic relaxation
   EDIFFG = -.3E-01   stopping-criterion for IOM
   NSW    =      0    number of steps for IOM
   NBLOCK =      1;   KBLOCK =      1    inner block; outer block 
   IBRION =     -1    ionic relax: 0-MD 1-quasi-New 2-CG
   NFREE  =      1    steps in history (QN), initial steepest desc. (CG)
   ISIF   =      2    stress and relaxation
   IWAVPR =     10    prediction:  0-non 1-charg 2-wave 3-comb
   ISYM   =      3    0-nonsym 1-usesym 2-fastsym
   LCORR  =      T    Harris-Foulkes like correction to forces

   POTIM  = 0.5000    time-step for ionic-motion
   TEIN   =    0.0    initial temperature
   TEBEG  =    0.0;   TEEND  =   0.0 temperature during run
   SMASS  =  -3.00    Nose mass-parameter (am)
   estimated Nose-frequenzy (Omega)   =  0.10E-29 period in steps =****** mass=  -0.369E-26a.u.
   SCALEE = 1.0000    scale energy and forces
   NPACO  =    256;   APACO  = 16.0  distance and # of slots for P.C.
   PSTRESS=    0.0 pullay stress

  Mass of Ions in am
   POMASS =  12.01 14.00 55.85 44.96
  Ionic Valenz
   ZVAL   =   4.00  5.00  8.00 11.00
  Atomic Wigner-Seitz radii
   RWIGS  =  -1.00 -1.00 -1.00 -1.00
  virtual crystal weights 
   VCA    =   1.00  1.00  1.00  1.00
   NELECT =     249.0000    total number of electrons
   NUPDOWN=      -1.0000    fix difference up-down

 DOS related values:
   EMIN   =  10.00;   EMAX   =-10.00  energy-range for DOS
   EFERMI =   0.00
   ISMEAR =     0;   SIGMA  =   0.10  broadening in eV -4-tet -1-fermi 0-gaus

 Electronic relaxation 2 (details)
   IALGO  =     53    algorithm
   LDIAG  =      T    sub-space diagonalisation (order eigenvalues)
   LSUBROT=      F    optimize rotation matrix (better conditioning)
   TURBO    =      0    0=normal 1=particle mesh
   IRESTART =      0    0=no restart 2=restart with 2 vectors
   NREBOOT  =      0    no. of reboots
   NMIN     =      0    reboot dimension
   EREF     =   0.00    reference energy to select bands
   IMIX   =      4    mixing-type and parameters
     AMIX     =   0.40;   BMIX     =  1.00
     AMIX_MAG =   1.60;   BMIX_MAG =  1.00
     AMIN     =   0.10
     WC   =   100.;   INIMIX=   1;  MIXPRE=   1;  MAXMIX= -45

 Intra band minimization:
   WEIMIN = 0.0000     energy-eigenvalue tresh-hold
   EBREAK =  0.16E-06  absolut break condition
   DEPER  =   0.30     relativ break condition  

   TIME   =   0.20     timestep for ELM

  volume/ion in A,a.u.               =      54.77       369.63
  Fermi-wavevector in a.u.,A,eV,Ry     =   0.700607  1.323956  6.678427  0.490851
  Thomas-Fermi vector in A             =   1.784807
 
 Write flags
   LWAVE        =      T    write WAVECAR
   LDOWNSAMPLE  =      F    k-point downsampling of WAVECAR
   LCHARG       =      T    write CHGCAR
   LVTOT        =      F    write LOCPOT, total local potential
   LVHAR        =      F    write LOCPOT, Hartree potential only
   LELF         =      F    write electronic localiz. function (ELF)
   LORBIT       =     11    0 simple, 1 ext, 2 COOP (PROOUT), +10 PAW based schemes


 Dipole corrections
   LMONO  =      F    monopole corrections only (constant potential shift)
   LDIPOL =      T    correct potential (dipole corrections)
   IDIPOL =      3    1-x, 2-y, 3-z, 4-all directions 
   EPSILON=  1.0000000 bulk dielectric constant

 Exchange correlation treatment:
   GGA     =    PE    GGA type
   LEXCH   =     8    internal setting for exchange type
   VOSKOWN=      0    Vosko Wilk Nusair interpolation
   EXXOEP  =     0    0=HF, 1=EXX-LHF (local Hartree Fock) 2=EXX OEP
   LHFCALC =     T    Hartree Fock is set to
   LSYMGRAD=     F    symmetrize gradient (conserves proper symmetry)
   PRECFOCK=normal    Normal, Fast or Accurate (Low or Medium for compatibility)
   LRHFCALC=     F    long range Hartree Fock
   LRSCOR  =     F    long range correlation only (use DFT for short range part)
   LTHOMAS =     F    Thomas Fermi screening in HF
   LMODELHF=     F    short range full HF, long range fraction AEXX
   ENCUT4O =  -1.0   cutoff for four orbital integrals eV
   LMAXFOCK=     4    L truncation for augmentation on plane wave grid
   LMAXFOCKAE=  -1    L truncation for all-electron charge restoration on plane wave grid
   NMAXFOCKAE=   1    number of basis functions for all-electron charge restoration
   LFOCKAEDFT=     F  apply the AE augmentation even for DFT
   NKREDX  =     1    reduce k-point grid by
   NKREDY  =     1    reduce k-point grid by
   NKREDZ  =     1    reduce k-point grid by
   SHIFTRED=     F    shift reduced grid of Gamma
   HFKIDENT=     F    idential grid for each k-point
   ODDONLY =     F    use only odd q-grid points
   EVENONLY=     F    use only even q-grid points
   HFALPHA =   -1.0000 decay constant for conv. correction
   MCALPHA =    0.0000 extent of test-charge in conv. correction in multipole expansion
   AEXX    =    0.2500 exact exchange contribution
   HFSCREEN=    0.2000 screening length (either q_TF or 0.3 A-1)
   HFSCREENC=   0.2000 screening length for correlation (either q_TF or 0.3 A-1)
   HFRCUT  =    0.0000 spherical cutoff for potential kernel
   ALDAX   =    0.7500 LDA exchange part
   AGGAX   =    0.7500 GGA exchange part
   ALDAC   =    1.0000 LDA correlation
   AGGAC   =    1.0000 GGA correlation
   ENCUTFOCK=  -1.0 apply spherical cutoff to Coloumb kernel
   NBANDSGWLOW=     1    first orbital included in HF term
   NBLOCK_FOCK=    64    blocking factor in FOCK_ACC
 Linear response parameters
   LEPSILON=     F    determine dielectric tensor
   LRPA    =     F    only Hartree local field effects (RPA)
   LNABLA  =     F    use nabla operator in PAW spheres
   LVEL    =     F    velocity operator in full k-point grid
   LINTERFAST=   F  fast interpolation
   KINTER  =     0    interpolate to denser k-point grid
   CSHIFT  =0.1000    complex shift for real part using Kramers Kronig
   OMEGAMAX=  -1.0    maximum frequency
   DEG_THRESHOLD= 0.2000000E-02 threshold for treating states as degnerate
   RTIME   =   -0.100 relaxation time in fs
  (WPLASMAI=    0.000 imaginary part of plasma frequency in eV, 0.658/RTIME)
   DFIELD  = 0.0000000 0.0000000 0.0000000 field for delta impulse in time
 
 Orbital magnetization related:
   ORBITALMAG=     F  switch on orbital magnetization
   LCHIMAG   =     F  perturbation theory with respect to B field
   DQ        =  0.001000  dq finite difference perturbation B field
   LLRAUG    =     F  two centre corrections for induced B field



--------------------------------------------------------------------------------------------------------


 Static calculation
 charge density and potential will be updated during run
 spin polarized calculation
 Conjugate gradient for all bands (Freysoldt, et al. PRB 79, 241103 (2009))
 perform sub-space diagonalisation
    before iterative eigenvector-optimisation
 modified Broyden-mixing scheme, WC =      100.0
 initial mixing is a Kerker type mixing with AMIX =  0.4000 and BMIX =      1.0000
 Hartree-type preconditioning will be used
 using additional bands           33
 reciprocal scheme for non local part
 use partial core corrections
 no Harris-corrections to forces 
 use gradient corrections 
 use of overlap-Matrix (Vanderbilt PP)
 Gauss-broadening in eV      SIGMA  =   0.10


--------------------------------------------------------------------------------------------------------


  energy-cutoff  :      500.00
  volume of cell :     3176.87
      direct lattice vectors                 reciprocal lattice vectors
    12.708200000  0.000000000  0.000000000     0.078689350 -0.000003708  0.000012361
     0.000588648 12.491499986  0.000000000     0.000000000  0.080054437 -0.000017605
    -0.003143556  0.004401127 20.012499269     0.000000000  0.000000000  0.049968771

  length of vectors
    12.708200000 12.491500000 20.012500000     0.078689351  0.080054439  0.049968771


 
 old parameters found on file WAVECAR:
  energy-cutoff  :      500.00
  volume of cell :     3176.87
      direct lattice vectors                 reciprocal lattice vectors
    12.708200000  0.000000000  0.000000000     0.078689350 -0.000003708  0.000012361
     0.000588648 12.491499986  0.000000000     0.000000000  0.080054437 -0.000017605
    -0.003143556  0.004401127 20.012499269     0.000000000  0.000000000  0.049968771

  length of vectors

 
 k-points in units of 2pi/SCALE and weight: KPOINTS created by Atomic Simulation Env
   0.01967234  0.02001268 -0.00000131       0.500
  -0.01967234  0.02001454 -0.00000749       0.500
 
 k-points in reciprocal lattice and weights: KPOINTS created by Atomic Simulation Env
   0.25000000  0.25000000  0.00000000       0.500
  -0.25000000  0.25000000  0.00000000       0.500
 
 position of ions in fractional coordinates (direct lattice) 
   0.22100881  0.99995343  0.50483651
   0.05521987  0.10073870  0.50561497
   0.10946305  0.99997387  0.50500693
   0.27654677  0.09921506  0.50626685
   0.22371759  0.19999921  0.50587974
   0.05575117  0.30098315  0.50449892
   0.11116688  0.20102506  0.50547088
   0.28350453  0.29823883  0.50436151
   0.22732242  0.39885593  0.50108365
   0.05623024  0.49973902  0.50068047
   0.11369259  0.39991620  0.50241822
   0.28487555  0.49871802  0.49310844
   0.22724735  0.60030079  0.49471672
   0.05570130  0.69862506  0.50091178
   0.11374855  0.59955794  0.49898236
   0.28214300  0.70226079  0.49430677
   0.22276414  0.80014260  0.50018893
   0.05508162  0.89931609  0.50403143
   0.11063847  0.79893680  0.50213791
   0.27637499  0.90064962  0.50211843
   0.55463620  0.99985148  0.50507019
   0.38805589  0.09816782  0.50703115
   0.44378196  0.99984233  0.50508235
   0.61037898  0.09816747  0.50701682
   0.55548617  0.19602962  0.50738699
   0.44294099  0.19603522  0.50740674
   0.55606266  0.80370936  0.49478178
   0.38805619  0.90183685  0.50121440
   0.44233261  0.80370510  0.49477203
   0.61034068  0.90183916  0.50119404
   0.88896923  0.99999312  0.50500192
   0.72189042  0.09920686  0.50624178
   0.77741512  0.99993510  0.50483041
   0.94324147  0.10075162  0.50561773
   0.88727469  0.20103289  0.50546381
   0.71492122  0.29825702  0.50436149
   0.77471753  0.20000539  0.50587718
   0.94267383  0.30098871  0.50450207
   0.88473232  0.39992027  0.50243392
   0.71356049  0.49873070  0.49311443
   0.77110954  0.39887346  0.50109669
   0.94219925  0.49973340  0.50069237
   0.88466428  0.59954224  0.49901027
   0.71629689  0.70226575  0.49432647
   0.77116850  0.60029570  0.49472638
   0.94271043  0.69861542  0.50091978
   0.88778462  0.79893435  0.50215418
   0.72203026  0.90062322  0.50211843
   0.77566639  0.80013226  0.50019061
   0.94333261  0.89932076  0.50404113
   0.39261511  0.29363844  0.50519798
   0.60580640  0.29363925  0.50520571
   0.38898199  0.49873877  0.48272942
   0.60945988  0.49867718  0.48269887
   0.39006741  0.70815278  0.48828153
   0.60837658  0.70818357  0.48828091
   0.49925288  0.40324165  0.49649933
   0.49916941  0.59482951  0.44434731
 
 position of ions in cartesian coordinates  (Angst):
   2.80762584 12.49314009 10.10304026
   0.70021506  1.26060279 10.11861924
   1.39007941 12.49339615 10.10645079
   3.51287857  1.24157303 10.13166501
   2.84157536  2.50051652 10.12391797
   0.70708832  3.76195138 10.09628433
   1.41126034  2.51332920 10.11573570
   3.60142228  3.72767015 10.09353433
   2.88751837  4.98451415 10.02793617
   0.71330541  6.24469357 10.01986754
   1.44348414  4.99776442 10.05464428
   3.61899890  6.23190643  9.86833222
   2.88670301  7.50083456  9.90051804
   0.70669989  8.72907948 10.02449654
   1.44432370  7.49157407  9.98588409
   3.58438918  8.77446620  9.89231382
   2.82982988  9.99718270 10.01003060
   0.69893321 11.23602520 10.08692855
   1.40490764  9.98212903 10.04903465
   3.51118041 11.25267459 10.04864475
   7.04742862 12.49186763 10.10771683
   4.92995573  1.22849478 10.14696048
   5.63867067 12.49175332 10.10796015
   7.75528207  1.22849046 10.14667378
   7.05774980  2.45093711 10.15408184
   5.62750303  2.45100714 10.15447693
   7.06547328 10.04171300  9.90181996
   4.93045095 11.26750097 10.03055272
   5.62016900 10.04165977  9.90162484
   7.75528676 11.26752970 10.03014527
  11.29619996 12.49363664 10.10635054
   9.17239487  1.24147047 10.13116332
   9.87854851 12.49291111 10.10291812
  11.98537115  1.26076417 10.11867454
  11.27419364  2.51342699 10.11559412
   9.08395194  3.72789734 10.09353389
   9.84379278  2.50059377 10.12386668
  11.97827877  3.76202088 10.09634724
  11.24201124  4.99781534 10.05495855
   9.06681286  6.23206473  9.86845221
   9.79807387  4.98473323 10.02819711
  11.97237666  6.24462333 10.02010566
  11.24127488  7.49137812  9.98644272
   9.10170363  8.77452825  9.89270808
   9.79896171  7.50077114  9.90071131
  11.97898919  8.72895910 10.02465677
  11.28103626  9.98209851 10.04936011
   9.17465662 11.25234488 10.04864480
   9.85622225  9.99705351 10.01006420
  11.98700442 11.23608366 10.08712277
   4.98801609  3.67020806 10.11027417
   7.69729358  3.67021818 10.11042891
   4.94203703  6.23211988  9.66062217
   7.74391416  6.23135040  9.66001070
   4.95593659  8.84803943  9.77173378
   7.73025318  8.84842399  9.77172128
   6.34328202  5.03927826  9.93619246
   6.34249807  7.43226847  8.89250013
 


--------------------------------------------------------------------------------------------------------


 k-point  1 :   0.2500 0.2500 0.0000  plane waves:   80651
 k-point  2 :  -0.2500 0.2500 0.0000  plane waves:   80648

 maximum and minimum number of plane-waves per node :      2043     1980

 maximum number of plane-waves:     80651
 maximum index in each direction: 
   IXMAX=   23   IYMAX=   22   IZMAX=   36
   IXMIN=  -23   IYMIN=  -23   IZMIN=  -36


 parallel 3D FFT for wavefunctions:
    minimum data exchange during FFTs selected (reduces bandwidth)
 parallel 3D FFT for charge:
    minimum data exchange during FFTs selected (reduces bandwidth)


 FFT grid for exact exchange (Hartree Fock) 
  NGX = 70; NGY = 70; NGZ =112

 
 Radii for the augmentation spheres in the non-local exchange
 for species   1 augmentation radius   0.874 (default was   0.699)
       energy cutoff for augmentation   2000.0
 for species   2 augmentation radius   0.886 (default was   0.709)
       energy cutoff for augmentation   2000.0
 for species   3 augmentation radius   1.263 (default was   1.010)
       energy cutoff for augmentation   2000.0
 for species   4 augmentation radius   1.357 (default was   1.085)
       energy cutoff for augmentation   2000.0

 real space projection operators:
  total allocation   :       2541.05 KBytes
  max/ min on nodes  :         85.10         49.15

 Maximum index for augmentation-charges in exchange           98
  SETUP_FOCK is finished

 total amount of memory used by VASP MPI-rank0   142422. kBytes
=======================================================================

   base      :      30000. kBytes
   nonl-proj :       4266. kBytes
   fftplans  :      11851. kBytes
   grid      :      31266. kBytes
   one-center:         62. kBytes
   HF        :         23. kBytes
   nonlr-proj:       1948. kBytes
   wavefun   :      63006. kBytes
 
     INWAV:  cpu time    2.7992: real time    5.4780
 Broyden mixing: mesh for mixing (old mesh)
   NGX = 47   NGY = 45   NGZ = 73
  (NGX  =192   NGY  =192   NGZ  =300)
  gives a total of 154395 points

 charge density for first step will be calculated from the start-wavefunctions


--------------------------------------------------------------------------------------------------------


 Maximum index for augmentation-charges          336 (set IRDMAX)


--------------------------------------------------------------------------------------------------------


 initial charge from wavefunction
 First call to EWALD:  gamma=   0.121
 Maximum number of real-space cells 3x 3x 2
 Maximum number of reciprocal cells 2x 2x 4

    FEWALD:  cpu time    0.0024: real time    0.0025


--------------------------------------- Iteration      1(   1)  ---------------------------------------


    POTLOK:  cpu time    0.9185: real time    0.9233
    SETDIJ:  cpu time    1.0010: real time    1.0036
    TRIAL :  cpu time  167.6542: real time  168.1202
    CORREC:  cpu time    0.0010: real time    0.0010
    CHARGE:  cpu time    0.7539: real time    0.7557
    --------------------------------------------
      LOOP:  cpu time  170.3490: real time  170.8262

 eigenvalue-minimisations  :     0
 total energy-change (2. order) :-0.6088527E+03  (-0.5151440E+00)
 number of electron     249.0000007 magnetization       1.8529946
 augmentation part       13.2383958 magnetization       1.4156516

 DIPCOR: dipole corrections for dipol
 direction  3 min pos     1,
 dipolmoment          -0.000104      0.000145      0.659506 electrons x Angstroem
 Tr[quadrupol]     -6962.190138

 energy correction for charged system         0.000000 eV
 dipol+quadrupol energy correction            0.012434 eV
 added-field ion interaction          0.000000 eV  (added to PSCEN)


 Free energy of the ion-electron system (eV)
  ---------------------------------------------------
  alpha Z        PSCENC =       107.99035513
  Ewald energy   TEWEN  =     40480.11383404
  -Hartree energ DENC   =    -49694.76436196
  -exchange      EXHF   =       576.82730413
  -V(xc)+E(xc)   XCENC  =       663.41258808
  PAW double counting   =     27241.66001202   -27270.26431701
  entropy T*S    EENTRO =        -0.05547065
  eigenvalues    EBANDS =     -3414.34092899
  atomic energy  EATOM  =     10700.56923162
  ---------------------------------------------------
  free energy    TOTEN  =      -608.85266516 eV

  energy without entropy =     -608.79719451  energy(sigma->0) =     -608.82492983
  exchange ACFDT corr.  =        -0.08644085  see jH, gK, PRB 81, 115126


--------------------------------------------------------------------------------------------------------




--------------------------------------- Iteration      1(   2)  ---------------------------------------


    POTLOK:  cpu time    0.9281: real time    0.9318
    SETDIJ:  cpu time    0.9920: real time    0.9946
    TRIAL :  cpu time  166.6560: real time  167.1040
    CORREC:  cpu time    0.0014: real time    0.0014
    CHARGE:  cpu time    0.7545: real time    0.7564
    --------------------------------------------
      LOOP:  cpu time  169.3335: real time  169.7940

 eigenvalue-minimisations  :     0
 total energy-change (2. order) :-0.3818576E+00  (-0.4016083E+00)
 number of electron     249.0000007 magnetization       1.8690967
 augmentation part       13.1879456 magnetization       1.4458486

 DIPCOR: dipole corrections for dipol
 direction  3 min pos     1,
 dipolmoment          -0.000108      0.000151      0.684538 electrons x Angstroem
 Tr[quadrupol]     -6962.065904

 energy correction for charged system         0.000000 eV
 dipol+quadrupol energy correction            0.013396 eV
 added-field ion interaction          0.000000 eV  (added to PSCEN)


 Free energy of the ion-electron system (eV)
  ---------------------------------------------------
  alpha Z        PSCENC =       107.99131691
  Ewald energy   TEWEN  =     40480.11383404
  -Hartree energ DENC   =    -49680.32207974
  -exchange      EXHF   =       576.70321098
  -V(xc)+E(xc)   XCENC  =       662.93615595
  PAW double counting   =     27528.92789293   -27557.90331305
  entropy T*S    EENTRO =        -0.05565799
  eigenvalues    EBANDS =     -3428.19530180
  atomic energy  EATOM  =     10700.56923162
  ---------------------------------------------------
  free energy    TOTEN  =      -609.23452280 eV

  energy without entropy =     -609.17886481  energy(sigma->0) =     -609.20669381
  exchange ACFDT corr.  =        -0.09066946  see jH, gK, PRB 81, 115126


--------------------------------------------------------------------------------------------------------




--------------------------------------- Iteration      1(   3)  ---------------------------------------


    POTLOK:  cpu time    0.9335: real time    0.9367
    SETDIJ:  cpu time    0.9925: real time    0.9951
    TRIAL :  cpu time  166.5442: real time  166.9860
    CORREC:  cpu time    0.0013: real time    0.0013
    CHARGE:  cpu time    0.7534: real time    0.7553
    --------------------------------------------
      LOOP:  cpu time  169.2267: real time  169.6797

 eigenvalue-minimisations  :     0
 total energy-change (2. order) :-0.3018474E+00  (-0.2364582E+00)
 number of electron     249.0000007 magnetization       1.8733335
 augmentation part       13.1845186 magnetization       1.4676601

 DIPCOR: dipole corrections for dipol
 direction  3 min pos     1,
 dipolmoment          -0.000109      0.000152      0.691648 electrons x Angstroem
 Tr[quadrupol]     -6961.905332

 energy correction for charged system         0.000000 eV
 dipol+quadrupol energy correction            0.013676 eV
 added-field ion interaction          0.000000 eV  (added to PSCEN)


 Free energy of the ion-electron system (eV)
  ---------------------------------------------------
  alpha Z        PSCENC =       107.99159664
  Ewald energy   TEWEN  =     40480.11383404
  -Hartree energ DENC   =    -49662.22070399
  -exchange      EXHF   =       576.60426409
  -V(xc)+E(xc)   XCENC  =       662.47236233
  PAW double counting   =     27740.57822317   -27769.15046285
  entropy T*S    EENTRO =        -0.05570650
  eigenvalues    EBANDS =     -3446.43905723
  atomic energy  EATOM  =     10700.56923162
  ---------------------------------------------------
  free energy    TOTEN  =      -609.53637016 eV

  energy without entropy =     -609.48066367  energy(sigma->0) =     -609.50851692
  exchange ACFDT corr.  =        -0.05590349  see jH, gK, PRB 81, 115126


--------------------------------------------------------------------------------------------------------




--------------------------------------- Iteration      1(   4)  ---------------------------------------


    POTLOK:  cpu time    0.9342: real time    0.9366
    SETDIJ:  cpu time    0.9958: real time    0.9983
    TRIAL :  cpu time  165.6652: real time  166.0983
    CORREC:  cpu time    0.0010: real time    0.0010
    CHARGE:  cpu time    0.7526: real time    0.7546
    --------------------------------------------
      LOOP:  cpu time  168.3508: real time  168.7942

 eigenvalue-minimisations  :     0
 total energy-change (2. order) :-0.1797556E+00  (-0.1321375E+00)
 number of electron     249.0000007 magnetization       1.8664581
 augmentation part       13.1986605 magnetization       1.4802641

 DIPCOR: dipole corrections for dipol
 direction  3 min pos     1,
 dipolmoment          -0.000109      0.000152      0.690941 electrons x Angstroem
 Tr[quadrupol]     -6961.848925

 energy correction for charged system         0.000000 eV
 dipol+quadrupol energy correction            0.013648 eV
 added-field ion interaction          0.000000 eV  (added to PSCEN)


 Free energy of the ion-electron system (eV)
  ---------------------------------------------------
  alpha Z        PSCENC =       107.99156870
  Ewald energy   TEWEN  =     40480.11383404
  -Hartree energ DENC   =    -49655.33841895
  -exchange      EXHF   =       576.70807074
  -V(xc)+E(xc)   XCENC  =       662.30446592
  PAW double counting   =     27795.01995824   -27823.46034161
  entropy T*S    EENTRO =        -0.05562687
  eigenvalues    EBANDS =     -3453.56878802
  atomic energy  EATOM  =     10700.56923162
  ---------------------------------------------------
  free energy    TOTEN  =      -609.71612581 eV

  energy without entropy =     -609.66049894  energy(sigma->0) =     -609.68831238
  exchange ACFDT corr.  =        -0.06771937  see jH, gK, PRB 81, 115126


--------------------------------------------------------------------------------------------------------




--------------------------------------- Iteration      1(   5)  ---------------------------------------


    POTLOK:  cpu time    0.9327: real time    0.9365
    SETDIJ:  cpu time    0.9796: real time    0.9820
    TRIAL :  cpu time  165.8970: real time  166.9149
    CORREC:  cpu time    0.0010: real time    0.0010
    CHARGE:  cpu time    0.7703: real time    0.7724
    --------------------------------------------
      LOOP:  cpu time  168.5826: real time  169.6122

 eigenvalue-minimisations  :     0
 total energy-change (2. order) :-0.1026618E+00  (-0.8009913E-01)
 number of electron     249.0000007 magnetization       1.8589618
 augmentation part       13.2019344 magnetization       1.4870744

 DIPCOR: dipole corrections for dipol
 direction  3 min pos     1,
 dipolmoment          -0.000109      0.000153      0.695223 electrons x Angstroem
 Tr[quadrupol]     -6961.891461

 energy correction for charged system         0.000000 eV
 dipol+quadrupol energy correction            0.013817 eV
 added-field ion interaction          0.000000 eV  (added to PSCEN)


 Free energy of the ion-electron system (eV)
  ---------------------------------------------------
  alpha Z        PSCENC =       107.99173838
  Ewald energy   TEWEN  =     40480.11383404
  -Hartree energ DENC   =    -49657.08393765
  -exchange      EXHF   =       576.96310268
  -V(xc)+E(xc)   XCENC  =       662.34816012
  PAW double counting   =     27830.72657155   -27859.34606763
  entropy T*S    EENTRO =        -0.05553521
  eigenvalues    EBANDS =     -3452.04579387
  atomic energy  EATOM  =     10700.56923162
  ---------------------------------------------------
  free energy    TOTEN  =      -609.81878762 eV

  energy without entropy =     -609.76325241  energy(sigma->0) =     -609.79102001
  exchange ACFDT corr.  =        -0.06142928  see jH, gK, PRB 81, 115126


--------------------------------------------------------------------------------------------------------




--------------------------------------- Iteration      1(   6)  ---------------------------------------


    POTLOK:  cpu time    0.9343: real time    0.9368
    SETDIJ:  cpu time    0.9923: real time    0.9949
    TRIAL :  cpu time  166.4203: real time  166.8628
    CORREC:  cpu time    0.0011: real time    0.0011
    CHARGE:  cpu time    0.7496: real time    0.7516
    --------------------------------------------
      LOOP:  cpu time  169.0997: real time  169.5527

 eigenvalue-minimisations  :     0
 total energy-change (2. order) :-0.6517771E-01  (-0.5228658E-01)
 number of electron     249.0000007 magnetization       1.8500715
 augmentation part       13.1995499 magnetization       1.4896741

 DIPCOR: dipole corrections for dipol
 direction  3 min pos     1,
 dipolmoment          -0.000110      0.000155      0.703181 electrons x Angstroem
 Tr[quadrupol]     -6961.964146

 energy correction for charged system         0.000000 eV
 dipol+quadrupol energy correction            0.014136 eV
 added-field ion interaction          0.000000 eV  (added to PSCEN)


 Free energy of the ion-electron system (eV)
  ---------------------------------------------------
  alpha Z        PSCENC =       107.99205653
  Ewald energy   TEWEN  =     40480.11383404
  -Hartree energ DENC   =    -49660.92261144
  -exchange      EXHF   =       577.24016653
  -V(xc)+E(xc)   XCENC  =       662.45139037
  PAW double counting   =     27887.83949671   -27916.61511401
  entropy T*S    EENTRO =        -0.05541994
  eigenvalues    EBANDS =     -3448.49688047
  atomic energy  EATOM  =     10700.56923162
  ---------------------------------------------------
  free energy    TOTEN  =      -609.88396532 eV

  energy without entropy =     -609.82854538  energy(sigma->0) =     -609.85625535
  exchange ACFDT corr.  =        -0.05741917  see jH, gK, PRB 81, 115126


--------------------------------------------------------------------------------------------------------




--------------------------------------- Iteration      1(   7)  ---------------------------------------


    POTLOK:  cpu time    0.9265: real time    0.9325
    SETDIJ:  cpu time    0.9950: real time    0.9975
    TRIAL :  cpu time  165.9944: real time  166.4301
    CORREC:  cpu time    0.0013: real time    0.0013
    CHARGE:  cpu time    0.7501: real time    0.7520
    --------------------------------------------
      LOOP:  cpu time  168.6689: real time  169.1189

 eigenvalue-minimisations  :     0
 total energy-change (2. order) :-0.4327967E-01  (-0.3375556E-01)
 number of electron     249.0000007 magnetization       1.8366971
 augmentation part       13.2011571 magnetization       1.4895568

 DIPCOR: dipole corrections for dipol
 direction  3 min pos     1,
 dipolmoment          -0.000111      0.000156      0.709629 electrons x Angstroem
 Tr[quadrupol]     -6962.023984

 energy correction for charged system         0.000000 eV
 dipol+quadrupol energy correction            0.014396 eV
 added-field ion interaction          0.000000 eV  (added to PSCEN)


 Free energy of the ion-electron system (eV)
  ---------------------------------------------------
  alpha Z        PSCENC =       107.99231696
  Ewald energy   TEWEN  =     40480.11383404
  -Hartree energ DENC   =    -49664.15332023
  -exchange      EXHF   =       577.46839753
  -V(xc)+E(xc)   XCENC  =       662.54761081
  PAW double counting   =     27941.46648422   -27970.28523844
  entropy T*S    EENTRO =        -0.05523309
  eigenvalues    EBANDS =     -3445.59114157
  atomic energy  EATOM  =     10700.56923162
  ---------------------------------------------------
  free energy    TOTEN  =      -609.92724499 eV

  energy without entropy =     -609.87201190  energy(sigma->0) =     -609.89962844
  exchange ACFDT corr.  =        -0.05463677  see jH, gK, PRB 81, 115126


--------------------------------------------------------------------------------------------------------




--------------------------------------- Iteration      1(   8)  ---------------------------------------


    POTLOK:  cpu time    0.9248: real time    0.9283
    SETDIJ:  cpu time    0.9895: real time    0.9923
    TRIAL :  cpu time  165.7030: real time  166.1355
    CORREC:  cpu time    0.0012: real time    0.0012
    CHARGE:  cpu time    0.7500: real time    0.7518
    --------------------------------------------
      LOOP:  cpu time  168.3704: real time  168.8143

 eigenvalue-minimisations  :     0
 total energy-change (2. order) :-0.2874894E-01  (-0.2307255E-01)
 number of electron     249.0000007 magnetization       1.8187269
 augmentation part       13.2072230 magnetization       1.4882169

 DIPCOR: dipole corrections for dipol
 direction  3 min pos     1,
 dipolmoment          -0.000112      0.000157      0.712776 electrons x Angstroem
 Tr[quadrupol]     -6962.060720

 energy correction for charged system         0.000000 eV
 dipol+quadrupol energy correction            0.014524 eV
 added-field ion interaction          0.000000 eV  (added to PSCEN)


 Free energy of the ion-electron system (eV)
  ---------------------------------------------------
  alpha Z        PSCENC =       107.99244494
  Ewald energy   TEWEN  =     40480.11383404
  -Hartree energ DENC   =    -49666.45295481
  -exchange      EXHF   =       577.63107946
  -V(xc)+E(xc)   XCENC  =       662.62110782
  PAW double counting   =     27972.09285149   -28000.92170070
  entropy T*S    EENTRO =        -0.05495654
  eigenvalues    EBANDS =     -3443.54665469
  atomic energy  EATOM  =     10700.56923162
  ---------------------------------------------------
  free energy    TOTEN  =      -609.95599393 eV

  energy without entropy =     -609.90103739  energy(sigma->0) =     -609.92851566
  exchange ACFDT corr.  =        -0.05238338  see jH, gK, PRB 81, 115126


--------------------------------------------------------------------------------------------------------




--------------------------------------- Iteration      1(   9)  ---------------------------------------


    POTLOK:  cpu time    0.9244: real time    0.9270
    SETDIJ:  cpu time    0.9950: real time    0.9978
    TRIAL :  cpu time  165.8370: real time  166.2787
    CORREC:  cpu time    0.0010: real time    0.0010
    CHARGE:  cpu time    0.7499: real time    0.7518
    --------------------------------------------
      LOOP:  cpu time  168.5095: real time  168.9619

 eigenvalue-minimisations  :     0
 total energy-change (2. order) :-0.2020730E-01  (-0.1642536E-01)
 number of electron     249.0000007 magnetization       1.7979506
 augmentation part       13.2132074 magnetization       1.4863711

 DIPCOR: dipole corrections for dipol
 direction  3 min pos     1,
 dipolmoment          -0.000112      0.000157      0.713425 electrons x Angstroem
 Tr[quadrupol]     -6962.079011

 energy correction for charged system         0.000000 eV
 dipol+quadrupol energy correction            0.014550 eV
 added-field ion interaction          0.000000 eV  (added to PSCEN)


 Free energy of the ion-electron system (eV)
  ---------------------------------------------------
  alpha Z        PSCENC =       107.99247138
  Ewald energy   TEWEN  =     40480.11383404
  -Hartree energ DENC   =    -49667.94204382
  -exchange      EXHF   =       577.73691529
  -V(xc)+E(xc)   XCENC  =       662.66986614
  PAW double counting   =     27982.24038254   -28011.10456335
  entropy T*S    EENTRO =        -0.05460017
  eigenvalues    EBANDS =     -3442.19733852
  atomic energy  EATOM  =     10700.56923162
  ---------------------------------------------------
  free energy    TOTEN  =      -609.97620123 eV

  energy without entropy =     -609.92160106  energy(sigma->0) =     -609.94890114
  exchange ACFDT corr.  =        -0.05051893  see jH, gK, PRB 81, 115126


--------------------------------------------------------------------------------------------------------




--------------------------------------- Iteration      1(  10)  ---------------------------------------


    POTLOK:  cpu time    0.9220: real time    0.9253
    SETDIJ:  cpu time    0.9825: real time    0.9850
    TRIAL :  cpu time  165.6384: real time  166.0723
    CORREC:  cpu time    0.0011: real time    0.0011
    CHARGE:  cpu time    0.7531: real time    0.7550
    --------------------------------------------
      LOOP:  cpu time  168.2989: real time  168.7441

 eigenvalue-minimisations  :     0
 total energy-change (2. order) :-0.1459321E-01  (-0.1190254E-01)
 number of electron     249.0000007 magnetization       1.7756807
 augmentation part       13.2162687 magnetization       1.4841708

 DIPCOR: dipole corrections for dipol
 direction  3 min pos     1,
 dipolmoment          -0.000112      0.000157      0.713030 electrons x Angstroem
 Tr[quadrupol]     -6962.086435

 energy correction for charged system         0.000000 eV
 dipol+quadrupol energy correction            0.014534 eV
 added-field ion interaction          0.000000 eV  (added to PSCEN)


 Free energy of the ion-electron system (eV)
  ---------------------------------------------------
  alpha Z        PSCENC =       107.99245530
  Ewald energy   TEWEN  =     40480.11383404
  -Hartree energ DENC   =    -49668.72775777
  -exchange      EXHF   =       577.80243533
  -V(xc)+E(xc)   XCENC  =       662.69667525
  PAW double counting   =     27983.30104133   -28012.21220660
  entropy T*S    EENTRO =        -0.05417427
  eigenvalues    EBANDS =     -3441.47190277
  atomic energy  EATOM  =     10700.56923162
  ---------------------------------------------------
  free energy    TOTEN  =      -609.99079443 eV

  energy without entropy =     -609.93662016  energy(sigma->0) =     -609.96370730
  exchange ACFDT corr.  =        -0.04912099  see jH, gK, PRB 81, 115126


--------------------------------------------------------------------------------------------------------




--------------------------------------- Iteration      1(  11)  ---------------------------------------


    POTLOK:  cpu time    0.9232: real time    0.9261
    SETDIJ:  cpu time    0.9916: real time    0.9942
    TRIAL :  cpu time  165.7597: real time  166.1936
    CORREC:  cpu time    0.0010: real time    0.0010
    CHARGE:  cpu time    0.7551: real time    0.7573
    --------------------------------------------
      LOOP:  cpu time  168.4328: real time  168.8777

 eigenvalue-minimisations  :     0
 total energy-change (2. order) :-0.1072600E-01  (-0.8912965E-02)
 number of electron     249.0000007 magnetization       1.7521845
 augmentation part       13.2170617 magnetization       1.4815592

 DIPCOR: dipole corrections for dipol
 direction  3 min pos     1,
 dipolmoment          -0.000112      0.000157      0.712783 electrons x Angstroem
 Tr[quadrupol]     -6962.089400

 energy correction for charged system         0.000000 eV
 dipol+quadrupol energy correction            0.014524 eV
 added-field ion interaction          0.000000 eV  (added to PSCEN)


 Free energy of the ion-electron system (eV)
  ---------------------------------------------------
  alpha Z        PSCENC =       107.99244523
  Ewald energy   TEWEN  =     40480.11383404
  -Hartree energ DENC   =    -49669.01923800
  -exchange      EXHF   =       577.84450275
  -V(xc)+E(xc)   XCENC  =       662.70846054
  PAW double counting   =     27983.73175899   -28012.67621240
  entropy T*S    EENTRO =        -0.05367529
  eigenvalues    EBANDS =     -3441.21212894
  atomic energy  EATOM  =     10700.56923162
  ---------------------------------------------------
  free energy    TOTEN  =      -610.00152043 eV

  energy without entropy =     -609.94784514  energy(sigma->0) =     -609.97468279
  exchange ACFDT corr.  =        -0.04812345  see jH, gK, PRB 81, 115126


--------------------------------------------------------------------------------------------------------




--------------------------------------- Iteration      1(  12)  ---------------------------------------


    POTLOK:  cpu time    0.9232: real time    0.9270
    SETDIJ:  cpu time    0.9871: real time    0.9902
    TRIAL :  cpu time  165.9148: real time  166.3484
    CORREC:  cpu time    0.0013: real time    0.0013
    CHARGE:  cpu time    0.7504: real time    0.7524
    --------------------------------------------
      LOOP:  cpu time  168.5785: real time  169.0251

 eigenvalue-minimisations  :     0
 total energy-change (2. order) :-0.8117487E-02  (-0.6861943E-02)
 number of electron     249.0000007 magnetization       1.7272311
 augmentation part       13.2176406 magnetization       1.4786226

 DIPCOR: dipole corrections for dipol
 direction  3 min pos     1,
 dipolmoment          -0.000112      0.000157      0.713093 electrons x Angstroem
 Tr[quadrupol]     -6962.091662

 energy correction for charged system         0.000000 eV
 dipol+quadrupol energy correction            0.014537 eV
 added-field ion interaction          0.000000 eV  (added to PSCEN)


 Free energy of the ion-electron system (eV)
  ---------------------------------------------------
  alpha Z        PSCENC =       107.99245785
  Ewald energy   TEWEN  =     40480.11383404
  -Hartree energ DENC   =    -49669.10162813
  -exchange      EXHF   =       577.87565328
  -V(xc)+E(xc)   XCENC  =       662.71359058
  PAW double counting   =     27985.62679287   -28014.58431874
  entropy T*S    EENTRO =        -0.05308904
  eigenvalues    EBANDS =     -3441.16157600
  atomic energy  EATOM  =     10700.56923162
  ---------------------------------------------------
  free energy    TOTEN  =      -610.00963792 eV

  energy without entropy =     -609.95654889  energy(sigma->0) =     -609.98309340
  exchange ACFDT corr.  =        -0.04730788  see jH, gK, PRB 81, 115126


--------------------------------------------------------------------------------------------------------




--------------------------------------- Iteration      1(  13)  ---------------------------------------


    POTLOK:  cpu time    0.9230: real time    0.9295
    SETDIJ:  cpu time    0.9890: real time    0.9915
    TRIAL :  cpu time  165.8919: real time  166.3449
    CORREC:  cpu time    0.0014: real time    0.0014
    CHARGE:  cpu time    0.7511: real time    0.7531
    --------------------------------------------
      LOOP:  cpu time  168.5588: real time  169.0260

 eigenvalue-minimisations  :     0
 total energy-change (2. order) :-0.6310934E-02  (-0.5440278E-02)
 number of electron     249.0000007 magnetization       1.7006820
 augmentation part       13.2188677 magnetization       1.4755046

 DIPCOR: dipole corrections for dipol
 direction  3 min pos     1,
 dipolmoment          -0.000112      0.000157      0.713637 electrons x Angstroem
 Tr[quadrupol]     -6962.094405

 energy correction for charged system         0.000000 eV
 dipol+quadrupol energy correction            0.014559 eV
 added-field ion interaction          0.000000 eV  (added to PSCEN)


 Free energy of the ion-electron system (eV)
  ---------------------------------------------------
  alpha Z        PSCENC =       107.99248005
  Ewald energy   TEWEN  =     40480.11383404
  -Hartree energ DENC   =    -49669.19889219
  -exchange      EXHF   =       577.90258002
  -V(xc)+E(xc)   XCENC  =       662.71817368
  PAW double counting   =     27987.59673602   -28016.55919557
  entropy T*S    EENTRO =        -0.05240088
  eigenvalues    EBANDS =     -3441.09780749
  atomic energy  EATOM  =     10700.56923162
  ---------------------------------------------------
  free energy    TOTEN  =      -610.01594886 eV

  energy without entropy =     -609.96354798  energy(sigma->0) =     -609.98974842
  exchange ACFDT corr.  =        -0.04649428  see jH, gK, PRB 81, 115126


--------------------------------------------------------------------------------------------------------




--------------------------------------- Iteration      1(  14)  ---------------------------------------


    POTLOK:  cpu time    0.9200: real time    0.9230
    SETDIJ:  cpu time    0.9790: real time    0.9814
    TRIAL :  cpu time  167.5140: real time  167.9836
    CORREC:  cpu time    0.0013: real time    0.0013
    CHARGE:  cpu time    0.7499: real time    0.7517
    --------------------------------------------
      LOOP:  cpu time  170.1657: real time  170.6461

 eigenvalue-minimisations  :     0
 total energy-change (2. order) :-0.5065743E-02  (-0.4446774E-02)
 number of electron     249.0000007 magnetization       1.6726472
 augmentation part       13.2202867 magnetization       1.4721801

 DIPCOR: dipole corrections for dipol
 direction  3 min pos     1,
 dipolmoment          -0.000112      0.000157      0.713996 electrons x Angstroem
 Tr[quadrupol]     -6962.097478

 energy correction for charged system         0.000000 eV
 dipol+quadrupol energy correction            0.014574 eV
 added-field ion interaction          0.000000 eV  (added to PSCEN)


 Free energy of the ion-electron system (eV)
  ---------------------------------------------------
  alpha Z        PSCENC =       107.99249468
  Ewald energy   TEWEN  =     40480.11383404
  -Hartree energ DENC   =    -49669.37311421
  -exchange      EXHF   =       577.92705879
  -V(xc)+E(xc)   XCENC  =       662.72373258
  PAW double counting   =     27988.86624821   -28017.83715257
  entropy T*S    EENTRO =        -0.05160117
  eigenvalues    EBANDS =     -3440.95094686
  atomic energy  EATOM  =     10700.56923162
  ---------------------------------------------------
  free energy    TOTEN  =      -610.02101460 eV

  energy without entropy =     -609.96941343  energy(sigma->0) =     -609.99521401
  exchange ACFDT corr.  =        -0.04559793  see jH, gK, PRB 81, 115126


--------------------------------------------------------------------------------------------------------




--------------------------------------- Iteration      1(  15)  ---------------------------------------


    POTLOK:  cpu time    0.9195: real time    0.9229
    SETDIJ:  cpu time    0.9821: real time    0.9847
    TRIAL :  cpu time  166.4690: real time  166.8913
    CORREC:  cpu time    0.0013: real time    0.0013
    CHARGE:  cpu time    0.7497: real time    0.7516
    --------------------------------------------
      LOOP:  cpu time  169.1236: real time  169.5574

 eigenvalue-minimisations  :     0
 total energy-change (2. order) :-0.4190286E-02  (-0.3739911E-02)
 number of electron     249.0000007 magnetization       1.6433392
 augmentation part       13.2212712 magnetization       1.4685171

 DIPCOR: dipole corrections for dipol
 direction  3 min pos     1,
 dipolmoment          -0.000112      0.000157      0.714100 electrons x Angstroem
 Tr[quadrupol]     -6962.100540

 energy correction for charged system         0.000000 eV
 dipol+quadrupol energy correction            0.014578 eV
 added-field ion interaction          0.000000 eV  (added to PSCEN)


 Free energy of the ion-electron system (eV)
  ---------------------------------------------------
  alpha Z        PSCENC =       107.99249895
  Ewald energy   TEWEN  =     40480.11383404
  -Hartree energ DENC   =    -49669.57661212
  -exchange      EXHF   =       577.94875597
  -V(xc)+E(xc)   XCENC  =       662.72897707
  PAW double counting   =     27990.16287887   -28019.14567971
  entropy T*S    EENTRO =        -0.05068369
  eigenvalues    EBANDS =     -3440.76748839
  atomic energy  EATOM  =     10700.56923162
  ---------------------------------------------------
  free energy    TOTEN  =      -610.02520488 eV

  energy without entropy =     -609.97452119  energy(sigma->0) =     -609.99986304
  exchange ACFDT corr.  =        -0.04458042  see jH, gK, PRB 81, 115126


--------------------------------------------------------------------------------------------------------




--------------------------------------- Iteration      1(  16)  ---------------------------------------


    POTLOK:  cpu time    0.9173: real time    0.9204
    SETDIJ:  cpu time    0.9873: real time    0.9897
    TRIAL :  cpu time  166.4952: real time  166.9156
    CORREC:  cpu time    0.0012: real time    0.0012
    CHARGE:  cpu time    0.7517: real time    0.7536
    --------------------------------------------
      LOOP:  cpu time  169.1540: real time  169.5859

 eigenvalue-minimisations  :     0
 total energy-change (2. order) :-0.3561134E-02  (-0.3236067E-02)
 number of electron     249.0000007 magnetization       1.6129445
 augmentation part       13.2217610 magnetization       1.4645487

 DIPCOR: dipole corrections for dipol
 direction  3 min pos     1,
 dipolmoment          -0.000112      0.000157      0.714095 electrons x Angstroem
 Tr[quadrupol]     -6962.103309

 energy correction for charged system         0.000000 eV
 dipol+quadrupol energy correction            0.014578 eV
 added-field ion interaction          0.000000 eV  (added to PSCEN)


 Free energy of the ion-electron system (eV)
  ---------------------------------------------------
  alpha Z        PSCENC =       107.99249875
  Ewald energy   TEWEN  =     40480.11383404
  -Hartree energ DENC   =    -49669.75140654
  -exchange      EXHF   =       577.96732842
  -V(xc)+E(xc)   XCENC  =       662.73267031
  PAW double counting   =     27991.95599783   -28020.94812030
  entropy T*S    EENTRO =        -0.04964265
  eigenvalues    EBANDS =     -3440.61011645
  atomic energy  EATOM  =     10700.56923162
  ---------------------------------------------------
  free energy    TOTEN  =      -610.02876602 eV

  energy without entropy =     -609.97912337  energy(sigma->0) =     -610.00394469
  exchange ACFDT corr.  =        -0.04342132  see jH, gK, PRB 81, 115126


--------------------------------------------------------------------------------------------------------




--------------------------------------- Iteration      1(  17)  ---------------------------------------


    POTLOK:  cpu time    0.9179: real time    0.9215
    SETDIJ:  cpu time    0.9801: real time    0.9830
    TRIAL :  cpu time  166.3644: real time  166.7937
    CORREC:  cpu time    0.0009: real time    0.0009
    CHARGE:  cpu time    0.7501: real time    0.7519
    --------------------------------------------
      LOOP:  cpu time  169.0149: real time  169.4561

 eigenvalue-minimisations  :     0
 total energy-change (2. order) :-0.3106338E-02  (-0.2870672E-02)
 number of electron     249.0000007 magnetization       1.5816311
 augmentation part       13.2221096 magnetization       1.4604628

 DIPCOR: dipole corrections for dipol
 direction  3 min pos     1,
 dipolmoment          -0.000112      0.000157      0.714082 electrons x Angstroem
 Tr[quadrupol]     -6962.105650

 energy correction for charged system         0.000000 eV
 dipol+quadrupol energy correction            0.014577 eV
 added-field ion interaction          0.000000 eV  (added to PSCEN)


 Free energy of the ion-electron system (eV)
  ---------------------------------------------------
  alpha Z        PSCENC =       107.99249820
  Ewald energy   TEWEN  =     40480.11383404
  -Hartree energ DENC   =    -49669.88548568
  -exchange      EXHF   =       577.98312882
  -V(xc)+E(xc)   XCENC  =       662.73489018
  PAW double counting   =     27993.84601322   -28022.84247745
  entropy T*S    EENTRO =        -0.04847278
  eigenvalues    EBANDS =     -3440.49386266
  atomic energy  EATOM  =     10700.56923162
  ---------------------------------------------------
  free energy    TOTEN  =      -610.03187236 eV

  energy without entropy =     -609.98339958  energy(sigma->0) =     -610.00763597
  exchange ACFDT corr.  =        -0.04211585  see jH, gK, PRB 81, 115126


--------------------------------------------------------------------------------------------------------




--------------------------------------- Iteration      1(  18)  ---------------------------------------


    POTLOK:  cpu time    0.9186: real time    0.9215
    SETDIJ:  cpu time    0.9725: real time    0.9763
[...]
  augment    44.66620    44.81446    48.74421    -0.00028     0.74036    -0.00060
  Kinetic  3715.92341  3777.63339  4238.71096    -0.06465    -3.18820    -0.00763
  Fock     -349.71844  -348.54369  -326.10696    -0.00168    -0.96952     0.00064
  -------------------------------------------------------------------------------------
  Total     -46.43428   -41.70717    -1.23532    -0.05282    -0.35269    -0.00735
  in kB     -23.41798   -21.03397    -0.62300    -0.02664    -0.17787    -0.00371
  external pressure =      -15.02 kB  Pullay stress =        0.00 kB


 VOLUME and BASIS-vectors are now :
 -----------------------------------------------------------------------------
  energy-cutoff  :      500.00
  volume of cell :     3176.87
      direct lattice vectors                 reciprocal lattice vectors
    12.708200000  0.000000000  0.000000000     0.078689350 -0.000003708  0.000012361
     0.000588648 12.491499986  0.000000000     0.000000000  0.080054437 -0.000017605
    -0.003143556  0.004401127 20.012499269     0.000000000  0.000000000  0.049968771

  length of vectors
    12.708200000 12.491500000 20.012500000     0.078689351  0.080054439  0.049968771


 FORCES acting on ions:
    Electron-Ion                     Ewald-Force                    Non-Local-Force
 -----------------------------------------------------------------------------------------------
   0.940E+01 -.835E+00 -.174E+02   -.975E+01 0.821E+00 0.175E+02   0.285E+00 -.255E-01 -.440E-01
   -.297E-01 -.198E+01 -.155E+02   -.320E-01 0.211E+01 0.156E+02   0.138E-01 -.115E+00 -.226E-01
   0.120E+02 -.704E+00 -.152E+02   -.121E+02 0.723E+00 0.152E+02   0.170E+00 -.123E-01 0.190E-03
   0.193E+02 0.609E+01 -.226E+02   -.197E+02 -.613E+01 0.225E+02   0.355E+00 0.130E+00 -.216E-02
   0.205E+02 0.536E+00 -.218E+02   -.208E+02 -.441E+00 0.219E+02   0.315E+00 -.189E+00 -.332E-01
   0.506E+01 -.231E+01 -.163E+02   -.518E+01 0.269E+01 0.163E+02   0.868E-01 -.374E+00 -.299E-01
   0.106E+02 0.425E+00 -.164E+02   -.110E+02 -.864E-01 0.164E+02   0.327E+00 -.335E+00 0.321E-01
   0.512E+02 -.204E+01 -.248E+02   -.546E+02 0.289E+01 0.246E+02   0.364E+01 -.833E+00 0.216E+00
   0.272E+02 0.153E+01 -.196E+02   -.271E+02 -.599E+00 0.199E+02   -.197E+00 -.881E+00 -.204E+00
   0.671E+01 0.494E+00 -.720E+01   -.692E+01 -.489E+00 0.717E+01   0.144E+00 -.280E-02 0.291E-01
   0.105E+02 -.162E+01 -.143E+02   -.103E+02 0.185E+01 0.143E+02   -.126E+00 -.237E+00 -.537E-01
   0.739E+02 0.118E+01 -.197E+01   -.755E+02 -.134E+01 0.273E+01   0.211E+01 0.879E-01 -.851E+00
   0.278E+02 0.893E+00 0.501E+01   -.277E+02 -.176E+01 -.517E+01   -.204E+00 0.907E+00 0.167E+00
   0.478E+01 0.308E+01 -.101E+02   -.489E+01 -.350E+01 0.101E+02   0.884E-01 0.395E+00 -.203E-01
   0.111E+02 0.227E+01 -.495E+01   -.109E+02 -.252E+01 0.501E+01   -.153E+00 0.246E+00 -.697E-01
   0.567E+02 0.355E+01 -.248E+01   -.602E+02 -.446E+01 0.292E+01   0.357E+01 0.806E+00 -.454E+00
   0.212E+02 -.254E+01 -.139E+02   -.216E+02 0.239E+01 0.140E+02   0.387E+00 0.214E+00 -.105E+00
   -.407E+00 0.753E+00 -.150E+02   0.346E+00 -.843E+00 0.151E+02   0.205E-01 0.908E-01 -.335E-01
   0.123E+02 -.399E+00 -.145E+02   -.127E+02 0.605E-01 0.145E+02   0.370E+00 0.331E+00 -.657E-01
   0.193E+02 -.758E+01 -.139E+02   -.197E+02 0.768E+01 0.138E+02   0.328E+00 -.118E+00 0.578E-01
   -.662E+01 -.707E+00 -.259E+02   0.626E+01 0.740E+00 0.260E+02   0.275E+00 -.297E-01 -.465E-01
   0.107E+02 0.145E+02 -.304E+02   -.107E+02 -.150E+02 0.304E+02   0.218E-01 0.464E+00 -.741E-01
   0.660E+01 -.662E+00 -.260E+02   -.624E+01 0.695E+00 0.260E+02   -.275E+00 -.260E-01 -.471E-01
   -.108E+02 0.146E+02 -.303E+02   0.107E+02 -.150E+02 0.304E+02   -.267E-01 0.464E+00 -.799E-01
   0.153E+01 0.417E+02 -.383E+02   -.259E+01 -.442E+02 0.384E+02   0.137E+01 0.273E+01 -.215E+00
   -.154E+01 0.416E+02 -.385E+02   0.260E+01 -.442E+02 0.387E+02   -.137E+01 0.273E+01 -.225E+00
   0.619E+01 -.446E+02 -.990E+01   -.723E+01 0.474E+02 0.108E+02   0.116E+01 -.264E+01 -.871E+00
   0.104E+02 -.161E+02 -.174E+02   -.102E+02 0.165E+02 0.176E+02   -.590E-01 -.488E+00 -.135E+00
   -.616E+01 -.447E+02 -.978E+01   0.720E+01 0.474E+02 0.107E+02   -.115E+01 -.264E+01 -.861E+00
   -.104E+02 -.161E+02 -.172E+02   0.103E+02 0.165E+02 0.174E+02   0.663E-01 -.488E+00 -.126E+00
   -.119E+02 -.769E+00 -.152E+02   0.121E+02 0.789E+00 0.152E+02   -.170E+00 -.210E-01 0.409E-02
   -.193E+02 0.606E+01 -.224E+02   0.197E+02 -.609E+01 0.223E+02   -.360E+00 0.133E+00 0.377E-02
   -.940E+01 -.781E+00 -.174E+02   0.975E+01 0.764E+00 0.175E+02   -.284E+00 -.185E-01 -.465E-01
   0.623E-01 -.196E+01 -.156E+02   -.166E-02 0.209E+01 0.156E+02   -.234E-01 -.120E+00 -.273E-01
   -.106E+02 0.464E+00 -.163E+02   0.109E+02 -.127E+00 0.163E+02   -.328E+00 -.335E+00 0.359E-01
   -.512E+02 -.199E+01 -.248E+02   0.546E+02 0.284E+01 0.246E+02   -.364E+01 -.838E+00 0.220E+00
   -.205E+02 0.582E+00 -.219E+02   0.208E+02 -.487E+00 0.219E+02   -.315E+00 -.191E+00 -.384E-01
   -.508E+01 -.230E+01 -.163E+02   0.520E+01 0.268E+01 0.163E+02   -.837E-01 -.375E+00 -.305E-01
   -.105E+02 -.161E+01 -.144E+02   0.103E+02 0.184E+01 0.144E+02   0.128E+00 -.237E+00 -.550E-01
   -.739E+02 0.106E+01 -.203E+01   0.755E+02 -.123E+01 0.279E+01   -.211E+01 0.804E-01 -.855E+00
   -.272E+02 0.159E+01 -.197E+02   0.271E+02 -.662E+00 0.200E+02   0.198E+00 -.886E+00 -.204E+00
   -.675E+01 0.505E+00 -.727E+01   0.696E+01 -.500E+00 0.724E+01   -.147E+00 -.834E-03 0.307E-01
   -.111E+02 0.224E+01 -.516E+01   0.109E+02 -.249E+01 0.522E+01   0.157E+00 0.251E+00 -.755E-01
   -.566E+02 0.360E+01 -.263E+01   0.602E+02 -.452E+01 0.307E+01   -.357E+01 0.806E+00 -.462E+00
   -.278E+02 0.864E+00 0.500E+01   0.277E+02 -.173E+01 -.517E+01   0.207E+00 0.907E+00 0.174E+00
   -.478E+01 0.311E+01 -.102E+02   0.490E+01 -.353E+01 0.102E+02   -.859E-01 0.398E+00 -.163E-01
   -.124E+02 -.439E+00 -.146E+02   0.128E+02 0.101E+00 0.147E+02   -.372E+00 0.332E+00 -.688E-01
   -.193E+02 -.764E+01 -.139E+02   0.197E+02 0.774E+01 0.138E+02   -.322E+00 -.110E+00 0.539E-01
   -.212E+02 -.259E+01 -.138E+02   0.216E+02 0.244E+01 0.139E+02   -.390E+00 0.216E+00 -.978E-01
   0.436E+00 0.761E+00 -.151E+02   -.377E+00 -.849E+00 0.152E+02   -.144E-01 0.879E-01 -.369E-01
   0.264E+02 -.183E+02 -.486E+02   -.163E+02 0.363E+02 0.486E+02   -.983E+01 -.173E+02 0.149E+00
   -.264E+02 -.181E+02 -.488E+02   0.164E+02 0.361E+02 0.487E+02   0.982E+01 -.173E+02 0.130E+00
   0.587E+02 0.155E+02 0.520E+02   -.432E+02 -.116E+02 -.551E+02   -.151E+02 -.300E+01 0.266E+01
   -.587E+02 0.153E+02 0.526E+02   0.432E+02 -.114E+02 -.557E+02   0.151E+02 -.298E+01 0.268E+01
   0.232E+02 0.171E+02 0.951E+01   -.115E+02 -.378E+02 -.116E+02   -.109E+02 0.196E+02 0.192E+01
   -.232E+02 0.172E+02 0.967E+01   0.115E+02 -.380E+02 -.118E+02   0.109E+02 0.196E+02 0.194E+01
   0.213E+00 0.565E+02 -.672E+02   -.216E+00 -.568E+02 0.665E+02   -.127E-01 -.104E+01 0.106E+01
   -.194E+00 -.761E+02 0.818E+03   0.206E+00 0.742E+02 -.805E+03   -.931E-03 0.136E+01 -.111E+02
 -----------------------------------------------------------------------------------------------
   0.206E-01 0.615E+00 0.693E+01   0.112E-12 -.568E-13 0.000E+00   -.189E-01 -.776E+00 -.626E+01
 
 
 POSITION                                       TOTAL-FORCE (eV/Angst)
 -----------------------------------------------------------------------------------
      2.80763     12.49314     10.10304        -0.060349     -0.041378      0.001613
      0.70022      1.26060     10.11862        -0.055534      0.002090     -0.000411
      1.39008     12.49340     10.10645         0.061078      0.005364     -0.003559
      3.51288      1.24157     10.13167         0.023372      0.102664     -0.023385
      2.84158      2.50052     10.12392        -0.050117     -0.108433     -0.003762
      0.70709      3.76195     10.09628        -0.027199     -0.010260     -0.007873
      1.41126      2.51333     10.11574         0.017597     -0.012527     -0.002756
      3.60142      3.72767     10.09353         0.454659     -0.033922     -0.033486
      2.88752      4.98451     10.02794        -0.125104      0.010844      0.013685
      0.71331      6.24469     10.01987        -0.051613      0.001990     -0.000919
      1.44348      4.99776     10.05464         0.057605     -0.020497     -0.007457
      3.61900      6.23191      9.86833         0.652532     -0.074670     -0.144821
      2.88670      7.50083      9.90052        -0.123886      0.079820      0.015993
      0.70670      8.72908     10.02450        -0.019404     -0.001855     -0.012310
      1.44432      7.49157      9.98588         0.053831      0.011506     -0.015570
      3.58439      8.77447      9.89231         0.254019     -0.057401     -0.039948
      2.82983      9.99718     10.01003        -0.011671      0.074370     -0.014593
      0.69893     11.23603     10.08693        -0.048808      0.006684     -0.004811
      1.40491      9.98213     10.04903         0.016204      0.009255     -0.019191
      3.51118     11.25267     10.04864        -0.011969     -0.024975      0.007110
      7.04743     12.49187     10.10772        -0.076034      0.001209     -0.010193
      4.92996      1.22849     10.14696         0.067926      0.011639     -0.021386
      5.63867     12.49175     10.10796         0.076748      0.004642     -0.010752
      7.75528      1.22849     10.14667        -0.070876      0.011415     -0.024816
      7.05775      2.45094     10.15408         0.388245      0.310104     -0.040451
      5.62750      2.45101     10.15448        -0.386968      0.306291     -0.048633
      7.06547     10.04171      9.90182         0.190546     -0.025107      0.012755
      4.93045     11.26750     10.03055         0.106518     -0.082929     -0.010773
      5.62017     10.04166      9.90162        -0.182330     -0.025342      0.019480
      7.75529     11.26753     10.03015        -0.097581     -0.083260     -0.004433
     11.29620     12.49364     10.10635        -0.062553     -0.001859     -0.000642
      9.17239      1.24147     10.13116        -0.025665      0.106647     -0.018611
      9.87855     12.49291     10.10292         0.061120     -0.036407     -0.000227
     11.98537      1.26076     10.11867         0.044318     -0.003164     -0.004113
     11.27419      2.51343     10.11559        -0.020407     -0.014264      0.000242
      9.08395      3.72790     10.09353        -0.451669     -0.040909     -0.031529
      9.84379      2.50059     10.12387         0.049116     -0.110655     -0.007212
     11.97828      3.76202     10.09635         0.030544     -0.011815     -0.008184
     11.24201      4.99782     10.05496        -0.054377     -0.021101     -0.008634
      9.06681      6.23206      9.86845        -0.658023     -0.083160     -0.148242
      9.79807      4.98473     10.02820         0.125137      0.005161      0.014393
     11.97238      6.24462     10.02011         0.049953      0.003806     -0.000654
     11.24127      7.49138      9.98644        -0.049382      0.016974     -0.020626
      9.10170      8.77453      9.89271        -0.263279     -0.058013     -0.046742
      9.79896      7.50077      9.90071         0.128037      0.083225      0.020136
     11.97899      8.72896     10.02466         0.021555      0.001149     -0.009999
     11.28104      9.98210     10.04936        -0.015909      0.011119     -0.021565
      9.17466     11.25234     10.04864         0.016768     -0.013822      0.003879
      9.85622      9.99705     10.01006         0.008974      0.078862     -0.009247
     11.98700     11.23608     10.08712         0.053615      0.006003     -0.007826
      4.98802      3.67021     10.11027        -0.585506     -0.726405      0.091948
      7.69729      3.67022     10.11043         0.593451     -0.728606      0.088305
      4.94204      6.23212      9.66062        -0.814300      0.698585     -0.188883
      7.74391      6.23135      9.66001         0.812049      0.719591     -0.189939
      4.95594      8.84804      9.77173        -0.204200      0.530958     -0.003149
      7.73025      8.84842      9.77172         0.191847      0.519207     -0.001987
      6.34328      5.03928      9.93619        -0.013281     -0.912030      0.069345
      6.34250      7.43227      8.89250         0.010629     -0.366408      0.875418
 -----------------------------------------------------------------------------------
    total drift:                                0.001064      0.000951     -0.005091


--------------------------------------------------------------------------------------------------------



  FREE ENERGIE OF THE ION-ELECTRON SYSTEM (eV)
  ---------------------------------------------------
  free  energy   TOTEN  =      -610.06788980 eV

  energy  without entropy=     -610.05850065  energy(sigma->0) =     -610.06319523
 


--------------------------------------------------------------------------------------------------------


    POTLOK:  cpu time    1.9854: real time    1.9904


--------------------------------------------------------------------------------------------------------


 stress matrix after NEB project (eV)
    -46.43428     -0.05282     -0.00735
     -0.05282    -41.70717     -0.35895
     -0.00735     -0.35269     -1.23532
  FORCES: max atom, RMS     1.101505    0.390236
  FORCE total and by dimension    2.971952    0.912030
  Stress total and by dimension   62.429282   46.434281
 writing wavefunctions
     LOOP+:  cpu time10371.2436: real time10405.4168
    4ORBIT:  cpu time    0.0000: real time    0.0000
 


 total charge     
 
# of ion       s       p       d       tot
------------------------------------------
    1        0.866   1.786   0.000   2.652
    2        0.864   1.761   0.000   2.625
    3        0.866   1.766   0.000   2.632
    4        0.870   1.772   0.000   2.642
    5        0.864   1.765   0.000   2.629
    6        0.861   1.754   0.000   2.615
    7        0.863   1.753   0.000   2.616
    8        0.853   1.704   0.000   2.557
    9        0.855   1.751   0.000   2.605
   10        0.855   1.737   0.000   2.591
   11        0.859   1.734   0.000   2.592
   12        0.860   1.699   0.000   2.559
   13        0.852   1.741   0.000   2.593
   14        0.861   1.753   0.000   2.614
   15        0.858   1.732   0.000   2.591
   16        0.855   1.705   0.000   2.560
   17        0.865   1.769   0.000   2.634
   18        0.864   1.764   0.000   2.628
   19        0.864   1.757   0.000   2.621
   20        0.869   1.769   0.000   2.638
   21        0.870   1.804   0.000   2.674
   22        0.873   1.803   0.000   2.676
   23        0.870   1.804   0.000   2.674
   24        0.873   1.803   0.000   2.676
   25        0.868   1.762   0.000   2.630
   26        0.868   1.762   0.000   2.630
   27        0.864   1.754   0.000   2.619
   28        0.873   1.799   0.000   2.672
   29        0.864   1.754   0.000   2.619
   30        0.873   1.799   0.000   2.672
   31        0.866   1.766   0.000   2.631
   32        0.870   1.772   0.000   2.642
   33        0.866   1.785   0.000   2.652
   34        0.864   1.761   0.000   2.624
   35        0.863   1.753   0.000   2.616
   36        0.853   1.704   0.000   2.557
   37        0.864   1.764   0.000   2.628
   38        0.861   1.754   0.000   2.615
   39        0.859   1.734   0.000   2.593
   40        0.860   1.699   0.000   2.559
   41        0.855   1.751   0.000   2.606
   42        0.855   1.737   0.000   2.591
   43        0.858   1.732   0.000   2.591
   44        0.855   1.706   0.000   2.561
   45        0.852   1.741   0.000   2.593
   46        0.861   1.753   0.000   2.614
   47        0.864   1.757   0.000   2.621
   48        0.869   1.769   0.000   2.638
   49        0.865   1.769   0.000   2.634
   50        0.864   1.764   0.000   2.628
   51        1.233   2.662   0.000   3.894
   52        1.233   2.662   0.000   3.894
   53        1.249   2.623   0.000   3.872
   54        1.249   2.623   0.000   3.872
   55        1.238   2.678   0.000   3.916
   56        1.238   2.678   0.000   3.916
   57        0.490   0.670   6.320   7.480
   58        2.216   6.219   1.266   9.701
--------------------------------------------------
tot         53.285 110.605   7.586 171.476
 


 magnetization (x)
 
# of ion       s       p       d       tot
------------------------------------------
    1       -0.000  -0.007   0.000  -0.007
    2       -0.000  -0.003   0.000  -0.003
    3       -0.000  -0.006   0.000  -0.006
    4       -0.000  -0.007   0.000  -0.008
    5       -0.000  -0.005   0.000  -0.005
    6       -0.000  -0.011   0.000  -0.012
    7       -0.000  -0.003   0.000  -0.003
    8        0.001   0.003   0.000   0.004
    9       -0.001  -0.016   0.000  -0.017
   10       -0.000  -0.005   0.000  -0.005
   11       -0.000  -0.008   0.000  -0.008
   12        0.001   0.009   0.000   0.009
   13       -0.001  -0.015   0.000  -0.016
   14       -0.001  -0.012   0.000  -0.013
   15       -0.000  -0.007   0.000  -0.007
   16        0.000  -0.001   0.000  -0.000
   17       -0.000  -0.005   0.000  -0.005
   18       -0.000  -0.003   0.000  -0.003
   19        0.000  -0.003   0.000  -0.003
   20       -0.000  -0.009   0.000  -0.010
   21       -0.000  -0.004   0.000  -0.004
   22       -0.000  -0.003   0.000  -0.003
   23       -0.000  -0.004   0.000  -0.004
   24       -0.000  -0.003   0.000  -0.003
   25        0.000  -0.002   0.000  -0.002
   26        0.000  -0.002   0.000  -0.002
   27       -0.000  -0.010   0.000  -0.011
   28        0.000   0.001   0.000   0.001
   29       -0.000  -0.010   0.000  -0.011
   30        0.000   0.001   0.000   0.001
   31       -0.000  -0.006   0.000  -0.006
   32       -0.000  -0.007   0.000  -0.008
   33       -0.000  -0.007   0.000  -0.007
   34       -0.000  -0.003   0.000  -0.003
   35       -0.000  -0.003   0.000  -0.003
   36        0.001   0.003   0.000   0.004
   37       -0.000  -0.005   0.000  -0.005
   38       -0.000  -0.011   0.000  -0.012
   39       -0.000  -0.008   0.000  -0.008
   40        0.001   0.009   0.000   0.009
   41       -0.001  -0.016   0.000  -0.017
   42       -0.000  -0.005   0.000  -0.005
   43       -0.000  -0.007   0.000  -0.007
   44        0.000  -0.001   0.000  -0.000
   45       -0.001  -0.015   0.000  -0.016
   46       -0.001  -0.012   0.000  -0.013
   47        0.000  -0.003   0.000  -0.003
   48       -0.000  -0.009   0.000  -0.010
   49       -0.000  -0.005   0.000  -0.005
   50       -0.000  -0.003   0.000  -0.003
   51       -0.006  -0.055   0.000  -0.060
   52       -0.006  -0.055   0.000  -0.060
   53       -0.004  -0.033   0.000  -0.037
   54       -0.004  -0.033   0.000  -0.037
   55       -0.001  -0.035   0.000  -0.036
   56       -0.001  -0.035   0.000  -0.036
   57        0.013   0.015   1.903   1.931
   58        0.000  -0.002  -0.028  -0.029
--------------------------------------------------
tot         -0.015  -0.496   1.875   1.364
 

 total amount of memory used by VASP MPI-rank0   159018. kBytes
=======================================================================

   base      :      30000. kBytes
   nonl-proj :       4266. kBytes
   fftplans  :      11851. kBytes
   grid      :      31266. kBytes
   one-center:         62. kBytes
   HF        :         23. kBytes
   nonlr-proj:      18544. kBytes
   wavefun   :      63006. kBytes
 
  
  
 General timing and accounting informations for this job:
 ========================================================
  
                  Total CPU time used (sec):    10406.339
                            User time (sec):    10369.599
                          System time (sec):       36.740
                         Elapsed time (sec):    10447.662
  
                   Maximum memory used (kb):      382332.
                   Average memory used (kb):           0.
  
                          Minor page faults:       738578
                          Major page faults:          191
                 Voluntary context switches:       165315
