 vasp.5.4.4.18Apr17-6-g9f103f2a35 (build Feb 25 2019 10:51:38) complex          
  
 executed on             LinuxIFC date 2021.08.06  12:23:56
 running on   32 total cores
 distrk:  each k-point on   32 cores,    1 groups
 distr:  one band on NCORES_PER_BAND=  32 cores,    1 groups


--------------------------------------------------------------------------------------------------------


 INCAR:
 POTCAR:    PAW_PBE C 08Apr2002                   
 POTCAR:    PAW_PBE N 08Apr2002                   
 POTCAR:    PAW_PBE Fe 06Sep2000                  
 POTCAR:    PAW_PBE Ti 08Apr2002                  

 ----------------------------------------------------------------------------- 
|                                                                             |
|           W    W    AA    RRRRR   N    N  II  N    N   GGGG   !!!           |
|           W    W   A  A   R    R  NN   N  II  NN   N  G    G  !!!           |
|           W    W  A    A  R    R  N N  N  II  N N  N  G       !!!           |
|           W WW W  AAAAAA  RRRRR   N  N N  II  N  N N  G  GGG   !            |
|           WW  WW  A    A  R   R   N   NN  II  N   NN  G    G                |
|           W    W  A    A  R    R  N    N  II  N    N   GGGG   !!!           |
|                                                                             |
|      For optimal performance we recommend to set                            |
|        NCORE= 4 - approx SQRT( number of cores)                             |
|      NCORE specifies how many cores store one orbital (NPAR=cpu/NCORE).     |
|      This setting can  greatly improve the performance of VASP for DFT.     |
|      The default,   NCORE=1            might be grossly inefficient         |
|      on modern multi-core architectures or massively parallel machines.     |
|      Do your own testing !!!!                                               |
|      Unfortunately you need to use the default for GW and RPA calculations. |
|      (for HF NCORE is supported but not extensively tested yet)             |
|                                                                             |
 ----------------------------------------------------------------------------- 

 POTCAR:    PAW_PBE C 08Apr2002                   
   VRHFIN =C: s2p2                                                              
   LEXCH  = PE                                                                  
   EATOM  =   147.1560 eV,   10.8157 Ry                                         
                                                                                
   TITEL  = PAW_PBE C 08Apr2002                                                 
   LULTRA =        F    use ultrasoft PP ?                                      
   IUNSCR =        1    unscreen: 0-lin 1-nonlin 2-no                           
   RPACOR =    1.200    partial core radius                                     
   POMASS =   12.011; ZVAL   =    4.000    mass and valenz                      
   RCORE  =    1.500    outmost cutoff radius                                   
   RWIGS  =    1.630; RWIGS  =    0.863    wigner-seitz radius (au A)           
   ENMAX  =  400.000; ENMIN  =  300.000 eV                                      
   ICORE  =        2    local potential                                         
   LCOR   =        T    correct aug charges                                     
   LPAW   =        T    paw PP                                                  
   EAUG   =  644.873                                                            
   DEXC   =    0.000                                                            
   RMAX   =    1.529    core radius for proj-oper                               
   RAUG   =    1.300    factor for augmentation sphere                          
   RDEP   =    1.501    radius for radial grids                                 
   RDEPT  =    1.300    core radius for aug-charge                              
                                                                                
   Atomic configuration                                                         
    4 entries                                                                   
     n  l   j            E        occ.                                          
     1  0  0.50      -273.3789   2.0000                                         
     2  0  0.50       -13.7508   2.0000                                         
     2  1  0.50        -5.2854   2.0000                                         
     3  2  1.50        -5.4423   0.0000                                         
   Description                                                                  
     l       E           TYP  RCUT    TYP  RCUT                                 
     0    -13.7508458     23  1.200                                             
     0     -8.2022199     23  1.200                                             
     1     -5.2854383     23  1.500                                             
     1     34.0145650     23  1.500                                             
     2     -5.4423304      7  1.500                                             
  local pseudopotential read in
  partial core-charges read in
  partial kinetic energy density read in
  atomic valenz-charges read in
  non local Contribution for L=           0  read in
    real space projection operators read in
  non local Contribution for L=           0  read in
    real space projection operators read in
  non local Contribution for L=           1  read in
    real space projection operators read in
  non local Contribution for L=           1  read in
    real space projection operators read in
    PAW grid and wavefunctions read in
 
   number of l-projection  operators is LMAX  =           4
   number of lm-projection operators is LMMAX =           8
 
 POTCAR:    PAW_PBE N 08Apr2002                   
   VRHFIN =N: s2p3                                                              
   LEXCH  = PE                                                                  
   EATOM  =   264.5486 eV,   19.4438 Ry                                         
                                                                                
   TITEL  = PAW_PBE N 08Apr2002                                                 
   LULTRA =        F    use ultrasoft PP ?                                      
   IUNSCR =        1    unscreen: 0-lin 1-nonlin 2-no                           
   RPACOR =    1.200    partial core radius                                     
   POMASS =   14.001; ZVAL   =    5.000    mass and valenz                      
   RCORE  =    1.500    outmost cutoff radius                                   
   RWIGS  =    1.400; RWIGS  =    0.741    wigner-seitz radius (au A)           
   ENMAX  =  400.000; ENMIN  =  300.000 eV                                      
   ICORE  =        2    local potential                                         
   LCOR   =        T    correct aug charges                                     
   LPAW   =        T    paw PP                                                  
   EAUG   =  627.112                                                            
   DEXC   =    0.000                                                            
   RMAX   =    1.529    core radius for proj-oper                               
   RAUG   =    1.300    factor for augmentation sphere                          
   RDEP   =    1.514    radius for radial grids                                 
   RDEPT  =    1.338    core radius for aug-charge                              
                                                                                
   Atomic configuration                                                         
    4 entries                                                                   
     n  l   j            E        occ.                                          
     1  0  0.50      -384.7179   2.0000                                         
     2  0  0.50       -18.5828   2.0000                                         
     2  1  0.50        -7.0898   3.0000                                         
     3  2  1.50        -6.8029   0.0000                                         
   Description                                                                  
     l       E           TYP  RCUT    TYP  RCUT                                 
     0    -18.5828119     23  1.200                                             
     0    -13.5018863     23  1.200                                             
     1     -7.0897853     23  1.500                                             
     1      9.5240782     23  1.500                                             
     2     -6.8029130      7  1.500                                             
  local pseudopotential read in
  partial core-charges read in
  partial kinetic energy density read in
  atomic valenz-charges read in
  non local Contribution for L=           0  read in
    real space projection operators read in
  non local Contribution for L=           0  read in
    real space projection operators read in
  non local Contribution for L=           1  read in
    real space projection operators read in
  non local Contribution for L=           1  read in
    real space projection operators read in
    PAW grid and wavefunctions read in
 
   number of l-projection  operators is LMAX  =           4
   number of lm-projection operators is LMMAX =           8
 
 POTCAR:    PAW_PBE Fe 06Sep2000                  
   VRHFIN =Fe:  d7 s1                                                           
   LEXCH  = PE                                                                  
   EATOM  =   594.3153 eV,   43.6809 Ry                                         
                                                                                
   TITEL  = PAW_PBE Fe 06Sep2000                                                
   LULTRA =        F    use ultrasoft PP ?                                      
   IUNSCR =        1    unscreen: 0-lin 1-nonlin 2-no                           
   RPACOR =    2.000    partial core radius                                     
   POMASS =   55.847; ZVAL   =    8.000    mass and valenz                      
   RCORE  =    2.300    outmost cutoff radius                                   
   RWIGS  =    2.460; RWIGS  =    1.302    wigner-seitz radius (au A)           
   ENMAX  =  267.882; ENMIN  =  200.911 eV                                      
   RCLOC  =    1.701    cutoff for local pot                                    
   LCOR   =        T    correct aug charges                                     
   LPAW   =        T    paw PP                                                  
   EAUG   =  511.368                                                            
   DEXC   =    0.000                                                            
   RMAX   =    2.356    core radius for proj-oper                               
   RAUG   =    1.300    factor for augmentation sphere                          
   RDEP   =    2.442    radius for radial grids                                 
   RDEPT  =    1.890    core radius for aug-charge                              
                                                                                
   Atomic configuration                                                         
    9 entries                                                                   
     n  l   j            E        occ.                                          
     1  0  0.50     -6993.8440   2.0000                                         
     2  0  0.50      -814.6047   2.0000                                         
     2  1  1.50      -693.3689   6.0000                                         
     3  0  0.50       -89.4732   2.0000                                         
     3  1  1.50       -55.6373   6.0000                                         
     3  2  2.50        -3.8151   7.0000                                         
     4  0  0.50        -4.2551   1.0000                                         
     4  1  1.50        -3.4015   0.0000                                         
     4  3  2.50        -1.3606   0.0000                                         
   Description                                                                  
     l       E           TYP  RCUT    TYP  RCUT                                 
     2     -3.8151135     23  2.300                                             
     2     -5.1756961     23  2.300                                             
     0     -4.2550963     23  2.300                                             
     0      7.2035603     23  2.300                                             
     1     -2.7211652     23  2.300                                             
     1     18.4316424     23  2.300                                             
  local pseudopotential read in
  partial core-charges read in
  partial kinetic energy density read in
  atomic valenz-charges read in
  non local Contribution for L=           2  read in
    real space projection operators read in
  non local Contribution for L=           2  read in
    real space projection operators read in
  non local Contribution for L=           0  read in
    real space projection operators read in
  non local Contribution for L=           0  read in
    real space projection operators read in
  non local Contribution for L=           1  read in
    real space projection operators read in
  non local Contribution for L=           1  read in
    real space projection operators read in
    PAW grid and wavefunctions read in
 
   number of l-projection  operators is LMAX  =           6
   number of lm-projection operators is LMMAX =          18
 
 POTCAR:    PAW_PBE Ti 08Apr2002                  
   VRHFIN =Ti: d3 s1                                                            
   LEXCH  = PE                                                                  
   EATOM  =    94.7928 eV,    6.9671 Ry                                         
                                                                                
   TITEL  = PAW_PBE Ti 08Apr2002                                                
   LULTRA =        F    use ultrasoft PP ?                                      
   IUNSCR =        1    unscreen: 0-lin 1-nonlin 2-no                           
   RPACOR =    2.200    partial core radius                                     
   POMASS =   47.880; ZVAL   =    4.000    mass and valenz                      
   RCORE  =    2.800    outmost cutoff radius                                   
   RWIGS  =    2.500; RWIGS  =    1.323    wigner-seitz radius (au A)           
   ENMAX  =  178.330; ENMIN  =  133.747 eV                                      
   RCLOC  =    2.215    cutoff for local pot                                    
   LCOR   =        T    correct aug charges                                     
   LPAW   =        T    paw PP                                                  
   EAUG   =  328.883                                                            
   DEXC   =    0.000                                                            
   RMAX   =    2.868    core radius for proj-oper                               
   RAUG   =    1.300    factor for augmentation sphere                          
   RDEP   =    2.885    radius for radial grids                                 
   RDEPT  =    2.320    core radius for aug-charge                              
                                                                                
   Atomic configuration                                                         
    9 entries                                                                   
     n  l   j            E        occ.                                          
     1  0  0.50     -4865.3608   2.0000                                         
     2  0  0.50      -533.1367   2.0000                                         
     2  1  1.50      -440.5031   6.0000                                         
     3  0  0.50       -59.3186   2.0000                                         
     3  1  1.50       -35.7012   6.0000                                         
     3  2  2.50        -1.9157   3.0000                                         
     4  0  0.50        -3.7291   1.0000                                         
     4  1  1.50        -4.0817   0.0000                                         
     4  3  2.50        -1.3606   0.0000                                         
   Description                                                                  
     l       E           TYP  RCUT    TYP  RCUT                                 
     2     -1.9156924     23  2.800                                             
     2     -0.4062961     23  2.800                                             
     0     -3.7290832     23  2.800                                             
     0     20.4087390     23  2.800                                             
     1     -5.4423304     23  2.800                                             
  local pseudopotential read in
  partial core-charges read in
  partial kinetic energy density read in
  atomic valenz-charges read in
  non local Contribution for L=           2  read in
    real space projection operators read in
  non local Contribution for L=           2  read in
    real space projection operators read in
  non local Contribution for L=           0  read in
    real space projection operators read in
  non local Contribution for L=           0  read in
    real space projection operators read in
  non local Contribution for L=           1  read in
    real space projection operators read in
    PAW grid and wavefunctions read in
 
   number of l-projection  operators is LMAX  =           5
   number of lm-projection operators is LMMAX =          15
 

 ----------------------------------------------------------------------------- 
|                                                                             |
|  ADVICE TO THIS USER RUNNING 'VASP/VAMP'   (HEAR YOUR MASTER'S VOICE ...):  |
|                                                                             |
|      You have a (more or less) 'large supercell' and for larger cells       |
|      it might be more efficient to use real space projection opertators     |
|      So try LREAL= Auto  in the INCAR   file.                               |
|      Mind:          For very  accurate calculation you might also keep the  |
|      reciprocal projection scheme          (i.e. LREAL=.FALSE.)             |
|                                                                             |
 ----------------------------------------------------------------------------- 

  PAW_PBE C 08Apr2002                   :
 energy of atom  1       EATOM= -147.1560
 kinetic energy error for atom=    0.0076 (will be added to EATOM!!)
  PAW_PBE N 08Apr2002                   :
 energy of atom  2       EATOM= -264.5486
 kinetic energy error for atom=    0.0138 (will be added to EATOM!!)
  PAW_PBE Fe 06Sep2000                  :
 energy of atom  3       EATOM= -594.3153
 kinetic energy error for atom=    0.0026 (will be added to EATOM!!)
  PAW_PBE Ti 08Apr2002                  :
 energy of atom  4       EATOM=  -94.7928
 kinetic energy error for atom=    0.0002 (will be added to EATOM!!)
 
 
 POSCAR:  C  N Fe Ti                             
  positions in cartesian coordinates
  No initial velocities read in
 exchange correlation table for  LEXCH =        8
   RHO(1)=    0.500       N(1)  =     2000
   RHO(2)=  100.500       N(2)  =     4000

 VTST: version 3.2, (02/03/18)

 CHAIN: initializing optimizer
 
 OPT: Using VASP Conjugate-Gradient optimizer
 CHAIN: Read ICHAIN            0
 
 POSCAR:  C  N Fe Ti                             
  positions in cartesian coordinates
  No initial velocities read in
 


--------------------------------------------------------------------------------------------------------


 ion  position               nearest neighbor table
   1  0.221  1.000  0.505-   3 1.42  20 1.43   4 1.43
   2  0.055  0.101  0.505-  34 1.42   7 1.44   3 1.44
   3  0.110  1.000  0.504-   1 1.42  18 1.44   2 1.44
   4  0.276  0.099  0.505-  22 1.42   1 1.43   5 1.43
   5  0.223  0.200  0.505-   7 1.43   4 1.43   8 1.45
   6  0.055  0.301  0.503-  38 1.43   7 1.44  11 1.45
   7  0.111  0.201  0.504-   5 1.43   2 1.44   6 1.44
   8  0.282  0.299  0.502-  51 1.42   5 1.45   9 1.46
   9  0.224  0.400  0.500-  11 1.43  12 1.45   8 1.46
  10  0.056  0.501  0.501-  42 1.44  15 1.44  11 1.45
  11  0.112  0.401  0.502-   9 1.43  10 1.45   6 1.45
  12  0.281  0.500  0.494-  53 1.34  13 1.45   9 1.45
  13  0.226  0.601  0.496-  15 1.44  12 1.45  16 1.46
  14  0.055  0.699  0.501-  46 1.43  19 1.44  15 1.44
  15  0.113  0.601  0.500-  14 1.44  13 1.44  10 1.44
  16  0.282  0.702  0.496-  55 1.38  17 1.45  13 1.46
  17  0.223  0.800  0.501-  20 1.43  19 1.43  16 1.45
  18  0.055  0.899  0.503-  50 1.42   3 1.44  19 1.44
  19  0.111  0.799  0.502-  17 1.43  14 1.44  18 1.44
  20  0.276  0.900  0.503-  28 1.42  17 1.43   1 1.43
  21  0.555  0.999  0.505-  23 1.42  30 1.42  24 1.42
  22  0.387  0.097  0.506-  26 1.41   4 1.42  23 1.42
  23  0.444  0.999  0.505-  21 1.42  28 1.42  22 1.42
  24  0.611  0.097  0.506-  25 1.41  32 1.42  21 1.42
  25  0.556  0.194  0.506-  24 1.41  52 1.41  26 1.44
  26  0.443  0.194  0.506-  22 1.41  51 1.41  25 1.44
  27  0.556  0.803  0.497-  56 1.38  30 1.41  29 1.44
  28  0.388  0.901  0.503-  29 1.41  23 1.42  20 1.42
  29  0.443  0.803  0.497-  55 1.38  28 1.41  27 1.44
  30  0.610  0.901  0.503-  27 1.41  21 1.42  48 1.42
  31  0.889  1.000  0.504-  33 1.42  50 1.44  34 1.44
  32  0.722  0.099  0.505-  24 1.42  33 1.43  37 1.43
  33  0.778  1.000  0.505-  31 1.42  48 1.43  32 1.43
  34  0.943  0.101  0.505-   2 1.42  35 1.44  31 1.44
  35  0.888  0.201  0.504-  37 1.43  34 1.44  38 1.44
  36  0.717  0.299  0.503-  52 1.42  37 1.45  41 1.46
  37  0.776  0.200  0.505-  35 1.43  32 1.43  36 1.45
  38  0.943  0.301  0.503-   6 1.43  35 1.44  39 1.45
  39  0.886  0.401  0.502-  41 1.43  42 1.45  38 1.45
  40  0.717  0.500  0.494-  54 1.34  45 1.45  41 1.45
  41  0.774  0.400  0.500-  39 1.43  40 1.45  36 1.46
  42  0.943  0.501  0.501-  10 1.44  43 1.44  39 1.45
  43  0.886  0.601  0.500-  46 1.44  45 1.44  42 1.44
  44  0.716  0.702  0.496-  56 1.38  49 1.45  45 1.46
  45  0.773  0.601  0.496-  43 1.44  40 1.45  44 1.46
  46  0.943  0.699  0.501-  14 1.43  47 1.44  43 1.44
  47  0.888  0.799  0.502-  49 1.43  46 1.44  50 1.44
  48  0.722  0.900  0.503-  30 1.42  49 1.43  33 1.43
  49  0.776  0.800  0.501-  48 1.43  47 1.43  44 1.45
  50  0.943  0.899  0.503-  18 1.42  31 1.44  47 1.44
  51  0.393  0.295  0.503-  26 1.41   8 1.42  57 1.95
  52  0.605  0.295  0.503-  25 1.41  36 1.42  57 1.95
  53  0.385  0.500  0.483-  12 1.34  57 1.89  58 1.90
  54  0.613  0.500  0.483-  40 1.34  57 1.89  58 1.90
  55  0.391  0.707  0.491-  29 1.38  16 1.38  58 2.12
  56  0.608  0.707  0.491-  27 1.38  44 1.38  58 2.12
  57  0.499  0.405  0.488-  54 1.89  53 1.89  52 1.95  51 1.95  58 2.38
  58  0.499  0.589  0.459-  54 1.90  53 1.90  55 2.12  56 2.12  57 2.38
 
  LATTYP: Found a simple monoclinic cell.
 ALAT       =    23.4991667052
 B/A-ratio  =     0.5426003803
 C/A-ratio  =     1.3597633229
 COS(beta)  =    -0.9433430562
  
  Lattice vectors:
  
 A1 = (  -0.0002732821, -12.4864221811, -19.9072875320)
 A2 = ( -12.7506567906,   0.0001149938,   0.0000356109)
 A3 = (   0.0003569069,  24.9987004203,  19.9017254988)


Analysis of symmetry for initial positions (statically):
=====================================================================
 Subroutine PRICEL returns:
 Original cell was already a primitive cell.
 

 Routine SETGRP: Setting up the symmetry group for a 
 simple monoclinic supercell.


 Subroutine GETGRP returns: Found  1 space group operations
 (whereof  1 operations were pure point group operations)
 out of a pool of  4 trial point group operations.


The static configuration has the point symmetry C_1 .


Analysis of symmetry for dynamics (positions and initial velocities):
=====================================================================
 Subroutine PRICEL returns:
 Original cell was already a primitive cell.
 

 Routine SETGRP: Setting up the symmetry group for a 
 simple monoclinic supercell.


 Subroutine GETGRP returns: Found  1 space group operations
 (whereof  1 operations were pure point group operations)
 out of a pool of  4 trial point group operations.


The dynamic configuration has the point symmetry C_1 .


Analysis of structural, dynamic, and magnetic symmetry:
=====================================================================
 Subroutine PRICEL returns:
 Original cell was already a primitive cell.
 

 Routine SETGRP: Setting up the symmetry group for a 
 simple monoclinic supercell.


 Subroutine GETGRP returns: Found  1 space group operations
 (whereof  1 operations were pure point group operations)
 out of a pool of  4 trial point group operations.


The magnetic configuration has the point symmetry C_1 .


 Subroutine INISYM returns: Found  1 space group operations
 (whereof  1 operations are pure point group operations),
 and found     1 'primitive' translations

 
 
 KPOINTS: KPOINTS created by Atomic Simulation Env

Automatic generation of k-mesh.
Space group operators:
 irot       det(A)        alpha          n_x          n_y          n_z        tau_x        tau_y        tau_z
    1     1.000000     0.000001     1.000000     0.000000     0.000000     0.000000     0.000000     0.000000
 
 Subroutine IBZKPT returns following result:
 ===========================================
 
 Found      2 irreducible k-points:
 
 Following reciprocal coordinates:
            Coordinates               Weight
  0.250000  0.250000  0.000000      2.000000
 -0.250000  0.250000  0.000000      2.000000
 
 Following cartesian coordinates:
            Coordinates               Weight
  0.019607  0.019980  0.000026      2.000000
 -0.019607  0.019981  0.000026      2.000000
 
 
 Subroutine IBZKPT_HF returns following result:
 ==============================================
 
 Found      4 k-points in 1st BZ
 the following      4 k-points will be used (e.g. in the exchange kernel)
 Following reciprocal coordinates:   # in IRBZ
  0.250000  0.250000  0.000000    0.25000000   1 t-inv F
 -0.250000  0.250000  0.000000    0.25000000   2 t-inv F
 -0.250000 -0.250000 -0.000000    0.25000000   1 t-inv T
  0.250000 -0.250000  0.000000    0.25000000   2 t-inv T


--------------------------------------------------------------------------------------------------------




 Dimension of arrays:
   k-points           NKPTS =      2   k-points in BZ     NKDIM =      4   number of bands    NBANDS=    154
   number of dos      NEDOS =    301   number of ions     NIONS =     58
   non local maximal  LDIM  =      6   non local SUM 2l+1 LMDIM =     18
   total plane-waves  NPLWV = ******
   max r-space proj   IRMAX =      1   max aug-charges    IRDMAX=  30249
   dimension x,y,z NGX =    96 NGY =   96 NGZ =  150
   dimension x,y,z NGXF=   192 NGYF=  192 NGZF=  300
   support grid    NGXF=   192 NGYF=  192 NGZF=  300
   ions per type =              52   4   1   1
   NGX,Y,Z   is equivalent  to a cutoff of  12.52, 12.76, 12.52 a.u.
   NGXF,Y,Z  is equivalent  to a cutoff of  25.03, 25.51, 25.05 a.u.

 SYSTEM =  unknown system                          
 POSCAR =   C  N Fe Ti                             

 Startparameter for this run:
   NWRITE =      2    write-flag & timer
   PREC   = accura    normal or accurate (medium, high low for compatibility)
   ISTART =      1    job   : 0-new  1-cont  2-samecut
   ICHARG =      0    charge: 1-file 2-atom 10-const
   ISPIN  =      2    spin polarized calculation?
   LNONCOLLINEAR =      F non collinear calculations
   LSORBIT =      F    spin-orbit coupling
   INIWAV =      1    electr: 0-lowe 1-rand  2-diag
   LASPH  =      T    aspherical Exc in radial PAW
   METAGGA=      F    non-selfconsistent MetaGGA calc.

 Electronic Relaxation 1
   ENCUT  =  500.0 eV  36.75 Ry    6.06 a.u.  23.25 22.81 36.31*2*pi/ulx,y,z
   ENINI  =  500.0     initial cutoff
   ENAUG  =  644.9 eV  augmentation charge cutoff
   NELM   =    250;   NELMIN=  2; NELMDL=  0     # of ELM steps 
   EDIFF  = 0.1E-03   stopping-criterion for ELM
   LREAL  =      F    real-space projection
   NLSPLINE    = F    spline interpolate recip. space projectors
   LCOMPAT=      F    compatible to vasp.4.4
   GGA_COMPAT  = T    GGA compatible to vasp.4.4-vasp.4.6
   LMAXPAW     = -100 max onsite density
   LMAXMIX     =    2 max onsite mixed and CHGCAR
   VOSKOWN=      0    Vosko Wilk Nusair interpolation
   ROPT   =    0.00000   0.00000   0.00000   0.00000
 Ionic relaxation
   EDIFFG = -.3E-01   stopping-criterion for IOM
   NSW    =      0    number of steps for IOM
   NBLOCK =      1;   KBLOCK =      1    inner block; outer block 
   IBRION =     -1    ionic relax: 0-MD 1-quasi-New 2-CG
   NFREE  =      1    steps in history (QN), initial steepest desc. (CG)
   ISIF   =      2    stress and relaxation
   IWAVPR =     10    prediction:  0-non 1-charg 2-wave 3-comb
   ISYM   =      3    0-nonsym 1-usesym 2-fastsym
   LCORR  =      T    Harris-Foulkes like correction to forces

   POTIM  = 0.5000    time-step for ionic-motion
   TEIN   =    0.0    initial temperature
   TEBEG  =    0.0;   TEEND  =   0.0 temperature during run
   SMASS  =  -3.00    Nose mass-parameter (am)
   estimated Nose-frequenzy (Omega)   =  0.10E-29 period in steps =****** mass=  -0.372E-26a.u.
   SCALEE = 1.0000    scale energy and forces
   NPACO  =    256;   APACO  = 16.0  distance and # of slots for P.C.
   PSTRESS=    0.0 pullay stress

  Mass of Ions in am
   POMASS =  12.01 14.00 55.85 47.88
  Ionic Valenz
   ZVAL   =   4.00  5.00  8.00  4.00
  Atomic Wigner-Seitz radii
   RWIGS  =  -1.00 -1.00 -1.00 -1.00
  virtual crystal weights 
   VCA    =   1.00  1.00  1.00  1.00
   NELECT =     240.0000    total number of electrons
   NUPDOWN=      -1.0000    fix difference up-down

 DOS related values:
   EMIN   =  10.00;   EMAX   =-10.00  energy-range for DOS
   EFERMI =   0.00
   ISMEAR =     0;   SIGMA  =   0.10  broadening in eV -4-tet -1-fermi 0-gaus

 Electronic relaxation 2 (details)
   IALGO  =     53    algorithm
   LDIAG  =      T    sub-space diagonalisation (order eigenvalues)
   LSUBROT=      F    optimize rotation matrix (better conditioning)
   TURBO    =      0    0=normal 1=particle mesh
   IRESTART =      0    0=no restart 2=restart with 2 vectors
   NREBOOT  =      0    no. of reboots
   NMIN     =      0    reboot dimension
   EREF     =   0.00    reference energy to select bands
   IMIX   =      4    mixing-type and parameters
     AMIX     =   0.40;   BMIX     =  1.00
     AMIX_MAG =   1.60;   BMIX_MAG =  1.00
     AMIN     =   0.10
     WC   =   100.;   INIMIX=   1;  MIXPRE=   1;  MAXMIX= -45

 Intra band minimization:
   WEIMIN = 0.0000     energy-eigenvalue tresh-hold
   EBREAK =  0.16E-06  absolut break condition
   DEPER  =   0.30     relativ break condition  

   TIME   =   0.20     timestep for ELM

  volume/ion in A,a.u.               =      54.77       369.63
  Fermi-wavevector in a.u.,A,eV,Ry     =   0.692061  1.307806  6.516494  0.478949
  Thomas-Fermi vector in A             =   1.773888
 
 Write flags
   LWAVE        =      T    write WAVECAR
   LDOWNSAMPLE  =      F    k-point downsampling of WAVECAR
   LCHARG       =      T    write CHGCAR
   LVTOT        =      F    write LOCPOT, total local potential
   LVHAR        =      F    write LOCPOT, Hartree potential only
   LELF         =      F    write electronic localiz. function (ELF)
   LORBIT       =     11    0 simple, 1 ext, 2 COOP (PROOUT), +10 PAW based schemes


 Dipole corrections
   LMONO  =      F    monopole corrections only (constant potential shift)
   LDIPOL =      T    correct potential (dipole corrections)
   IDIPOL =      3    1-x, 2-y, 3-z, 4-all directions 
   EPSILON=  1.0000000 bulk dielectric constant

 Exchange correlation treatment:
   GGA     =    PE    GGA type
   LEXCH   =     8    internal setting for exchange type
   VOSKOWN=      0    Vosko Wilk Nusair interpolation
   EXXOEP  =     0    0=HF, 1=EXX-LHF (local Hartree Fock) 2=EXX OEP
   LHFCALC =     T    Hartree Fock is set to
   LSYMGRAD=     F    symmetrize gradient (conserves proper symmetry)
   PRECFOCK=normal    Normal, Fast or Accurate (Low or Medium for compatibility)
   LRHFCALC=     F    long range Hartree Fock
   LRSCOR  =     F    long range correlation only (use DFT for short range part)
   LTHOMAS =     F    Thomas Fermi screening in HF
   LMODELHF=     F    short range full HF, long range fraction AEXX
   ENCUT4O =  -1.0   cutoff for four orbital integrals eV
   LMAXFOCK=     4    L truncation for augmentation on plane wave grid
   LMAXFOCKAE=  -1    L truncation for all-electron charge restoration on plane wave grid
   NMAXFOCKAE=   1    number of basis functions for all-electron charge restoration
   LFOCKAEDFT=     F  apply the AE augmentation even for DFT
   NKREDX  =     1    reduce k-point grid by
   NKREDY  =     1    reduce k-point grid by
   NKREDZ  =     1    reduce k-point grid by
   SHIFTRED=     F    shift reduced grid of Gamma
   HFKIDENT=     F    idential grid for each k-point
   ODDONLY =     F    use only odd q-grid points
   EVENONLY=     F    use only even q-grid points
   HFALPHA =   -1.0000 decay constant for conv. correction
   MCALPHA =    0.0000 extent of test-charge in conv. correction in multipole expansion
   AEXX    =    0.2500 exact exchange contribution
   HFSCREEN=    0.2000 screening length (either q_TF or 0.3 A-1)
   HFSCREENC=   0.2000 screening length for correlation (either q_TF or 0.3 A-1)
   HFRCUT  =    0.0000 spherical cutoff for potential kernel
   ALDAX   =    0.7500 LDA exchange part
   AGGAX   =    0.7500 GGA exchange part
   ALDAC   =    1.0000 LDA correlation
   AGGAC   =    1.0000 GGA correlation
   ENCUTFOCK=  -1.0 apply spherical cutoff to Coloumb kernel
   NBANDSGWLOW=     1    first orbital included in HF term
   NBLOCK_FOCK=    64    blocking factor in FOCK_ACC
 Linear response parameters
   LEPSILON=     F    determine dielectric tensor
   LRPA    =     F    only Hartree local field effects (RPA)
   LNABLA  =     F    use nabla operator in PAW spheres
   LVEL    =     F    velocity operator in full k-point grid
   LINTERFAST=   F  fast interpolation
   KINTER  =     0    interpolate to denser k-point grid
   CSHIFT  =0.1000    complex shift for real part using Kramers Kronig
   OMEGAMAX=  -1.0    maximum frequency
   DEG_THRESHOLD= 0.2000000E-02 threshold for treating states as degnerate
   RTIME   =   -0.100 relaxation time in fs
  (WPLASMAI=    0.000 imaginary part of plasma frequency in eV, 0.658/RTIME)
   DFIELD  = 0.0000000 0.0000000 0.0000000 field for delta impulse in time
 
 Orbital magnetization related:
   ORBITALMAG=     F  switch on orbital magnetization
   LCHIMAG   =     F  perturbation theory with respect to B field
   DQ        =  0.001000  dq finite difference perturbation B field
   LLRAUG    =     F  two centre corrections for induced B field



--------------------------------------------------------------------------------------------------------


 Static calculation
 charge density and potential will be updated during run
 spin polarized calculation
 Conjugate gradient for all bands (Freysoldt, et al. PRB 79, 241103 (2009))
 perform sub-space diagonalisation
    before iterative eigenvector-optimisation
 modified Broyden-mixing scheme, WC =      100.0
 initial mixing is a Kerker type mixing with AMIX =  0.4000 and BMIX =      1.0000
 Hartree-type preconditioning will be used
 using additional bands           34
 reciprocal scheme for non local part
 use partial core corrections
 no Harris-corrections to forces 
 use gradient corrections 
 use of overlap-Matrix (Vanderbilt PP)
 Gauss-broadening in eV      SIGMA  =   0.10


--------------------------------------------------------------------------------------------------------


  energy-cutoff  :      500.00
  volume of cell :     3176.89
      direct lattice vectors                 reciprocal lattice vectors
    12.750656791 -0.000114994 -0.000035611     0.078427333 -0.000000524 -0.000000748
     0.000083625 12.512278239 -0.005562033     0.000000721  0.079921543  0.000103775
     0.000189657 -0.025856058 19.912849565     0.000000140  0.000022324  0.050218859

  length of vectors
    12.750656791 12.512279476 19.912866353     0.078427333  0.079921610  0.050218864


 
 old parameters found on file WAVECAR:
  energy-cutoff  :      500.00
  volume of cell :     3176.89
      direct lattice vectors                 reciprocal lattice vectors
    12.722400000  0.000000000  0.000000000     0.078601522 -0.000001235 -0.000000961
     0.000195988 12.476999998  0.000000000     0.000000000  0.080147471  0.000067704
     0.000244511 -0.016906193 20.013492858     0.000000000  0.000000000  0.049966291

  length of vectors

 
 k-points in units of 2pi/SCALE and weight: KPOINTS created by Atomic Simulation Env
   0.01960701  0.01998025  0.00002576       0.500
  -0.01960665  0.01998052  0.00002613       0.500
 
 k-points in reciprocal lattice and weights: KPOINTS created by Atomic Simulation Env
   0.25000000  0.25000000  0.00000000       0.500
  -0.25000000  0.25000000  0.00000000       0.500
 
 position of ions in fractional coordinates (direct lattice) 
   0.22056717  0.99981139  0.50451122
   0.05493208  0.10060806  0.50455182
   0.10954836  0.99980781  0.50422445
   0.27617699  0.09927293  0.50546755
   0.22291944  0.20008048  0.50454840
   0.05517030  0.30066936  0.50341221
   0.11089556  0.20056206  0.50429333
   0.28179714  0.29912352  0.50249612
   0.22424365  0.39958043  0.49997078
   0.05573119  0.50101396  0.50060419
   0.11242943  0.40074392  0.50165529
   0.28101250  0.49967629  0.49353829
   0.22583519  0.60094179  0.49595007
   0.05530855  0.69948459  0.50095538
   0.11285438  0.60053010  0.49952120
   0.28233708  0.70204870  0.49588170
   0.22282346  0.80025896  0.50079312
   0.05503134  0.89935418  0.50333276
   0.11078072  0.79944048  0.50193551
   0.27633199  0.90048461  0.50275351
   0.55472722  0.99890308  0.50532516
   0.38725719  0.09704850  0.50636531
   0.44369681  0.99890151  0.50532274
   0.61116847  0.09705057  0.50636782
   0.55553331  0.19428133  0.50596348
   0.44289352  0.19427955  0.50596291
   0.55582850  0.80291054  0.49737332
   0.38808452  0.90093806  0.50251026
   0.44259435  0.80290984  0.49736816
   0.61033884  0.90093902  0.50251792
   0.88887605  0.99980999  0.50422711
   0.72224832  0.09927799  0.50547255
   0.77785752  0.99981571  0.50451649
   0.94349343  0.10060971  0.50455444
   0.88753041  0.20056468  0.50429945
   0.71662947  0.29912767  0.50250079
   0.77550656  0.20008535  0.50455537
   0.94325673  0.30067129  0.50341552
   0.88599816  0.40074657  0.50165830
   0.71741442  0.49968017  0.49354082
   0.77418329  0.39958391  0.49997459
   0.94269604  0.50101667  0.50060484
   0.88557109  0.60053328  0.49952182
   0.71608694  0.70205246  0.49588928
   0.77259033  0.60094643  0.49595334
   0.94311570  0.69948682  0.50095571
   0.88764292  0.79944232  0.50193738
   0.72209205  0.90048825  0.50276142
   0.77560048  0.80026247  0.50079964
   0.94339205  0.89935540  0.50333333
   0.39317656  0.29514543  0.50283637
   0.60525076  0.29514774  0.50283762
   0.38495105  0.49989951  0.48297564
   0.61347663  0.49990291  0.48297732
   0.39054994  0.70674772  0.49143699
   0.60787353  0.70674873  0.49144649
   0.49921607  0.40462617  0.48785191
   0.49921429  0.58911905  0.45917151
 
 position of ions in cartesian coordinates  (Angst):
   2.81255563 12.49684829 10.04068716
   0.70052416  1.24578404 10.04650293
   1.39699276 12.49682363 10.03498078
   3.52154215  1.22902940 10.06473738
   2.84248174  2.49039139 10.04587555
   0.70357820  3.74903615 10.02269732
   1.41410360  2.49643652 10.04079764
   3.59321890  3.72969170 10.00445580
   2.85938202  4.98670847  9.95361252
   0.71074606  6.25587598  9.96566736
   1.43367775  5.00123566  9.98715346
   3.58322935  6.23929545  9.82496453
   2.87969127  7.50630156  9.87242872
   0.70537383  8.73918676  9.97155666
   1.43911240  7.50107104  9.94354623
   3.60013598  8.77137463  9.87050275
   2.84130739 10.00008856  9.96775903
   0.70185638 11.23994918 10.01778535
   1.41268896  9.98983085  9.99051579
   3.52358505 11.25408303 10.00623667
   7.07331575 12.48542374 10.05688814
   4.93788768  1.20116069 10.08262268
   5.65760509 12.48541689 10.05684403
   7.79290354  1.20116077 10.08266464
   7.08352678  2.41775592 10.07407422
   5.64729545  2.41774667 10.07406699
   7.08733995 10.03331610  9.89963447
   4.94850317 11.25975014 10.00138628
   5.64353012 10.03332048  9.89953573
   7.78239168 11.25973643 10.00153091
  11.33393271 12.49676128 10.03500596
   9.20924457  1.22904123 10.06482095
   9.91837363 12.49683811 10.04077220
  12.03026503  1.24570236 10.04652352
  11.31670806  2.49637978 10.04089187
   9.13761669  3.72969349 10.00453337
   9.88833035  2.49038858 10.04599462
  12.02726346  3.74895804 10.02273154
  11.29718706  5.00117981  9.98718571
   9.14764040  6.23929375  9.82499934
   9.87147362  4.98668866  9.95366876
  12.02013045  6.25580786  9.96564867
  11.29175801  7.50102193  9.94353108
   9.13073150  8.77137162  9.87063832
   9.85117842  7.50629673  9.87247421
  12.02549813  8.73911251  9.97153148
  11.31819233  9.98976460  9.99052536
   9.20731859 11.25407704 10.00637833
   9.88957740 10.00006883  9.96786920
  12.02903890 11.23986233 10.01776497
   5.01337948  3.67989516 10.01124940
   7.71746474  3.67989970 10.01126678
   4.90851208  6.24234959  9.61462719
   7.82236339  6.24236584  9.61465230
   4.97992054  8.83027262  9.78196592
   7.75093902  8.83025995  9.78214735
   6.36545907  5.05012385  9.71225343
   6.36544645  7.35929172  9.14011877
 


--------------------------------------------------------------------------------------------------------


 k-point  1 :   0.2500 0.2500 0.0000  plane waves:   80646
 k-point  2 :  -0.2500 0.2500 0.0000  plane waves:   80646

 maximum and minimum number of plane-waves per node :      2543     2492

 maximum number of plane-waves:     80646
 maximum index in each direction: 
   IXMAX=   23   IYMAX=   22   IZMAX=   36
   IXMIN=  -23   IYMIN=  -23   IZMIN=  -36


 parallel 3D FFT for wavefunctions:
    minimum data exchange during FFTs selected (reduces bandwidth)
 parallel 3D FFT for charge:
    minimum data exchange during FFTs selected (reduces bandwidth)


 FFT grid for exact exchange (Hartree Fock) 
  NGX = 70; NGY = 70; NGZ =112

 
 Radii for the augmentation spheres in the non-local exchange
 for species   1 augmentation radius   0.874 (default was   0.699)
       energy cutoff for augmentation   2000.0
 for species   2 augmentation radius   0.886 (default was   0.709)
       energy cutoff for augmentation   2000.0
 for species   3 augmentation radius   1.263 (default was   1.010)
       energy cutoff for augmentation   2000.0
 for species   4 augmentation radius   1.575 (default was   1.260)
       energy cutoff for augmentation   2000.0

 real space projection operators:
  total allocation   :       2735.12 KBytes
  max/ min on nodes  :        145.57         39.09

 Maximum index for augmentation-charges in exchange          216
  SETUP_FOCK is finished

 total amount of memory used by VASP MPI-rank0   165723. kBytes
=======================================================================

   base      :      30000. kBytes
   nonl-proj :       5306. kBytes
   fftplans  :      14250. kBytes
   grid      :      36827. kBytes
   one-center:         62. kBytes
   HF        :         23. kBytes
   nonlr-proj:       3061. kBytes
   wavefun   :      76194. kBytes
 
     INWAV:  cpu time    3.5020: real time    3.5026
 Broyden mixing: mesh for mixing (old mesh)
   NGX = 47   NGY = 45   NGZ = 73
  (NGX  =192   NGY  =192   NGZ  =300)
  gives a total of 154395 points

 charge density for first step will be calculated from the start-wavefunctions


--------------------------------------------------------------------------------------------------------


 Maximum index for augmentation-charges         1156 (set IRDMAX)


--------------------------------------------------------------------------------------------------------


 initial charge from wavefunction
 First call to EWALD:  gamma=   0.121
 Maximum number of real-space cells 3x 3x 2
 Maximum number of reciprocal cells 2x 2x 4

    FEWALD:  cpu time    0.0037: real time    0.0037


--------------------------------------- Iteration      1(   1)  ---------------------------------------


    POTLOK:  cpu time    1.3897: real time    1.3901
    SETDIJ:  cpu time    2.0856: real time    2.0865
    TRIAL :  cpu time  512.6624: real time  512.7884
    CORREC:  cpu time    0.0019: real time    0.0021
    CHARGE:  cpu time    1.6607: real time    1.6608
    --------------------------------------------
      LOOP:  cpu time  517.8156: real time  517.9468

 eigenvalue-minimisations  :     0
 total energy-change (2. order) :-0.6086668E+03  (-0.4361294E+00)
 number of electron     240.0000000 magnetization       2.0000010
 augmentation part       10.8993951 magnetization       1.4423220

 DIPCOR: dipole corrections for dipol
 direction  3 min pos     1,
 dipolmoment           0.000004     -0.000605      0.466300 electrons x Angstroem
 Tr[quadrupol]     -6450.052151

 energy correction for charged system         0.000000 eV
 dipol+quadrupol energy correction            0.006218 eV
 added-field ion interaction          0.000000 eV  (added to PSCEN)


 Free energy of the ion-electron system (eV)
  ---------------------------------------------------
  alpha Z        PSCENC =       100.37628263
  Ewald energy   TEWEN  =     37616.20912763
  -Hartree energ DENC   =    -45650.82159651
  -exchange      EXHF   =       538.62737944
  -V(xc)+E(xc)   XCENC  =       583.70579145
  PAW double counting   =     25775.67900180   -25780.79132490
  entropy T*S    EENTRO =        -0.00003345
  eigenvalues    EBANDS =     -3079.77618223
  atomic energy  EATOM  =      9288.12480467
  ---------------------------------------------------
  free energy    TOTEN  =      -608.66684051 eV

  energy without entropy =     -608.66680706  energy(sigma->0) =     -608.66682379
  exchange ACFDT corr.  =        -0.00021686  see jH, gK, PRB 81, 115126


--------------------------------------------------------------------------------------------------------




--------------------------------------- Iteration      1(   2)  ---------------------------------------


    POTLOK:  cpu time    1.4034: real time    1.4036
    SETDIJ:  cpu time    2.1142: real time    2.1143
    TRIAL :  cpu time  512.3634: real time  512.4849
    CORREC:  cpu time    0.0016: real time    0.0018
    CHARGE:  cpu time    1.6615: real time    1.6617
    --------------------------------------------
      LOOP:  cpu time  517.5468: real time  517.6691

 eigenvalue-minimisations  :     0
 total energy-change (2. order) :-0.3448046E+00  (-0.3421993E+00)
 number of electron     240.0000000 magnetization       2.0000002
 augmentation part       10.8344302 magnetization       1.4822460

 DIPCOR: dipole corrections for dipol
 direction  3 min pos     1,
 dipolmoment           0.000005     -0.000659      0.507618 electrons x Angstroem
 Tr[quadrupol]     -6449.890348

 energy correction for charged system         0.000000 eV
 dipol+quadrupol energy correction            0.007368 eV
 added-field ion interaction          0.000000 eV  (added to PSCEN)


 Free energy of the ion-electron system (eV)
  ---------------------------------------------------
  alpha Z        PSCENC =       100.37743330
  Ewald energy   TEWEN  =     37616.20912763
  -Hartree energ DENC   =    -45637.27073864
  -exchange      EXHF   =       538.50473262
  -V(xc)+E(xc)   XCENC  =       583.41400817
  PAW double counting   =     25912.67055516   -25917.46190680
  entropy T*S    EENTRO =        -0.00000543
  eigenvalues    EBANDS =     -3093.57962778
  atomic energy  EATOM  =      9288.12480467
  ---------------------------------------------------
  free energy    TOTEN  =      -609.01164511 eV

  energy without entropy =     -609.01163968  energy(sigma->0) =     -609.01164240
  exchange ACFDT corr.  =        -0.00005305  see jH, gK, PRB 81, 115126


--------------------------------------------------------------------------------------------------------




--------------------------------------- Iteration      1(   3)  ---------------------------------------


    POTLOK:  cpu time    1.4083: real time    1.4084
    SETDIJ:  cpu time    2.0824: real time    2.0827
    TRIAL :  cpu time  511.7558: real time  511.8602
    CORREC:  cpu time    0.0016: real time    0.0018
    CHARGE:  cpu time    1.6611: real time    1.6612
    --------------------------------------------
      LOOP:  cpu time  516.9119: real time  517.0171

 eigenvalue-minimisations  :     0
 total energy-change (2. order) :-0.2545326E+00  (-0.1832446E+00)
 number of electron     240.0000000 magnetization       1.9999999
 augmentation part       10.8113997 magnetization       1.5168368

 DIPCOR: dipole corrections for dipol
 direction  3 min pos     1,
 dipolmoment           0.000005     -0.000672      0.517244 electrons x Angstroem
 Tr[quadrupol]     -6449.689842

 energy correction for charged system         0.000000 eV
 dipol+quadrupol energy correction            0.007650 eV
 added-field ion interaction          0.000000 eV  (added to PSCEN)


 Free energy of the ion-electron system (eV)
  ---------------------------------------------------
  alpha Z        PSCENC =       100.37771542
  Ewald energy   TEWEN  =     37616.20912763
  -Hartree energ DENC   =    -45619.74751503
  -exchange      EXHF   =       538.34283911
  -V(xc)+E(xc)   XCENC  =       583.01866165
  PAW double counting   =     26081.45931868   -26085.77366944
  entropy T*S    EENTRO =        -0.00000062
  eigenvalues    EBANDS =     -3111.27745497
  atomic energy  EATOM  =      9288.12480467
  ---------------------------------------------------
  free energy    TOTEN  =      -609.26617771 eV

  energy without entropy =     -609.26617709  energy(sigma->0) =     -609.26617740
  exchange ACFDT corr.  =        -0.00000768  see jH, gK, PRB 81, 115126


--------------------------------------------------------------------------------------------------------




--------------------------------------- Iteration      1(   4)  ---------------------------------------


    POTLOK:  cpu time    1.4108: real time    1.4110
    SETDIJ:  cpu time    2.0850: real time    2.0851
    TRIAL :  cpu time  512.0657: real time  512.1647
    CORREC:  cpu time    0.0015: real time    0.0018
    CHARGE:  cpu time    1.6491: real time    1.6492
    --------------------------------------------
      LOOP:  cpu time  517.2143: real time  517.3140

 eigenvalue-minimisations  :     0
 total energy-change (2. order) :-0.1368705E+00  (-0.9946719E-01)
 number of electron     240.0000000 magnetization       1.9999999
 augmentation part       10.8190765 magnetization       1.5418412

 DIPCOR: dipole corrections for dipol
 direction  3 min pos     1,
 dipolmoment           0.000005     -0.000654      0.503413 electrons x Angstroem
 Tr[quadrupol]     -6449.593356

 energy correction for charged system         0.000000 eV
 dipol+quadrupol energy correction            0.007247 eV
 added-field ion interaction          0.000000 eV  (added to PSCEN)


 Free energy of the ion-electron system (eV)
  ---------------------------------------------------
  alpha Z        PSCENC =       100.37731176
  Ewald energy   TEWEN  =     37616.20912763
  -Hartree energ DENC   =    -45610.18218291
  -exchange      EXHF   =       538.33298166
  -V(xc)+E(xc)   XCENC  =       582.79131480
  PAW double counting   =     26220.83016850   -26225.01508081
  entropy T*S    EENTRO =        -0.00000006
  eigenvalues    EBANDS =     -3120.87149290
  atomic energy  EATOM  =      9288.12480467
  ---------------------------------------------------
  free energy    TOTEN  =      -609.40304823 eV

  energy without entropy =     -609.40304817  energy(sigma->0) =     -609.40304820
  exchange ACFDT corr.  =        -0.00000078  see jH, gK, PRB 81, 115126


--------------------------------------------------------------------------------------------------------




--------------------------------------- Iteration      1(   5)  ---------------------------------------


    POTLOK:  cpu time    1.4100: real time    1.4101
    SETDIJ:  cpu time    2.0843: real time    2.0844
    TRIAL :  cpu time  511.4367: real time  511.5763
    CORREC:  cpu time    0.0013: real time    0.0013
    CHARGE:  cpu time    1.6572: real time    1.6577
    --------------------------------------------
      LOOP:  cpu time  516.5918: real time  516.7321

 eigenvalue-minimisations  :     0
 total energy-change (2. order) :-0.7713755E-01  (-0.6057524E-01)
 number of electron     240.0000000 magnetization       1.9999999
 augmentation part       10.8298390 magnetization       1.5586617

 DIPCOR: dipole corrections for dipol
 direction  3 min pos     1,
 dipolmoment           0.000005     -0.000643      0.495497 electrons x Angstroem
 Tr[quadrupol]     -6449.614624

 energy correction for charged system         0.000000 eV
 dipol+quadrupol energy correction            0.007021 eV
 added-field ion interaction          0.000000 eV  (added to PSCEN)


 Free energy of the ion-electron system (eV)
  ---------------------------------------------------
  alpha Z        PSCENC =       100.37708565
  Ewald energy   TEWEN  =     37616.20912763
  -Hartree energ DENC   =    -45610.27889950
  -exchange      EXHF   =       538.50816018
  -V(xc)+E(xc)   XCENC  =       582.79870722
  PAW double counting   =     26317.13338723   -26321.47193159
  entropy T*S    EENTRO =        -0.00000001
  eigenvalues    EBANDS =     -3120.88062721
  atomic energy  EATOM  =      9288.12480467
  ---------------------------------------------------
  free energy    TOTEN  =      -609.48018578 eV

  energy without entropy =     -609.48018577  energy(sigma->0) =     -609.48018578
  exchange ACFDT corr.  =        -0.00000007  see jH, gK, PRB 81, 115126


--------------------------------------------------------------------------------------------------------




--------------------------------------- Iteration      1(   6)  ---------------------------------------


    POTLOK:  cpu time    1.4086: real time    1.4090
    SETDIJ:  cpu time    2.1134: real time    2.1136
    TRIAL :  cpu time  511.0109: real time  511.1420
    CORREC:  cpu time    0.0013: real time    0.0015
    CHARGE:  cpu time    1.6494: real time    1.6495
    --------------------------------------------
      LOOP:  cpu time  516.1861: real time  516.3180

 eigenvalue-minimisations  :     0
 total energy-change (2. order) :-0.4922723E-01  (-0.4046966E-01)
 number of electron     240.0000000 magnetization       1.9999999
 augmentation part       10.8342162 magnetization       1.5699908

 DIPCOR: dipole corrections for dipol
 direction  3 min pos     1,
 dipolmoment           0.000005     -0.000649      0.499943 electrons x Angstroem
 Tr[quadrupol]     -6449.683518

 energy correction for charged system         0.000000 eV
 dipol+quadrupol energy correction            0.007147 eV
 added-field ion interaction          0.000000 eV  (added to PSCEN)


 Free energy of the ion-electron system (eV)
  ---------------------------------------------------
  alpha Z        PSCENC =       100.37721219
  Ewald energy   TEWEN  =     37616.20912763
  -Hartree energ DENC   =    -45614.63575497
  -exchange      EXHF   =       538.75796651
  -V(xc)+E(xc)   XCENC  =       582.92844463
  PAW double counting   =     26376.54429393   -26381.01004929
  entropy T*S    EENTRO =        -0.00000000
  eigenvalues    EBANDS =     -3116.82545830
  atomic energy  EATOM  =      9288.12480467
  ---------------------------------------------------
  free energy    TOTEN  =      -609.52941301 eV

  energy without entropy =     -609.52941301  energy(sigma->0) =     -609.52941301
  exchange ACFDT corr.  =        -0.00000001  see jH, gK, PRB 81, 115126


--------------------------------------------------------------------------------------------------------




--------------------------------------- Iteration      1(   7)  ---------------------------------------


    POTLOK:  cpu time    1.4045: real time    1.4050
    SETDIJ:  cpu time    2.0806: real time    2.0808
    TRIAL :  cpu time  509.8036: real time  509.9102
    CORREC:  cpu time    0.0012: real time    0.0014
    CHARGE:  cpu time    1.6475: real time    1.6476
    --------------------------------------------
      LOOP:  cpu time  514.9397: real time  515.0474

 eigenvalue-minimisations  :     0
 total energy-change (2. order) :-0.3352710E-01  (-0.2631592E-01)
 number of electron     240.0000000 magnetization       1.9999999
 augmentation part       10.8362052 magnetization       1.5785414

 DIPCOR: dipole corrections for dipol
 direction  3 min pos     1,
 dipolmoment           0.000005     -0.000661      0.509033 electrons x Angstroem
 Tr[quadrupol]     -6449.744013

 energy correction for charged system         0.000000 eV
 dipol+quadrupol energy correction            0.007409 eV
 added-field ion interaction          0.000000 eV  (added to PSCEN)


 Free energy of the ion-electron system (eV)
  ---------------------------------------------------
  alpha Z        PSCENC =       100.37747446
  Ewald energy   TEWEN  =     37616.20912763
  -Hartree energ DENC   =    -45618.83652067
  -exchange      EXHF   =       538.97930094
  -V(xc)+E(xc)   XCENC  =       583.06759546
  PAW double counting   =     26409.92637025   -26414.40595621
  entropy T*S    EENTRO =        -0.00000000
  eigenvalues    EBANDS =     -3113.00513663
  atomic energy  EATOM  =      9288.12480467
  ---------------------------------------------------
  free energy    TOTEN  =      -609.56294010 eV

  energy without entropy =     -609.56294010  energy(sigma->0) =     -609.56294010
  exchange ACFDT corr.  =        -0.00000000  see jH, gK, PRB 81, 115126


--------------------------------------------------------------------------------------------------------




--------------------------------------- Iteration      1(   8)  ---------------------------------------


    POTLOK:  cpu time    1.4037: real time    1.4039
    SETDIJ:  cpu time    2.0833: real time    2.0834
    TRIAL :  cpu time  509.4407: real time  509.5392
    CORREC:  cpu time    0.0010: real time    0.0012
    CHARGE:  cpu time    1.6590: real time    1.6591
    --------------------------------------------
      LOOP:  cpu time  514.5897: real time  514.6913

 eigenvalue-minimisations  :     0
 total energy-change (2. order) :-0.2213068E-01  (-0.1754980E-01)
 number of electron     240.0000000 magnetization       1.9999999
 augmentation part       10.8397225 magnetization       1.5859929

 DIPCOR: dipole corrections for dipol
 direction  3 min pos     1,
 dipolmoment           0.000005     -0.000669      0.515501 electrons x Angstroem
 Tr[quadrupol]     -6449.777236

 energy correction for charged system         0.000000 eV
 dipol+quadrupol energy correction            0.007599 eV
 added-field ion interaction          0.000000 eV  (added to PSCEN)


 Free energy of the ion-electron system (eV)
  ---------------------------------------------------
  alpha Z        PSCENC =       100.37766393
  Ewald energy   TEWEN  =     37616.20912763
  -Hartree energ DENC   =    -45621.35511704
  -exchange      EXHF   =       539.13032368
  -V(xc)+E(xc)   XCENC  =       583.16527706
  PAW double counting   =     26426.86831888   -26431.33304610
  entropy T*S    EENTRO =        -0.00000000
  eigenvalues    EBANDS =     -3110.77242350
  atomic energy  EATOM  =      9288.12480467
  ---------------------------------------------------
  free energy    TOTEN  =      -609.58507078 eV

  energy without entropy =     -609.58507078  energy(sigma->0) =     -609.58507078
  exchange ACFDT corr.  =        -0.00000000  see jH, gK, PRB 81, 115126


--------------------------------------------------------------------------------------------------------




--------------------------------------- Iteration      1(   9)  ---------------------------------------


    POTLOK:  cpu time    1.4047: real time    1.4049
    SETDIJ:  cpu time    2.1106: real time    2.1108
    TRIAL :  cpu time  510.0506: real time  510.1556
    CORREC:  cpu time    0.0011: real time    0.0013
    CHARGE:  cpu time    1.6474: real time    1.6476
    --------------------------------------------
      LOOP:  cpu time  515.2163: real time  515.3222

 eigenvalue-minimisations  :     0
 total energy-change (2. order) :-0.1533607E-01  (-0.1263846E-01)
 number of electron     240.0000000 magnetization       1.9999999
 augmentation part       10.8440380 magnetization       1.5928132

 DIPCOR: dipole corrections for dipol
 direction  3 min pos     1,
 dipolmoment           0.000005     -0.000671      0.516983 electrons x Angstroem
 Tr[quadrupol]     -6449.787232

 energy correction for charged system         0.000000 eV
 dipol+quadrupol energy correction            0.007643 eV
 added-field ion interaction          0.000000 eV  (added to PSCEN)


 Free energy of the ion-electron system (eV)
  ---------------------------------------------------
  alpha Z        PSCENC =       100.37770769
  Ewald energy   TEWEN  =     37616.20912763
  -Hartree energ DENC   =    -45622.32785362
  -exchange      EXHF   =       539.21485855
  -V(xc)+E(xc)   XCENC  =       583.21684371
  PAW double counting   =     26434.65886943   -26439.14272165
  entropy T*S    EENTRO =        -0.00000000
  eigenvalues    EBANDS =     -3109.93204325
  atomic energy  EATOM  =      9288.12480467
  ---------------------------------------------------
  free energy    TOTEN  =      -609.60040685 eV

  energy without entropy =     -609.60040685  energy(sigma->0) =     -609.60040685
  exchange ACFDT corr.  =        -0.00000000  see jH, gK, PRB 81, 115126


--------------------------------------------------------------------------------------------------------




--------------------------------------- Iteration      1(  10)  ---------------------------------------


    POTLOK:  cpu time    1.3986: real time    1.3987
    SETDIJ:  cpu time    2.0767: real time    2.0768
    TRIAL :  cpu time  507.6110: real time  507.7343
    CORREC:  cpu time    0.0011: real time    0.0013
    CHARGE:  cpu time    1.6500: real time    1.6501
    --------------------------------------------
      LOOP:  cpu time  512.7392: real time  512.8630

 eigenvalue-minimisations  :     0
 total energy-change (2. order) :-0.1133226E-01  (-0.9261389E-02)
 number of electron     240.0000000 magnetization       1.9999999
 augmentation part       10.8473807 magnetization       1.5990267

 DIPCOR: dipole corrections for dipol
 direction  3 min pos     1,
 dipolmoment           0.000005     -0.000669      0.514876 electrons x Angstroem
 Tr[quadrupol]     -6449.784502

 energy correction for charged system         0.000000 eV
 dipol+quadrupol energy correction            0.007580 eV
 added-field ion interaction          0.000000 eV  (added to PSCEN)


 Free energy of the ion-electron system (eV)
  ---------------------------------------------------
  alpha Z        PSCENC =       100.37764553
  Ewald energy   TEWEN  =     37616.20912763
  -Hartree energ DENC   =    -45622.33500624
  -exchange      EXHF   =       539.25505518
  -V(xc)+E(xc)   XCENC  =       583.23638683
  PAW double counting   =     26437.66726334   -26442.19054487
  entropy T*S    EENTRO =        -0.00000000
  eigenvalues    EBANDS =     -3109.95647119
  atomic energy  EATOM  =      9288.12480467
  ---------------------------------------------------
  free energy    TOTEN  =      -609.61173911 eV

  energy without entropy =     -609.61173911  energy(sigma->0) =     -609.61173911
  exchange ACFDT corr.  =        -0.00000000  see jH, gK, PRB 81, 115126


--------------------------------------------------------------------------------------------------------




--------------------------------------- Iteration      1(  11)  ---------------------------------------


    POTLOK:  cpu time    1.3989: real time    1.3990
    SETDIJ:  cpu time    2.0838: real time    2.0840
    TRIAL :  cpu time  507.9807: real time  508.0820
    CORREC:  cpu time    0.0010: real time    0.0012
    CHARGE:  cpu time    1.6508: real time    1.6510
    --------------------------------------------
      LOOP:  cpu time  513.1176: real time  513.2198

 eigenvalue-minimisations  :     0
 total energy-change (2. order) :-0.8413766E-02  (-0.6838924E-02)
 number of electron     240.0000000 magnetization       1.9999999
 augmentation part       10.8491908 magnetization       1.6045718

 DIPCOR: dipole corrections for dipol
 direction  3 min pos     1,
 dipolmoment           0.000005     -0.000665      0.512176 electrons x Angstroem
 Tr[quadrupol]     -6449.778943

 energy correction for charged system         0.000000 eV
 dipol+quadrupol energy correction            0.007501 eV
 added-field ion interaction          0.000000 eV  (added to PSCEN)


 Free energy of the ion-electron system (eV)
  ---------------------------------------------------
  alpha Z        PSCENC =       100.37756624
  Ewald energy   TEWEN  =     37616.20912763
  -Hartree energ DENC   =    -45622.01452388
  -exchange      EXHF   =       539.27593347
  -V(xc)+E(xc)   XCENC  =       583.24292194
  PAW double counting   =     26438.51139894   -26443.06740690
  entropy T*S    EENTRO =        -0.00000000
  eigenvalues    EBANDS =     -3110.27997499
  atomic energy  EATOM  =      9288.12480467
  ---------------------------------------------------
  free energy    TOTEN  =      -609.62015288 eV

  energy without entropy =     -609.62015288  energy(sigma->0) =     -609.62015288
  exchange ACFDT corr.  =        -0.00000000  see jH, gK, PRB 81, 115126


--------------------------------------------------------------------------------------------------------




--------------------------------------- Iteration      1(  12)  ---------------------------------------


    POTLOK:  cpu time    1.3914: real time    1.3915
    SETDIJ:  cpu time    2.0801: real time    2.0803
    TRIAL :  cpu time  507.4503: real time  507.5856
    CORREC:  cpu time    0.0010: real time    0.0012
    CHARGE:  cpu time    1.6594: real time    1.6595
    --------------------------------------------
      LOOP:  cpu time  512.5846: real time  512.7206

 eigenvalue-minimisations  :     0
 total energy-change (2. order) :-0.6274274E-02  (-0.5194585E-02)
 number of electron     240.0000000 magnetization       1.9999999
 augmentation part       10.8500818 magnetization       1.6093965

 DIPCOR: dipole corrections for dipol
 direction  3 min pos     1,
 dipolmoment           0.000005     -0.000664      0.511069 electrons x Angstroem
 Tr[quadrupol]     -6449.775900

 energy correction for charged system         0.000000 eV
 dipol+quadrupol energy correction            0.007469 eV
 added-field ion interaction          0.000000 eV  (added to PSCEN)


 Free energy of the ion-electron system (eV)
  ---------------------------------------------------
  alpha Z        PSCENC =       100.37753382
  Ewald energy   TEWEN  =     37616.20912763
  -Hartree energ DENC   =    -45621.78394921
  -exchange      EXHF   =       539.29396951
  -V(xc)+E(xc)   XCENC  =       583.24965933
  PAW double counting   =     26438.91441897   -26443.48827020
  entropy T*S    EENTRO =        -0.00000000
  eigenvalues    EBANDS =     -3110.52372168
  atomic energy  EATOM  =      9288.12480467
  ---------------------------------------------------
  free energy    TOTEN  =      -609.62642716 eV

  energy without entropy =     -609.62642716  energy(sigma->0) =     -609.62642716
  exchange ACFDT corr.  =        -0.00000000  see jH, gK, PRB 81, 115126


--------------------------------------------------------------------------------------------------------




--------------------------------------- Iteration      1(  13)  ---------------------------------------


    POTLOK:  cpu time    1.3918: real time    1.3919
    SETDIJ:  cpu time    2.0761: real time    2.0763
    TRIAL :  cpu time  508.0675: real time  508.1886
    CORREC:  cpu time    0.0010: real time    0.0012
    CHARGE:  cpu time    1.6497: real time    1.6499
    --------------------------------------------
      LOOP:  cpu time  513.1886: real time  513.3104

 eigenvalue-minimisations  :     0
 total energy-change (2. order) :-0.4789100E-02  (-0.4049864E-02)
 number of electron     240.0000000 magnetization       1.9999999
 augmentation part       10.8507920 magnetization       1.6134822

 DIPCOR: dipole corrections for dipol
 direction  3 min pos     1,
 dipolmoment           0.000005     -0.000664      0.511585 electrons x Angstroem
 Tr[quadrupol]     -6449.776113

 energy correction for charged system         0.000000 eV
 dipol+quadrupol energy correction            0.007484 eV
 added-field ion interaction          0.000000 eV  (added to PSCEN)


 Free energy of the ion-electron system (eV)
  ---------------------------------------------------
  alpha Z        PSCENC =       100.37754891
  Ewald energy   TEWEN  =     37616.20912763
  -Hartree energ DENC   =    -45621.75331466
  -exchange      EXHF   =       539.31385290
  -V(xc)+E(xc)   XCENC  =       583.26005533
  PAW double counting   =     26439.52581355   -26444.11015191
  entropy T*S    EENTRO =        -0.00000000
  eigenvalues    EBANDS =     -3110.57895267
  atomic energy  EATOM  =      9288.12480467
  ---------------------------------------------------
  free energy    TOTEN  =      -609.63121625 eV

  energy without entropy =     -609.63121625  energy(sigma->0) =     -609.63121625
  exchange ACFDT corr.  =        -0.00000000  see jH, gK, PRB 81, 115126


--------------------------------------------------------------------------------------------------------




--------------------------------------- Iteration      1(  14)  ---------------------------------------


    POTLOK:  cpu time    1.3881: real time    1.3882
    SETDIJ:  cpu time    2.0809: real time    2.0812
    TRIAL :  cpu time  507.0534: real time  507.1410
    CORREC:  cpu time    0.0010: real time    0.0013
    CHARGE:  cpu time    1.6521: real time    1.6522
    --------------------------------------------
      LOOP:  cpu time  512.1782: real time  512.2666

 eigenvalue-minimisations  :     0
 total energy-change (2. order) :-0.3755692E-02  (-0.3235643E-02)
 number of electron     240.0000000 magnetization       1.9999999
 augmentation part       10.8516125 magnetization       1.6169039

 DIPCOR: dipole corrections for dipol
 direction  3 min pos     1,
 dipolmoment           0.000005     -0.000666      0.512581 electrons x Angstroem
 Tr[quadrupol]     -6449.778018

 energy correction for charged system         0.000000 eV
 dipol+quadrupol energy correction            0.007513 eV
 added-field ion interaction          0.000000 eV  (added to PSCEN)


 Free energy of the ion-electron system (eV)
  ---------------------------------------------------
  alpha Z        PSCENC =       100.37757809
  Ewald energy   TEWEN  =     37616.20912763
  -Hartree energ DENC   =    -45621.83980147
  -exchange      EXHF   =       539.33370815
  -V(xc)+E(xc)   XCENC  =       583.27175962
  PAW double counting   =     26440.39847345   -26444.99326132
  entropy T*S    EENTRO =        -0.00000000
  eigenvalues    EBANDS =     -3110.51736076
  atomic energy  EATOM  =      9288.12480467
  ---------------------------------------------------
  free energy    TOTEN  =      -609.63497195 eV

  energy without entropy =     -609.63497195  energy(sigma->0) =     -609.63497195
  exchange ACFDT corr.  =        -0.00000000  see jH, gK, PRB 81, 115126


--------------------------------------------------------------------------------------------------------




--------------------------------------- Iteration      1(  15)  ---------------------------------------


    POTLOK:  cpu time    1.3855: real time    1.3856
    SETDIJ:  cpu time    2.0696: real time    2.0832
    TRIAL :  cpu time  507.2873: real time  507.3849
    CORREC:  cpu time    0.0010: real time    0.0012
    CHARGE:  cpu time    1.6501: real time    1.6502
    --------------------------------------------
      LOOP:  cpu time  512.3958: real time  512.5075

 eigenvalue-minimisations  :     0
 total energy-change (2. order) :-0.3035598E-02  (-0.2656170E-02)
 number of electron     240.0000000 magnetization       1.9999999
 augmentation part       10.8524857 magnetization       1.6198008

 DIPCOR: dipole corrections for dipol
 direction  3 min pos     1,
 dipolmoment           0.000005     -0.000666      0.513193 electrons x Angstroem
 Tr[quadrupol]     -6449.780007

 energy correction for charged system         0.000000 eV
 dipol+quadrupol energy correction            0.007531 eV
 added-field ion interaction          0.000000 eV  (added to PSCEN)


 Free energy of the ion-electron system (eV)
  ---------------------------------------------------
  alpha Z        PSCENC =       100.37759605
  Ewald energy   TEWEN  =     37616.20912763
  -Hartree energ DENC   =    -45621.93392032
  -exchange      EXHF   =       539.35104226
  -V(xc)+E(xc)   XCENC  =       583.28197394
  PAW double counting   =     26441.41146583   -26446.01773976
  entropy T*S    EENTRO =        -0.00000000
  eigenvalues    EBANDS =     -3110.44235784
  atomic energy  EATOM  =      9288.12480467
  ---------------------------------------------------
  free energy    TOTEN  =      -609.63800755 eV

  energy without entropy =     -609.63800755  energy(sigma->0) =     -609.63800755
  exchange ACFDT corr.  =        -0.00000000  see jH, gK, PRB 81, 115126


--------------------------------------------------------------------------------------------------------




--------------------------------------- Iteration      1(  16)  ---------------------------------------


    POTLOK:  cpu time    1.3821: real time    1.3823
    SETDIJ:  cpu time    2.0796: real time    2.0798
    TRIAL :  cpu time  507.2205: real time  507.3294
    CORREC:  cpu time    0.0010: real time    0.0013
    CHARGE:  cpu time    1.6499: real time    1.6501
    --------------------------------------------
      LOOP:  cpu time  512.3357: real time  512.4455

 eigenvalue-minimisations  :     0
 total energy-change (2. order) :-0.2524809E-02  (-0.2230419E-02)
 number of electron     240.0000000 magnetization       1.9999999
 augmentation part       10.8532686 magnetization       1.6222982

 DIPCOR: dipole corrections for dipol
 direction  3 min pos     1,
 dipolmoment           0.000005     -0.000666      0.513262 electrons x Angstroem
 Tr[quadrupol]     -6449.781379

 energy correction for charged system         0.000000 eV
 dipol+quadrupol energy correction            0.007533 eV
 added-field ion interaction          0.000000 eV  (added to PSCEN)


 Free energy of the ion-electron system (eV)
  ---------------------------------------------------
  alpha Z        PSCENC =       100.37759806
  Ewald energy   TEWEN  =     37616.20912763
  -Hartree energ DENC   =    -45621.98475626
  -exchange      EXHF   =       539.36519102
  -V(xc)+E(xc)   XCENC  =       583.28979457
  PAW double counting   =     26442.51978279   -26447.13692409
  entropy T*S    EENTRO =        -0.00000000
  eigenvalues    EBANDS =     -3110.40515074
  atomic energy  EATOM  =      9288.12480467
  ---------------------------------------------------
  free energy    TOTEN  =      -609.64053235 eV

  energy without entropy =     -609.64053235  energy(sigma->0) =     -609.64053235
  exchange ACFDT corr.  =        -0.00000000  see jH, gK, PRB 81, 115126


--------------------------------------------------------------------------------------------------------




--------------------------------------- Iteration      1(  17)  ---------------------------------------


    POTLOK:  cpu time    1.3796: real time    1.3798
    SETDIJ:  cpu time    2.0779: real time    2.0781
    TRIAL :  cpu time  507.7208: real time  507.8432
    CORREC:  cpu time    0.0009: real time    0.0012
    CHARGE:  cpu time    1.6347: real time    1.6348
    --------------------------------------------
      LOOP:  cpu time  512.8166: real time  512.9397

 eigenvalue-minimisations  :     0
 total energy-change (2. order) :-0.2140316E-02  (-0.1908508E-02)
 number of electron     240.0000000 magnetization       1.9999999
 augmentation part       10.8538806 magnetization       1.6244791

 DIPCOR: dipole corrections for dipol
 direction  3 min pos     1,
 dipolmoment           0.000005     -0.000666      0.513087 electrons x Angstroem
 Tr[quadrupol]     -6449.782232

 energy correction for charged system         0.000000 eV
 dipol+quadrupol energy correction            0.007528 eV
 added-field ion interaction          0.000000 eV  (added to PSCEN)


 Free energy of the ion-electron system (eV)
  ---------------------------------------------------
  alpha Z        PSCENC =       100.37759293
  Ewald energy   TEWEN  =     37616.20912763
  -Hartree energ DENC   =    -45622.00132300
  -exchange      EXHF   =       539.37705226
  -V(xc)+E(xc)   XCENC  =       583.29595954
  PAW double counting   =     26443.69106221   -26448.31751752
  entropy T*S    EENTRO =        -0.00000000
  eigenvalues    EBANDS =     -3110.39943138
  atomic energy  EATOM  =      9288.12480467
  ---------------------------------------------------
  free energy    TOTEN  =      -609.64267267 eV

  energy without entropy =     -609.64267267  energy(sigma->0) =     -609.64267267
  exchange ACFDT corr.  =        -0.00000000  see jH, gK, PRB 81, 115126


--------------------------------------------------------------------------------------------------------




--------------------------------------- Iteration      1(  18)  ---------------------------------------


    POTLOK:  cpu time    1.3785: real time    1.3786
    SETDIJ:  cpu time    2.1109: real time    2.1111
    TRIAL :  cpu time  507.5350: real time  507.6288
    CORREC:  cpu time    0.0010: real time    0.0012
    CHARGE:  cpu time    1.6459: real time    1.6462
    --------------------------------------------
      LOOP:  cpu time  512.6736: real time  512.7682

 eigenvalue-minimisations  :     0
 total energy-change (2. order) :-0.1840101E-02  (-0.1661993E-02)
 number of electron     240.0000000 magnetization       1.9999999
 augmentation part       10.8543341 magnetization       1.6263959

 DIPCOR: dipole corrections for dipol
 direction  3 min pos     1,
 dipolmoment           0.000005     -0.000666      0.512998 electrons x Angstroem
 Tr[quadrupol]     -6449.782873

 energy correction for charged system         0.000000 eV
 dipol+quadrupol energy correction            0.007525 eV
 added-field ion interaction          0.000000 eV  (added to PSCEN)


 Free energy of the ion-electron system (eV)
  ---------------------------------------------------
  alpha Z        PSCENC =       100.37759033
  Ewald energy   TEWEN  =     37616.20912763
  -Hartree energ DENC   =    -45622.00901570
  -exchange      EXHF   =       539.38773531
  -V(xc)+E(xc)   XCENC  =       583.30150521
  PAW double counting   =     26444.84019085   -26449.47439854
  entropy T*S    EENTRO =        -0.00000000
  eigenvalues    EBANDS =     -3110.40205253
  atomic energy  EATOM  =      9288.12480467
  ---------------------------------------------------
  free energy    TOTEN  =      -609.64451277 eV

[...]
  augment    24.48727    24.46005    25.13176    -0.00015    -2.44244    -0.00002
  Kinetic  3535.19681  3592.21825  4030.59030     0.00300    -5.28726     0.00214
  Fock     -284.05406  -283.34849  -259.13918     0.00012     1.31477     0.00020
  -------------------------------------------------------------------------------------
  Total     -46.46430   -41.02741    -0.78930     0.00228    -0.50016     0.00027
  in kB     -23.43300   -20.69105    -0.39806     0.00115    -0.25224     0.00014
  external pressure =      -14.84 kB  Pullay stress =        0.00 kB


 VOLUME and BASIS-vectors are now :
 -----------------------------------------------------------------------------
  energy-cutoff  :      500.00
  volume of cell :     3176.89
      direct lattice vectors                 reciprocal lattice vectors
    12.750656791 -0.000114994 -0.000035611     0.078427333 -0.000000524 -0.000000748
     0.000083625 12.512278239 -0.005562033     0.000000721  0.079921543  0.000103775
     0.000189657 -0.025856058 19.912849565     0.000000140  0.000022324  0.050218859

  length of vectors
    12.750656791 12.512279476 19.912866353     0.078427333  0.079921610  0.050218864


 FORCES acting on ions:
    Electron-Ion                     Ewald-Force                    Non-Local-Force
 -----------------------------------------------------------------------------------------------
   0.833E+00 -.642E+00 -.138E+02   -.103E+01 0.113E+01 0.138E+02   0.774E-01 -.522E+00 -.450E-01
   -.330E+01 -.258E+01 -.108E+02   0.325E+01 0.286E+01 0.108E+02   0.160E-03 -.228E+00 -.301E-01
   0.823E+01 -.140E+01 -.102E+02   -.822E+01 0.148E+01 0.102E+02   0.100E+00 -.118E+00 0.948E-02
   0.947E+01 -.320E+01 -.178E+02   -.935E+01 0.378E+01 0.177E+02   -.532E-01 -.464E+00 0.484E-01
   0.182E+01 -.833E+01 -.155E+02   -.132E+01 0.901E+01 0.155E+02   -.435E+00 -.718E+00 -.157E-01
   -.278E+01 -.512E+01 -.111E+02   0.266E+01 0.519E+01 0.111E+02   -.413E-02 -.116E+00 -.357E-01
   0.402E+01 -.426E+01 -.114E+02   -.374E+01 0.443E+01 0.114E+02   -.283E+00 -.166E+00 0.175E-01
   0.595E+01 -.102E+02 -.143E+02   -.412E+01 0.103E+02 0.140E+02   -.157E+01 -.109E+00 0.200E+00
   -.181E+01 0.179E+01 -.983E+01   0.233E+01 -.222E+01 0.997E+01   -.652E+00 0.568E+00 -.175E+00
   0.160E+00 0.165E+01 -.481E+01   -.262E+00 -.164E+01 0.475E+01   0.118E+00 0.327E-01 0.597E-01
   0.510E+01 -.121E+01 -.947E+01   -.468E+01 0.140E+01 0.954E+01   -.295E+00 -.137E+00 -.804E-01
   0.312E+02 -.193E+01 0.597E+01   -.341E+02 0.146E+01 -.552E+01   0.280E+01 0.418E+00 -.440E+00
   -.926E+00 -.429E+00 0.739E+01   0.884E+00 -.539E+00 -.757E+01   0.626E-01 0.789E+00 0.187E+00
   -.956E+00 0.426E+01 -.598E+01   0.827E+00 -.458E+01 0.600E+01   0.455E-01 0.298E+00 -.263E-01
   -.466E+00 0.279E+01 -.372E+01   0.453E+00 -.311E+01 0.378E+01   -.164E-01 0.221E+00 -.722E-01
   0.235E+02 0.177E+02 0.619E+01   -.270E+02 -.184E+02 -.592E+01   0.372E+01 0.662E+00 -.296E+00
   0.657E+01 0.747E+01 -.858E+01   -.708E+01 -.733E+01 0.867E+01   0.455E+00 -.488E-01 -.964E-01
   -.209E+01 0.196E+01 -.907E+01   0.207E+01 -.200E+01 0.910E+01   0.127E-01 -.177E-01 -.250E-01
   0.402E+01 0.369E+01 -.841E+01   -.438E+01 -.381E+01 0.846E+01   0.378E+00 0.174E+00 -.483E-01
   0.819E+01 -.154E+01 -.114E+02   -.852E+01 0.184E+01 0.113E+02   0.304E+00 -.337E+00 0.386E-01
   -.237E+01 -.125E+01 -.220E+02   0.220E+01 0.190E+01 0.220E+02   0.107E+00 -.642E+00 -.372E-01
   0.439E+01 0.135E+01 -.254E+02   -.427E+01 -.576E+00 0.255E+02   -.186E+00 -.695E+00 -.117E+00
   0.237E+01 -.125E+01 -.219E+02   -.219E+01 0.190E+01 0.220E+02   -.106E+00 -.642E+00 -.375E-01
   -.439E+01 0.135E+01 -.254E+02   0.427E+01 -.583E+00 0.255E+02   0.186E+00 -.695E+00 -.117E+00
   -.260E+01 -.238E+01 -.303E+02   0.295E+01 0.417E+01 0.305E+02   -.190E+00 -.161E+01 -.250E+00
   0.260E+01 -.238E+01 -.303E+02   -.295E+01 0.416E+01 0.305E+02   0.190E+00 -.161E+01 -.250E+00
   0.166E+02 -.381E+01 -.142E+01   -.177E+02 0.682E+01 0.200E+01   0.125E+01 -.291E+01 -.573E+00
   0.367E+01 -.252E+01 -.152E+02   -.352E+01 0.325E+01 0.154E+02   -.953E-01 -.739E+00 -.169E+00
   -.166E+02 -.381E+01 -.140E+01   0.177E+02 0.681E+01 0.198E+01   -.125E+01 -.291E+01 -.573E+00
   -.367E+01 -.251E+01 -.152E+02   0.352E+01 0.324E+01 0.154E+02   0.955E-01 -.739E+00 -.169E+00
   -.823E+01 -.140E+01 -.102E+02   0.822E+01 0.148E+01 0.102E+02   -.100E+00 -.118E+00 0.956E-02
   -.947E+01 -.320E+01 -.178E+02   0.935E+01 0.378E+01 0.178E+02   0.532E-01 -.464E+00 0.485E-01
   -.830E+00 -.642E+00 -.138E+02   0.103E+01 0.113E+01 0.138E+02   -.774E-01 -.522E+00 -.449E-01
   0.330E+01 -.258E+01 -.108E+02   -.325E+01 0.286E+01 0.108E+02   -.314E-03 -.228E+00 -.301E-01
   -.402E+01 -.426E+01 -.115E+02   0.374E+01 0.443E+01 0.115E+02   0.283E+00 -.166E+00 0.172E-01
   -.595E+01 -.102E+02 -.143E+02   0.412E+01 0.103E+02 0.140E+02   0.157E+01 -.109E+00 0.200E+00
   -.182E+01 -.833E+01 -.155E+02   0.132E+01 0.901E+01 0.155E+02   0.435E+00 -.719E+00 -.159E-01
   0.278E+01 -.512E+01 -.111E+02   -.266E+01 0.519E+01 0.112E+02   0.404E-02 -.116E+00 -.360E-01
   -.510E+01 -.121E+01 -.948E+01   0.468E+01 0.140E+01 0.955E+01   0.295E+00 -.137E+00 -.804E-01
   -.312E+02 -.193E+01 0.597E+01   0.341E+02 0.146E+01 -.552E+01   -.280E+01 0.418E+00 -.440E+00
   0.181E+01 0.178E+01 -.984E+01   -.233E+01 -.222E+01 0.998E+01   0.652E+00 0.568E+00 -.175E+00
   -.159E+00 0.164E+01 -.481E+01   0.261E+00 -.163E+01 0.475E+01   -.118E+00 0.322E-01 0.597E-01
   0.465E+00 0.279E+01 -.371E+01   -.452E+00 -.312E+01 0.377E+01   0.164E-01 0.221E+00 -.721E-01
   -.234E+02 0.177E+02 0.616E+01   0.270E+02 -.184E+02 -.589E+01   -.372E+01 0.662E+00 -.296E+00
   0.925E+00 -.431E+00 0.739E+01   -.884E+00 -.537E+00 -.757E+01   -.624E-01 0.789E+00 0.188E+00
   0.953E+00 0.425E+01 -.597E+01   -.824E+00 -.457E+01 0.600E+01   -.454E-01 0.298E+00 -.261E-01
   -.402E+01 0.370E+01 -.841E+01   0.438E+01 -.382E+01 0.846E+01   -.378E+00 0.174E+00 -.481E-01
   -.819E+01 -.154E+01 -.114E+02   0.852E+01 0.184E+01 0.113E+02   -.304E+00 -.338E+00 0.385E-01
   -.657E+01 0.747E+01 -.861E+01   0.708E+01 -.732E+01 0.870E+01   -.455E+00 -.490E-01 -.964E-01
   0.208E+01 0.195E+01 -.906E+01   -.207E+01 -.200E+01 0.909E+01   -.125E-01 -.176E-01 -.248E-01
   0.157E+01 -.346E+02 -.280E+02   0.242E+01 0.407E+02 0.280E+02   -.424E+01 -.653E+01 -.579E-01
   -.157E+01 -.346E+02 -.280E+02   -.242E+01 0.407E+02 0.280E+02   0.424E+01 -.653E+01 -.576E-01
   -.289E+02 -.363E+02 0.882E+02   0.429E+02 0.386E+02 -.918E+02   -.131E+02 -.174E+01 0.313E+01
   0.289E+02 -.363E+02 0.882E+02   -.429E+02 0.386E+02 -.918E+02   0.131E+02 -.174E+01 0.313E+01
   -.439E+02 0.846E+02 0.366E+02   0.550E+02 -.104E+03 -.386E+02   -.105E+02 0.185E+02 0.184E+01
   0.439E+02 0.846E+02 0.365E+02   -.550E+02 -.104E+03 -.385E+02   0.105E+02 0.185E+02 0.184E+01
   0.841E-02 0.125E+02 0.855E+02   -.892E-02 -.187E+02 -.826E+02   0.233E-03 0.518E+01 -.221E+01
   -.165E-02 -.370E+02 0.223E+03   0.125E-02 0.388E+02 -.218E+03   0.151E-03 0.381E-01 -.555E+01
 -----------------------------------------------------------------------------------------------
   0.307E-03 -.140E+02 0.101E+01   -.158E-12 -.995E-13 -.341E-12   -.436E-03 0.129E+02 -.188E+01
 
 
 POSITION                                       TOTAL-FORCE (eV/Angst)
 -----------------------------------------------------------------------------------
      2.81256     12.49685     10.04069        -0.122426     -0.056574     -0.007418
      0.70052      1.24578     10.04650        -0.065363      0.041421     -0.003632
      1.39699     12.49682     10.03498         0.126196     -0.040542      0.002912
      3.52154      1.22903     10.06474         0.072661      0.086641     -0.008000
      2.84248      2.49039     10.04588         0.035849     -0.077843      0.011918
      0.70358      3.74904     10.02270        -0.128386     -0.052624      0.000527
      1.41410      2.49644     10.04080        -0.018579      0.000633     -0.001209
      3.59322      3.72969     10.00446         0.190619     -0.045877     -0.019658
      2.85938      4.98671      9.95361        -0.170755      0.169638     -0.040337
      0.71075      6.25588      9.96567         0.021530      0.044452      0.001350
      1.43368      5.00124      9.98715         0.115499      0.044841     -0.009585
      3.58323      6.23930      9.82496         0.101568     -0.029888     -0.016138
      2.87969      7.50630      9.87243         0.021148     -0.145284      0.018328
      0.70537      8.73919      9.97156        -0.082678     -0.007605     -0.000191
      1.43911      7.50107      9.94355        -0.032457     -0.089952     -0.012459
      3.60014      8.77137      9.87050         0.380288      0.051312     -0.036110
      2.84131     10.00009      9.96776        -0.032356      0.101597     -0.010638
      0.70186     11.23995     10.01779        -0.009336     -0.061754      0.000808
      1.41269      9.98983      9.99052         0.039124      0.063015     -0.003614
      3.52359     11.25408     10.00624        -0.012581     -0.057405     -0.014552
      7.07332     12.48542     10.05689        -0.061193     -0.022934      0.000883
      4.93789      1.20116     10.08262        -0.071653      0.048220     -0.000888
      5.65761     12.48542     10.05684         0.061518     -0.022556      0.000806
      7.79290      1.20116     10.08266         0.071523      0.048198     -0.000780
      7.08353      2.41776     10.07407         0.147143      0.103700     -0.051377
      5.64730      2.41775     10.07407        -0.147392      0.103977     -0.051596
      7.08734     10.03332      9.89963         0.146673     -0.070902     -0.024144
      4.94850     11.25975     10.00139         0.052035     -0.049323     -0.014615
      5.64353     10.03332      9.89954        -0.146451     -0.070801     -0.023988
      7.78239     11.25974     10.00153        -0.051776     -0.048927     -0.015072
     11.33393     12.49676     10.03501        -0.126137     -0.040514      0.003051
      9.20924      1.22904     10.06482        -0.072464      0.085810     -0.007850
      9.91837     12.49684     10.04077         0.122230     -0.056883     -0.007325
     12.03027      1.24570     10.04652         0.065162      0.041227     -0.003690
     11.31671      2.49638     10.04089         0.018754      0.000574     -0.001566
      9.13762      3.72969     10.00453        -0.190487     -0.046000     -0.019663
      9.88833      2.49039     10.04599        -0.035743     -0.078397      0.011653
     12.02726      3.74896     10.02273         0.128315     -0.052802      0.000228
     11.29719      5.00118      9.98719        -0.115865      0.044842     -0.009555
      9.14764      6.23929      9.82500        -0.101425     -0.030075     -0.016010
      9.87147      4.98669      9.95367         0.170846      0.169888     -0.040386
     12.02013      6.25581      9.96565        -0.021956      0.043794      0.001401
     11.29176      7.50102      9.94353         0.032554     -0.090464     -0.012242
      9.13073      8.77137      9.87064        -0.380437      0.050981     -0.036298
      9.85118      7.50630      9.87247        -0.021010     -0.145878      0.018488
     12.02550      8.73911      9.97153         0.082984     -0.007996     -0.000011
     11.31819      9.98976      9.99053        -0.038966      0.063182     -0.003476
      9.20732     11.25408     10.00638         0.012409     -0.057656     -0.014638
      9.88958     10.00007      9.96787         0.032181      0.101548     -0.010704
     12.02904     11.23986     10.01776         0.009556     -0.061637      0.001037
      5.01338      3.67990     10.01125        -0.462524     -0.683118     -0.082897
      7.71746      3.67990     10.01127         0.462420     -0.683417     -0.082755
      4.90851      6.24235      9.61463        -0.207992      0.383960     -0.206546
      7.82236      6.24237      9.61465         0.208135      0.383540     -0.206547
      4.97992      8.83027      9.78197        -0.302138      0.532800      0.000785
      7.75094      8.83026      9.78215         0.301976      0.532590      0.000208
      6.36546      5.05012      9.71225        -0.000131     -0.579395      0.580980
      6.36545      7.35929      9.14012        -0.000240      0.222642      0.472798
 -----------------------------------------------------------------------------------
    total drift:                               -0.000122     -0.014079     -0.047672


--------------------------------------------------------------------------------------------------------



  FREE ENERGIE OF THE ION-ELECTRON SYSTEM (eV)
  ---------------------------------------------------
  free  energy   TOTEN  =      -609.69428707 eV

  energy  without entropy=     -609.69428707  energy(sigma->0) =     -609.69428707
 


--------------------------------------------------------------------------------------------------------


    POTLOK:  cpu time    3.4396: real time    3.4399


--------------------------------------------------------------------------------------------------------


 stress matrix after NEB project (eV)
    -46.46430      0.00228      0.00027
      0.00228    -41.02741     -0.50306
      0.00027     -0.50016     -0.78930
  FORCES: max atom, RMS     0.829301    0.279725
  FORCE total and by dimension    2.130320    0.683417
  Stress total and by dimension   61.994406   46.464303
 writing wavefunctions
     LOOP+:  cpu time**********: real time**********
    4ORBIT:  cpu time    0.0000: real time    0.0000
 


 total charge     
 
# of ion       s       p       d       tot
------------------------------------------
    1        0.867   1.774   0.000   2.641
    2        0.864   1.758   0.000   2.622
    3        0.865   1.762   0.000   2.628
    4        0.867   1.772   0.000   2.639
    5        0.863   1.750   0.000   2.614
    6        0.861   1.747   0.000   2.609
    7        0.863   1.750   0.000   2.613
    8        0.860   1.732   0.000   2.592
    9        0.861   1.741   0.000   2.603
   10        0.857   1.740   0.000   2.597
   11        0.861   1.737   0.000   2.598
   12        0.861   1.717   0.000   2.578
   13        0.854   1.745   0.000   2.599
   14        0.862   1.753   0.000   2.615
   15        0.859   1.740   0.000   2.598
   16        0.853   1.696   0.000   2.549
   17        0.864   1.762   0.000   2.626
   18        0.864   1.760   0.000   2.624
   19        0.862   1.756   0.000   2.618
   20        0.868   1.763   0.000   2.630
   21        0.870   1.790   0.000   2.661
   22        0.874   1.794   0.000   2.669
   23        0.870   1.790   0.000   2.661
   24        0.874   1.794   0.000   2.669
   25        0.883   1.774   0.000   2.657
   26        0.883   1.774   0.000   2.657
   27        0.863   1.750   0.000   2.614
   28        0.872   1.794   0.000   2.666
   29        0.863   1.750   0.000   2.614
   30        0.872   1.794   0.000   2.666
   31        0.865   1.762   0.000   2.628
   32        0.867   1.772   0.000   2.639
   33        0.867   1.774   0.000   2.641
   34        0.864   1.758   0.000   2.622
   35        0.863   1.750   0.000   2.613
   36        0.860   1.732   0.000   2.592
   37        0.863   1.750   0.000   2.614
   38        0.861   1.747   0.000   2.609
   39        0.861   1.737   0.000   2.598
   40        0.861   1.717   0.000   2.578
   41        0.861   1.741   0.000   2.602
   42        0.857   1.740   0.000   2.597
   43        0.859   1.740   0.000   2.598
   44        0.853   1.696   0.000   2.549
   45        0.854   1.745   0.000   2.599
   46        0.862   1.753   0.000   2.615
   47        0.862   1.756   0.000   2.618
   48        0.868   1.763   0.000   2.630
   49        0.864   1.762   0.000   2.626
   50        0.864   1.760   0.000   2.624
   51        0.875   1.673   0.000   2.548
   52        0.875   1.673   0.000   2.548
   53        1.252   2.609   0.000   3.860
   54        1.252   2.609   0.000   3.860
   55        1.236   2.657   0.000   3.892
   56        1.236   2.656   0.000   3.892
   57        0.529   0.767   6.166   7.461
   58        0.488   0.823   2.828   4.140
--------------------------------------------------
tot         50.943 103.181   8.994 163.119
 


 magnetization (x)
 
# of ion       s       p       d       tot
------------------------------------------
    1       -0.000  -0.000   0.000  -0.000
    2        0.000   0.000   0.000   0.000
    3       -0.000  -0.001   0.000  -0.001
    4        0.000   0.007   0.000   0.007
    5       -0.001  -0.003   0.000  -0.004
    6        0.000   0.000   0.000   0.000
    7       -0.000  -0.003   0.000  -0.003
    8        0.000   0.006   0.000   0.006
    9        0.001   0.007   0.000   0.008
   10        0.000   0.004   0.000   0.005
   11       -0.000  -0.001   0.000  -0.001
   12       -0.002  -0.019   0.000  -0.021
   13        0.001   0.010   0.000   0.011
   14        0.000   0.001   0.000   0.001
   15       -0.000  -0.001   0.000  -0.001
   16       -0.001  -0.013   0.000  -0.014
   17        0.000   0.003   0.000   0.003
   18        0.000   0.000   0.000   0.000
   19       -0.000   0.000   0.000   0.000
   20       -0.000  -0.004   0.000  -0.004
   21        0.000   0.001   0.000   0.001
   22       -0.001  -0.005   0.000  -0.006
   23        0.000   0.001   0.000   0.001
   24       -0.001  -0.005   0.000  -0.006
   25        0.001   0.014   0.000   0.015
   26        0.001   0.014   0.000   0.015
   27       -0.001  -0.007   0.000  -0.007
   28        0.000   0.003   0.000   0.003
   29       -0.001  -0.007   0.000  -0.007
   30        0.000   0.003   0.000   0.003
   31       -0.000  -0.001   0.000  -0.001
   32        0.000   0.007   0.000   0.007
   33       -0.000  -0.000   0.000  -0.000
   34        0.000   0.000   0.000   0.000
   35       -0.000  -0.003   0.000  -0.003
   36        0.000   0.006   0.000   0.006
   37       -0.001  -0.003   0.000  -0.004
   38        0.000   0.000   0.000   0.000
   39       -0.000  -0.001   0.000  -0.001
   40       -0.002  -0.019   0.000  -0.021
   41        0.001   0.007   0.000   0.008
   42        0.000   0.004   0.000   0.005
   43       -0.000  -0.001   0.000  -0.001
   44       -0.001  -0.013   0.000  -0.014
   45        0.001   0.010   0.000   0.011
   46        0.000   0.001   0.000   0.001
   47       -0.000   0.000   0.000   0.000
   48       -0.000  -0.004   0.000  -0.004
   49        0.000   0.003   0.000   0.003
   50        0.000   0.000   0.000   0.000
   51       -0.013  -0.053   0.000  -0.066
   52       -0.013  -0.053   0.000  -0.066
   53        0.001   0.023   0.000   0.024
   54        0.001   0.023   0.000   0.024
   55        0.002   0.014   0.000   0.016
   56        0.002   0.014   0.000   0.016
   57        0.044   0.025   2.616   2.685
   58       -0.015  -0.026  -0.632  -0.672
--------------------------------------------------
tot          0.005  -0.031   1.984   1.957
 

 total amount of memory used by VASP MPI-rank0   191670. kBytes
=======================================================================

   base      :      30000. kBytes
   nonl-proj :       5306. kBytes
   fftplans  :      14250. kBytes
   grid      :      36827. kBytes
   one-center:         62. kBytes
   HF        :         23. kBytes
   nonlr-proj:      29008. kBytes
   wavefun   :      76194. kBytes
 
  
  
 General timing and accounting informations for this job:
 ========================================================
  
                  Total CPU time used (sec):   129471.000
                            User time (sec):   129359.307
                          System time (sec):      111.692
                         Elapsed time (sec):   129517.027
  
                   Maximum memory used (kb):      443580.
                   Average memory used (kb):           0.
  
                          Minor page faults:       979670
                          Major page faults:            3
                 Voluntary context switches:         1971
