 vasp.5.4.4.18Apr17-6-g9f103f2a35 (build Feb 25 2019 10:51:38) complex          
  
 executed on             LinuxIFC date 2021.06.19  14:48:03
 running on   32 total cores
 distrk:  each k-point on   32 cores,    1 groups
 distr:  one band on NCORES_PER_BAND=  32 cores,    1 groups


--------------------------------------------------------------------------------------------------------


 INCAR:
 POTCAR:    PAW_PBE C 08Apr2002                   
 POTCAR:    PAW_PBE N 08Apr2002                   
 POTCAR:    PAW_PBE Co 02Aug2007                  
 POTCAR:    PAW_PBE Fe 06Sep2000                  

 ----------------------------------------------------------------------------- 
|                                                                             |
|           W    W    AA    RRRRR   N    N  II  N    N   GGGG   !!!           |
|           W    W   A  A   R    R  NN   N  II  NN   N  G    G  !!!           |
|           W    W  A    A  R    R  N N  N  II  N N  N  G       !!!           |
|           W WW W  AAAAAA  RRRRR   N  N N  II  N  N N  G  GGG   !            |
|           WW  WW  A    A  R   R   N   NN  II  N   NN  G    G                |
|           W    W  A    A  R    R  N    N  II  N    N   GGGG   !!!           |
|                                                                             |
|      For optimal performance we recommend to set                            |
|        NCORE= 4 - approx SQRT( number of cores)                             |
|      NCORE specifies how many cores store one orbital (NPAR=cpu/NCORE).     |
|      This setting can  greatly improve the performance of VASP for DFT.     |
|      The default,   NCORE=1            might be grossly inefficient         |
|      on modern multi-core architectures or massively parallel machines.     |
|      Do your own testing !!!!                                               |
|      Unfortunately you need to use the default for GW and RPA calculations. |
|      (for HF NCORE is supported but not extensively tested yet)             |
|                                                                             |
 ----------------------------------------------------------------------------- 

 POTCAR:    PAW_PBE C 08Apr2002                   
   VRHFIN =C: s2p2                                                              
   LEXCH  = PE                                                                  
   EATOM  =   147.1560 eV,   10.8157 Ry                                         
                                                                                
   TITEL  = PAW_PBE C 08Apr2002                                                 
   LULTRA =        F    use ultrasoft PP ?                                      
   IUNSCR =        1    unscreen: 0-lin 1-nonlin 2-no                           
   RPACOR =    1.200    partial core radius                                     
   POMASS =   12.011; ZVAL   =    4.000    mass and valenz                      
   RCORE  =    1.500    outmost cutoff radius                                   
   RWIGS  =    1.630; RWIGS  =    0.863    wigner-seitz radius (au A)           
   ENMAX  =  400.000; ENMIN  =  300.000 eV                                      
   ICORE  =        2    local potential                                         
   LCOR   =        T    correct aug charges                                     
   LPAW   =        T    paw PP                                                  
   EAUG   =  644.873                                                            
   DEXC   =    0.000                                                            
   RMAX   =    1.529    core radius for proj-oper                               
   RAUG   =    1.300    factor for augmentation sphere                          
   RDEP   =    1.501    radius for radial grids                                 
   RDEPT  =    1.300    core radius for aug-charge                              
                                                                                
   Atomic configuration                                                         
    4 entries                                                                   
     n  l   j            E        occ.                                          
     1  0  0.50      -273.3789   2.0000                                         
     2  0  0.50       -13.7508   2.0000                                         
     2  1  0.50        -5.2854   2.0000                                         
     3  2  1.50        -5.4423   0.0000                                         
   Description                                                                  
     l       E           TYP  RCUT    TYP  RCUT                                 
     0    -13.7508458     23  1.200                                             
     0     -8.2022199     23  1.200                                             
     1     -5.2854383     23  1.500                                             
     1     34.0145650     23  1.500                                             
     2     -5.4423304      7  1.500                                             
  local pseudopotential read in
  partial core-charges read in
  partial kinetic energy density read in
  atomic valenz-charges read in
  non local Contribution for L=           0  read in
    real space projection operators read in
  non local Contribution for L=           0  read in
    real space projection operators read in
  non local Contribution for L=           1  read in
    real space projection operators read in
  non local Contribution for L=           1  read in
    real space projection operators read in
    PAW grid and wavefunctions read in
 
   number of l-projection  operators is LMAX  =           4
   number of lm-projection operators is LMMAX =           8
 
 POTCAR:    PAW_PBE N 08Apr2002                   
   VRHFIN =N: s2p3                                                              
   LEXCH  = PE                                                                  
   EATOM  =   264.5486 eV,   19.4438 Ry                                         
                                                                                
   TITEL  = PAW_PBE N 08Apr2002                                                 
   LULTRA =        F    use ultrasoft PP ?                                      
   IUNSCR =        1    unscreen: 0-lin 1-nonlin 2-no                           
   RPACOR =    1.200    partial core radius                                     
   POMASS =   14.001; ZVAL   =    5.000    mass and valenz                      
   RCORE  =    1.500    outmost cutoff radius                                   
   RWIGS  =    1.400; RWIGS  =    0.741    wigner-seitz radius (au A)           
   ENMAX  =  400.000; ENMIN  =  300.000 eV                                      
   ICORE  =        2    local potential                                         
   LCOR   =        T    correct aug charges                                     
   LPAW   =        T    paw PP                                                  
   EAUG   =  627.112                                                            
   DEXC   =    0.000                                                            
   RMAX   =    1.529    core radius for proj-oper                               
   RAUG   =    1.300    factor for augmentation sphere                          
   RDEP   =    1.514    radius for radial grids                                 
   RDEPT  =    1.338    core radius for aug-charge                              
                                                                                
   Atomic configuration                                                         
    4 entries                                                                   
     n  l   j            E        occ.                                          
     1  0  0.50      -384.7179   2.0000                                         
     2  0  0.50       -18.5828   2.0000                                         
     2  1  0.50        -7.0898   3.0000                                         
     3  2  1.50        -6.8029   0.0000                                         
   Description                                                                  
     l       E           TYP  RCUT    TYP  RCUT                                 
     0    -18.5828119     23  1.200                                             
     0    -13.5018863     23  1.200                                             
     1     -7.0897853     23  1.500                                             
     1      9.5240782     23  1.500                                             
     2     -6.8029130      7  1.500                                             
  local pseudopotential read in
  partial core-charges read in
  partial kinetic energy density read in
  atomic valenz-charges read in
  non local Contribution for L=           0  read in
    real space projection operators read in
  non local Contribution for L=           0  read in
    real space projection operators read in
  non local Contribution for L=           1  read in
    real space projection operators read in
  non local Contribution for L=           1  read in
    real space projection operators read in
    PAW grid and wavefunctions read in
 
   number of l-projection  operators is LMAX  =           4
   number of lm-projection operators is LMMAX =           8
 
 POTCAR:    PAW_PBE Co 02Aug2007                  
   VRHFIN =Co: d8 s1                                                            
   LEXCH  = PE                                                                  
   EATOM  =   813.3670 eV,   59.7808 Ry                                         
                                                                                
   TITEL  = PAW_PBE Co 02Aug2007                                                
   LULTRA =        F    use ultrasoft PP ?                                      
   IUNSCR =        1    unscreen: 0-lin 1-nonlin 2-no                           
   RPACOR =    2.000    partial core radius                                     
   POMASS =   58.933; ZVAL   =    9.000    mass and valenz                      
   RCORE  =    2.300    outmost cutoff radius                                   
   RWIGS  =    2.460; RWIGS  =    1.302    wigner-seitz radius (au A)           
   ENMAX  =  267.968; ENMIN  =  200.976 eV                                      
   RCLOC  =    1.203    cutoff for local pot                                    
   LCOR   =        T    correct aug charges                                     
   LPAW   =        T    paw PP                                                  
   EAUG   =  477.818                                                            
   DEXC   =    0.000                                                            
   RMAX   =    2.360    core radius for proj-oper                               
   RAUG   =    1.300    factor for augmentation sphere                          
   RDEP   =    2.393    radius for radial grids                                 
   RDEPT  =    1.864    core radius for aug-charge                              
                                                                                
   Atomic configuration                                                         
    9 entries                                                                   
     n  l   j            E        occ.                                          
     1  0  0.50     -7587.6674   2.0000                                         
     2  0  0.50      -893.6084   2.0000                                         
     2  1  1.50      -764.5805   6.0000                                         
     3  0  0.50       -97.5973   2.0000                                         
     3  1  1.50       -60.9648   6.0000                                         
     3  2  2.50        -4.2382   8.0000                                         
     4  0  0.50        -4.3746   1.0000                                         
     4  1  1.50        -4.0817   0.0000                                         
     4  3  2.50        -1.3606   0.0000                                         
   Description                                                                  
     l       E           TYP  RCUT    TYP  RCUT                                 
     2     -4.2382362     23  2.300                                             
     2     -5.5988188     23  2.300                                             
     0     -4.3745797     23  2.300                                             
     0      5.7660125     23  2.300                                             
     1     -2.7211652     23  2.300                                             
     1     16.9860234     23  2.300                                             
  local pseudopotential read in
  partial core-charges read in
  partial kinetic energy density read in
  atomic valenz-charges read in
  non local Contribution for L=           2  read in
    real space projection operators read in
  non local Contribution for L=           2  read in
    real space projection operators read in
  non local Contribution for L=           0  read in
    real space projection operators read in
  non local Contribution for L=           0  read in
    real space projection operators read in
  non local Contribution for L=           1  read in
    real space projection operators read in
  non local Contribution for L=           1  read in
    real space projection operators read in
    PAW grid and wavefunctions read in
 
   number of l-projection  operators is LMAX  =           6
   number of lm-projection operators is LMMAX =          18
 
 POTCAR:    PAW_PBE Fe 06Sep2000                  
   VRHFIN =Fe:  d7 s1                                                           
   LEXCH  = PE                                                                  
   EATOM  =   594.3153 eV,   43.6809 Ry                                         
                                                                                
   TITEL  = PAW_PBE Fe 06Sep2000                                                
   LULTRA =        F    use ultrasoft PP ?                                      
   IUNSCR =        1    unscreen: 0-lin 1-nonlin 2-no                           
   RPACOR =    2.000    partial core radius                                     
   POMASS =   55.847; ZVAL   =    8.000    mass and valenz                      
   RCORE  =    2.300    outmost cutoff radius                                   
   RWIGS  =    2.460; RWIGS  =    1.302    wigner-seitz radius (au A)           
   ENMAX  =  267.882; ENMIN  =  200.911 eV                                      
   RCLOC  =    1.701    cutoff for local pot                                    
   LCOR   =        T    correct aug charges                                     
   LPAW   =        T    paw PP                                                  
   EAUG   =  511.368                                                            
   DEXC   =    0.000                                                            
   RMAX   =    2.356    core radius for proj-oper                               
   RAUG   =    1.300    factor for augmentation sphere                          
   RDEP   =    2.442    radius for radial grids                                 
   RDEPT  =    1.890    core radius for aug-charge                              
                                                                                
   Atomic configuration                                                         
    9 entries                                                                   
     n  l   j            E        occ.                                          
     1  0  0.50     -6993.8440   2.0000                                         
     2  0  0.50      -814.6047   2.0000                                         
     2  1  1.50      -693.3689   6.0000                                         
     3  0  0.50       -89.4732   2.0000                                         
     3  1  1.50       -55.6373   6.0000                                         
     3  2  2.50        -3.8151   7.0000                                         
     4  0  0.50        -4.2551   1.0000                                         
     4  1  1.50        -3.4015   0.0000                                         
     4  3  2.50        -1.3606   0.0000                                         
   Description                                                                  
     l       E           TYP  RCUT    TYP  RCUT                                 
     2     -3.8151135     23  2.300                                             
     2     -5.1756961     23  2.300                                             
     0     -4.2550963     23  2.300                                             
     0      7.2035603     23  2.300                                             
     1     -2.7211652     23  2.300                                             
     1     18.4316424     23  2.300                                             
  local pseudopotential read in
  partial core-charges read in
  partial kinetic energy density read in
  atomic valenz-charges read in
  non local Contribution for L=           2  read in
    real space projection operators read in
  non local Contribution for L=           2  read in
    real space projection operators read in
  non local Contribution for L=           0  read in
    real space projection operators read in
  non local Contribution for L=           0  read in
    real space projection operators read in
  non local Contribution for L=           1  read in
    real space projection operators read in
  non local Contribution for L=           1  read in
    real space projection operators read in
    PAW grid and wavefunctions read in
 
   number of l-projection  operators is LMAX  =           6
   number of lm-projection operators is LMMAX =          18
 

 ----------------------------------------------------------------------------- 
|                                                                             |
|  ADVICE TO THIS USER RUNNING 'VASP/VAMP'   (HEAR YOUR MASTER'S VOICE ...):  |
|                                                                             |
|      You have a (more or less) 'large supercell' and for larger cells       |
|      it might be more efficient to use real space projection opertators     |
|      So try LREAL= Auto  in the INCAR   file.                               |
|      Mind:          For very  accurate calculation you might also keep the  |
|      reciprocal projection scheme          (i.e. LREAL=.FALSE.)             |
|                                                                             |
 ----------------------------------------------------------------------------- 

  PAW_PBE C 08Apr2002                   :
 energy of atom  1       EATOM= -147.1560
 kinetic energy error for atom=    0.0076 (will be added to EATOM!!)
  PAW_PBE N 08Apr2002                   :
 energy of atom  2       EATOM= -264.5486
 kinetic energy error for atom=    0.0138 (will be added to EATOM!!)
  PAW_PBE Co 02Aug2007                  :
 energy of atom  3       EATOM= -813.3670
 kinetic energy error for atom=    0.0028 (will be added to EATOM!!)
  PAW_PBE Fe 06Sep2000                  :
 energy of atom  4       EATOM= -594.3153
 kinetic energy error for atom=    0.0026 (will be added to EATOM!!)
 
 
 POSCAR:  C  N Co Fe                             
  positions in cartesian coordinates
  No initial velocities read in
 exchange correlation table for  LEXCH =        8
   RHO(1)=    0.500       N(1)  =     2000
   RHO(2)=  100.500       N(2)  =     4000

 VTST: version 3.2, (02/03/18)

 CHAIN: initializing optimizer
 
 OPT: Using VASP Conjugate-Gradient optimizer
 CHAIN: Read ICHAIN            0
 
 POSCAR:  C  N Co Fe                             
  positions in cartesian coordinates
  No initial velocities read in
 


--------------------------------------------------------------------------------------------------------


 ion  position               nearest neighbor table
   1  0.221  0.003  0.496-   4 1.43   3 1.43  19 1.43
   2  0.055  0.102  0.493-   3 1.43   7 1.43  38 1.44
   3  0.110  0.002  0.494-   2 1.43  17 1.43   1 1.43
   4  0.277  0.103  0.497-  21 1.43   1 1.43   5 1.44
   5  0.224  0.205  0.499-   7 1.44   4 1.44   8 1.44
   6  0.056  0.301  0.494-  11 1.43   7 1.43  42 1.43
   7  0.112  0.202  0.495-   6 1.43   2 1.43   5 1.44
   8  0.280  0.306  0.505-   5 1.44  25 1.46   9 1.47
   9  0.221  0.407  0.506-  55 1.37  11 1.43   8 1.47
  10  0.054  0.502  0.496-  46 1.42  14 1.43  11 1.43
  11  0.110  0.402  0.498-   6 1.43  10 1.43   9 1.43
  12  0.218  0.602  0.509-  55 1.38  14 1.42  15 1.45
  13  0.053  0.702  0.495-  18 1.42  50 1.43  14 1.43
  14  0.109  0.603  0.499-  12 1.42  10 1.43  13 1.43
  15  0.274  0.704  0.509-  58 1.38  16 1.43  12 1.45
  16  0.219  0.802  0.499-  15 1.43  18 1.43  19 1.43
  17  0.054  0.902  0.493-  18 1.43   3 1.43  54 1.43
  18  0.108  0.802  0.495-  13 1.42  17 1.43  16 1.43
  19  0.275  0.902  0.498-  32 1.43  16 1.43   1 1.43
  20  0.554  0.998  0.497-  23 1.43  22 1.43  34 1.44
  21  0.388  0.101  0.497-  26 1.43   4 1.43  22 1.43
  22  0.443  0.000  0.497-  32 1.43  20 1.43  21 1.43
  23  0.611  0.098  0.496-  36 1.43  20 1.43  24 1.43
  24  0.556  0.199  0.498-  26 1.43  27 1.43  23 1.43
  25  0.393  0.302  0.507-  56 1.37  26 1.44   8 1.46
  26  0.445  0.200  0.499-  21 1.43  24 1.43  25 1.44
  27  0.612  0.299  0.500-  40 1.43  24 1.43  28 1.43
  28  0.557  0.397  0.509-  56 1.37  27 1.43  29 1.45
  29  0.613  0.500  0.509-  57 1.38  44 1.42  28 1.45
  30  0.611  0.695  0.506-  57 1.38  48 1.43  31 1.46
  31  0.552  0.796  0.505-  34 1.45  33 1.46  30 1.46
  32  0.386  0.901  0.499-  22 1.43  19 1.43  33 1.44
  33  0.438  0.800  0.506-  58 1.38  32 1.44  31 1.46
  34  0.608  0.897  0.499-  52 1.44  20 1.44  31 1.45
  35  0.888  0.000  0.492-  54 1.43  38 1.43  37 1.44
  36  0.722  0.099  0.494-  37 1.43  41 1.43  23 1.43
  37  0.776  0.999  0.493-  36 1.43  52 1.43  35 1.44
  38  0.944  0.101  0.492-  39 1.43  35 1.43   2 1.44
  39  0.889  0.200  0.492-  38 1.43  42 1.43  41 1.43
  40  0.723  0.299  0.495-  45 1.42  41 1.43  27 1.43
  41  0.778  0.199  0.493-  40 1.43  36 1.43  39 1.43
  42  0.945  0.300  0.492-  39 1.43  43 1.43   6 1.43
  43  0.889  0.400  0.493-  46 1.43  45 1.43  42 1.43
  44  0.722  0.498  0.499-  29 1.42  49 1.43  45 1.43
  45  0.778  0.399  0.495-  40 1.42  43 1.43  44 1.43
  46  0.944  0.501  0.494-  10 1.42  43 1.43  47 1.43
  47  0.888  0.600  0.494-  49 1.42  50 1.43  46 1.43
  48  0.721  0.699  0.498-  53 1.43  49 1.43  30 1.43
  49  0.777  0.599  0.497-  47 1.42  44 1.43  48 1.43
  50  0.943  0.701  0.493-  47 1.43  13 1.43  51 1.43
  51  0.887  0.800  0.492-  54 1.43  50 1.43  53 1.43
  52  0.720  0.899  0.495-  53 1.43  37 1.43  34 1.44
  53  0.776  0.800  0.494-  48 1.43  52 1.43  51 1.43
  54  0.943  0.901  0.492-  35 1.43  51 1.43  17 1.43
  55  0.269  0.505  0.517-   9 1.37  12 1.38  59 1.98
  56  0.451  0.394  0.518-  25 1.37  28 1.37  59 1.97
  57  0.563  0.597  0.518-  30 1.38  29 1.38  60 1.98
  58  0.380  0.708  0.518-  33 1.38  15 1.38  60 1.99
  59  0.375  0.479  0.587-  56 1.97  55 1.98  60 2.08
  60  0.456  0.625  0.587-  57 1.98  58 1.99  59 2.08
 
  LATTYP: Found a triclinic cell.
 ALAT       =    12.3588000000
 B/A-ratio  =     1.9130407297
 C/A-ratio  =     1.0434265463
 COS(alpha) =     0.0036651471
 COS(beta)  =     0.0090528992
 COS(gamma) =     0.5376807600
  
  Lattice vectors:
  
 A1 = (  -0.1118829703,  12.3582935570,   0.0000000000)
 A2 = (  -0.0866546615,  12.7120623084, -19.9344451882)
 A3 = ( -12.8955000000,   0.0000000000,   0.0000000000)


Analysis of symmetry for initial positions (statically):
=====================================================================
 Subroutine PRICEL returns:
 Original cell was already a primitive cell.
 

 Routine SETGRP: Setting up the symmetry group for a 
 triclinic supercell.


 Subroutine GETGRP returns: Found  1 space group operations
 (whereof  1 operations were pure point group operations)
 out of a pool of  2 trial point group operations.


The static configuration has the point symmetry C_1 .


Analysis of symmetry for dynamics (positions and initial velocities):
=====================================================================
 Subroutine PRICEL returns:
 Original cell was already a primitive cell.
 

 Routine SETGRP: Setting up the symmetry group for a 
 triclinic supercell.


 Subroutine GETGRP returns: Found  1 space group operations
 (whereof  1 operations were pure point group operations)
 out of a pool of  2 trial point group operations.


The dynamic configuration has the point symmetry C_1 .


Analysis of structural, dynamic, and magnetic symmetry:
=====================================================================
 Subroutine PRICEL returns:
 Original cell was already a primitive cell.
 

 Routine SETGRP: Setting up the symmetry group for a 
 triclinic supercell.


 Subroutine GETGRP returns: Found  1 space group operations
 (whereof  1 operations were pure point group operations)
 out of a pool of  2 trial point group operations.


The magnetic configuration has the point symmetry C_1 .


 Subroutine INISYM returns: Found  1 space group operations
 (whereof  1 operations are pure point group operations),
 and found     1 'primitive' translations

 
 
 KPOINTS: KPOINTS created by Atomic Simulation Env

Automatic generation of k-mesh.
Space group operators:
 irot       det(A)        alpha          n_x          n_y          n_z        tau_x        tau_y        tau_z
    1     1.000000     0.000000     1.000000     0.000000     0.000000     0.000000     0.000000     0.000000
 
 Subroutine IBZKPT returns following result:
 ===========================================
 
 Found      2 irreducible k-points:
 
 Following reciprocal coordinates:
            Coordinates               Weight
  0.250000  0.250000 -0.000000      2.000000
 -0.250000  0.250000  0.000000      2.000000
 
 Following cartesian coordinates:
            Coordinates               Weight
  0.019387  0.020405  0.000387      2.000000
 -0.019387  0.020054  0.000331      2.000000
 
 
 Subroutine IBZKPT_HF returns following result:
 ==============================================
 
 Found      4 k-points in 1st BZ
 the following      4 k-points will be used (e.g. in the exchange kernel)
 Following reciprocal coordinates:   # in IRBZ
  0.250000  0.250000 -0.000000    0.25000000   1 t-inv F
 -0.250000  0.250000  0.000000    0.25000000   2 t-inv F
 -0.250000 -0.250000  0.000000    0.25000000   1 t-inv T
  0.250000 -0.250000  0.000000    0.25000000   2 t-inv T


--------------------------------------------------------------------------------------------------------




 Dimension of arrays:
   k-points           NKPTS =      2   k-points in BZ     NKDIM =      4   number of bands    NBANDS=    161
   number of dos      NEDOS =    301   number of ions     NIONS =     60
   non local maximal  LDIM  =      6   non local SUM 2l+1 LMDIM =     18
   total plane-waves  NPLWV = ******
   max r-space proj   IRMAX =      1   max aug-charges    IRDMAX=  16287
   dimension x,y,z NGX =    96 NGY =   90 NGZ =  150
   dimension x,y,z NGXF=   192 NGYF=  180 NGZF=  300
   support grid    NGXF=   192 NGYF=  180 NGZF=  300
   ions per type =              54   4   1   1
   NGX,Y,Z   is equivalent  to a cutoff of  12.38, 12.11, 12.51 a.u.
   NGXF,Y,Z  is equivalent  to a cutoff of  24.75, 24.21, 25.01 a.u.

 SYSTEM =  unknown system                          
 POSCAR =   C  N Co Fe                             

 Startparameter for this run:
   NWRITE =      2    write-flag & timer
   PREC   = accura    normal or accurate (medium, high low for compatibility)
   ISTART =      1    job   : 0-new  1-cont  2-samecut
   ICHARG =      0    charge: 1-file 2-atom 10-const
   ISPIN  =      2    spin polarized calculation?
   LNONCOLLINEAR =      F non collinear calculations
   LSORBIT =      F    spin-orbit coupling
   INIWAV =      1    electr: 0-lowe 1-rand  2-diag
   LASPH  =      T    aspherical Exc in radial PAW
   METAGGA=      F    non-selfconsistent MetaGGA calc.

 Electronic Relaxation 1
   ENCUT  =  500.0 eV  36.75 Ry    6.06 a.u.  23.51 22.53 36.35*2*pi/ulx,y,z
   ENINI  =  500.0     initial cutoff
   ENAUG  =  644.9 eV  augmentation charge cutoff
   NELM   =    250;   NELMIN=  2; NELMDL=  0     # of ELM steps 
   EDIFF  = 0.1E-03   stopping-criterion for ELM
   LREAL  =      F    real-space projection
   NLSPLINE    = F    spline interpolate recip. space projectors
   LCOMPAT=      F    compatible to vasp.4.4
   GGA_COMPAT  = T    GGA compatible to vasp.4.4-vasp.4.6
   LMAXPAW     = -100 max onsite density
   LMAXMIX     =    2 max onsite mixed and CHGCAR
   VOSKOWN=      0    Vosko Wilk Nusair interpolation
   ROPT   =    0.00000   0.00000   0.00000   0.00000
 Ionic relaxation
   EDIFFG = -.3E-01   stopping-criterion for IOM
   NSW    =      0    number of steps for IOM
   NBLOCK =      1;   KBLOCK =      1    inner block; outer block 
   IBRION =     -1    ionic relax: 0-MD 1-quasi-New 2-CG
   NFREE  =      1    steps in history (QN), initial steepest desc. (CG)
   ISIF   =      2    stress and relaxation
   IWAVPR =     10    prediction:  0-non 1-charg 2-wave 3-comb
   ISYM   =      3    0-nonsym 1-usesym 2-fastsym
   LCORR  =      T    Harris-Foulkes like correction to forces

   POTIM  = 0.5000    time-step for ionic-motion
   TEIN   =    0.0    initial temperature
   TEBEG  =    0.0;   TEEND  =   0.0 temperature during run
   SMASS  =  -3.00    Nose mass-parameter (am)
   estimated Nose-frequenzy (Omega)   =  0.10E-29 period in steps =****** mass=  -0.380E-26a.u.
   SCALEE = 1.0000    scale energy and forces
   NPACO  =    256;   APACO  = 16.0  distance and # of slots for P.C.
   PSTRESS=    0.0 pullay stress

  Mass of Ions in am
   POMASS =  12.01 14.00 58.93 55.85
  Ionic Valenz
   ZVAL   =   4.00  5.00  9.00  8.00
  Atomic Wigner-Seitz radii
   RWIGS  =  -1.00 -1.00 -1.00 -1.00
  virtual crystal weights 
   VCA    =   1.00  1.00  1.00  1.00
   NELECT =     253.0000    total number of electrons
   NUPDOWN=      -1.0000    fix difference up-down

 DOS related values:
   EMIN   =  10.00;   EMAX   =-10.00  energy-range for DOS
   EFERMI =   0.00
   ISMEAR =     0;   SIGMA  =   0.10  broadening in eV -4-tet -1-fermi 0-gaus

 Electronic relaxation 2 (details)
   IALGO  =     53    algorithm
   LDIAG  =      T    sub-space diagonalisation (order eigenvalues)
   LSUBROT=      F    optimize rotation matrix (better conditioning)
   TURBO    =      0    0=normal 1=particle mesh
   IRESTART =      0    0=no restart 2=restart with 2 vectors
   NREBOOT  =      0    no. of reboots
   NMIN     =      0    reboot dimension
   EREF     =   0.00    reference energy to select bands
   IMIX   =      4    mixing-type and parameters
     AMIX     =   0.40;   BMIX     =  1.00
     AMIX_MAG =   1.60;   BMIX_MAG =  1.00
     AMIN     =   0.10
     WC   =   100.;   INIMIX=   1;  MIXPRE=   1;  MAXMIX= -45

 Intra band minimization:
   WEIMIN = 0.0000     energy-eigenvalue tresh-hold
   EBREAK =  0.16E-06  absolut break condition
   DEPER  =   0.30     relativ break condition  

   TIME   =   0.20     timestep for ELM

  volume/ion in A,a.u.               =      52.95       357.31
  Fermi-wavevector in a.u.,A,eV,Ry     =   0.704338  1.331007  6.749750  0.496093
  Thomas-Fermi vector in A             =   1.789553
 
 Write flags
   LWAVE        =      T    write WAVECAR
   LDOWNSAMPLE  =      F    k-point downsampling of WAVECAR
   LCHARG       =      T    write CHGCAR
   LVTOT        =      F    write LOCPOT, total local potential
   LVHAR        =      F    write LOCPOT, Hartree potential only
   LELF         =      F    write electronic localiz. function (ELF)
   LORBIT       =     11    0 simple, 1 ext, 2 COOP (PROOUT), +10 PAW based schemes


 Dipole corrections
   LMONO  =      F    monopole corrections only (constant potential shift)
   LDIPOL =      T    correct potential (dipole corrections)
   IDIPOL =      3    1-x, 2-y, 3-z, 4-all directions 
   EPSILON=  1.0000000 bulk dielectric constant

 Exchange correlation treatment:
   GGA     =    PE    GGA type
   LEXCH   =     8    internal setting for exchange type
   VOSKOWN=      0    Vosko Wilk Nusair interpolation
   EXXOEP  =     0    0=HF, 1=EXX-LHF (local Hartree Fock) 2=EXX OEP
   LHFCALC =     T    Hartree Fock is set to
   LSYMGRAD=     F    symmetrize gradient (conserves proper symmetry)
   PRECFOCK=normal    Normal, Fast or Accurate (Low or Medium for compatibility)
   LRHFCALC=     F    long range Hartree Fock
   LRSCOR  =     F    long range correlation only (use DFT for short range part)
   LTHOMAS =     F    Thomas Fermi screening in HF
   LMODELHF=     F    short range full HF, long range fraction AEXX
   ENCUT4O =  -1.0   cutoff for four orbital integrals eV
   LMAXFOCK=     4    L truncation for augmentation on plane wave grid
   LMAXFOCKAE=  -1    L truncation for all-electron charge restoration on plane wave grid
   NMAXFOCKAE=   1    number of basis functions for all-electron charge restoration
   LFOCKAEDFT=     F  apply the AE augmentation even for DFT
   NKREDX  =     1    reduce k-point grid by
   NKREDY  =     1    reduce k-point grid by
   NKREDZ  =     1    reduce k-point grid by
   SHIFTRED=     F    shift reduced grid of Gamma
   HFKIDENT=     F    idential grid for each k-point
   ODDONLY =     F    use only odd q-grid points
   EVENONLY=     F    use only even q-grid points
   HFALPHA =   -1.0000 decay constant for conv. correction
   MCALPHA =    0.0000 extent of test-charge in conv. correction in multipole expansion
   AEXX    =    0.2500 exact exchange contribution
   HFSCREEN=    0.2000 screening length (either q_TF or 0.3 A-1)
   HFSCREENC=   0.2000 screening length for correlation (either q_TF or 0.3 A-1)
   HFRCUT  =    0.0000 spherical cutoff for potential kernel
   ALDAX   =    0.7500 LDA exchange part
   AGGAX   =    0.7500 GGA exchange part
   ALDAC   =    1.0000 LDA correlation
   AGGAC   =    1.0000 GGA correlation
   ENCUTFOCK=  -1.0 apply spherical cutoff to Coloumb kernel
   NBANDSGWLOW=     1    first orbital included in HF term
   NBLOCK_FOCK=    64    blocking factor in FOCK_ACC
 Linear response parameters
   LEPSILON=     F    determine dielectric tensor
   LRPA    =     F    only Hartree local field effects (RPA)
   LNABLA  =     F    use nabla operator in PAW spheres
   LVEL    =     F    velocity operator in full k-point grid
   LINTERFAST=   F  fast interpolation
   KINTER  =     0    interpolate to denser k-point grid
   CSHIFT  =0.1000    complex shift for real part using Kramers Kronig
   OMEGAMAX=  -1.0    maximum frequency
   DEG_THRESHOLD= 0.2000000E-02 threshold for treating states as degnerate
   RTIME   =   -0.100 relaxation time in fs
  (WPLASMAI=    0.000 imaginary part of plasma frequency in eV, 0.658/RTIME)
   DFIELD  = 0.0000000 0.0000000 0.0000000 field for delta impulse in time
 
 Orbital magnetization related:
   ORBITALMAG=     F  switch on orbital magnetization
   LCHIMAG   =     F  perturbation theory with respect to B field
   DQ        =  0.001000  dq finite difference perturbation B field
   LLRAUG    =     F  two centre corrections for induced B field



--------------------------------------------------------------------------------------------------------


 Static calculation
 charge density and potential will be updated during run
 spin polarized calculation
 Conjugate gradient for all bands (Freysoldt, et al. PRB 79, 241103 (2009))
 perform sub-space diagonalisation
    before iterative eigenvector-optimisation
 modified Broyden-mixing scheme, WC =      100.0
 initial mixing is a Kerker type mixing with AMIX =  0.4000 and BMIX =      1.0000
 Hartree-type preconditioning will be used
 using additional bands           34
 reciprocal scheme for non local part
 use partial core corrections
 no Harris-corrections to forces 
 use gradient corrections 
 use of overlap-Matrix (Vanderbilt PP)
 Gauss-broadening in eV      SIGMA  =   0.10


--------------------------------------------------------------------------------------------------------


  energy-cutoff  :      500.00
  volume of cell :     3176.88
      direct lattice vectors                 reciprocal lattice vectors
    12.895500000  0.000000000  0.000000000     0.077546431  0.000702049  0.000110599
    -0.111882970 12.358293557  0.000000000     0.000000000  0.080917320  0.001436008
    -0.025228309 -0.353768751 19.934445188     0.000000000  0.000000000  0.050164426

  length of vectors
    12.895500000 12.358800000 19.937600000     0.077549688  0.080930062  0.050164426


 
 old parameters found on file WAVECAR:
  energy-cutoff  :      500.00
  volume of cell :     3176.88
      direct lattice vectors                 reciprocal lattice vectors
    12.895500000  0.000000000  0.000000000     0.077546431  0.000702049  0.000110599
    -0.111882970 12.358293557  0.000000000     0.000000000  0.080917320  0.001436008
    -0.025228309 -0.353768751 19.934445188     0.000000000  0.000000000  0.050164426

  length of vectors

 
 k-points in units of 2pi/SCALE and weight: KPOINTS created by Atomic Simulation Env
   0.01938661  0.02040484  0.00038665       0.500
  -0.01938661  0.02005382  0.00033135       0.500
 
 k-points in reciprocal lattice and weights: KPOINTS created by Atomic Simulation Env
   0.25000000  0.25000000 -0.00000000       0.500
  -0.25000000  0.25000000  0.00000000       0.500
 
 position of ions in fractional coordinates (direct lattice) 
   0.22089890  0.00277662  0.49552923
   0.05543287  0.10185920  0.49315045
   0.10989598  0.00194835  0.49368368
   0.27745197  0.10301688  0.49697978
   0.22357819  0.20482978  0.49894816
   0.05567672  0.30148889  0.49438666
   0.11197836  0.20239056  0.49537127
   0.27995835  0.30607600  0.50515132
   0.22061567  0.40676763  0.50605855
   0.05394360  0.50177068  0.49646695
   0.11018999  0.40240898  0.49762066
   0.21825609  0.60182481  0.50853180
   0.05323561  0.70204536  0.49450718
   0.10892958  0.60273228  0.49865734
   0.27446511  0.70425633  0.50860133
   0.21900022  0.80217785  0.49913952
   0.05370466  0.90180156  0.49266666
   0.10844742  0.80199889  0.49470878
   0.27542974  0.90245777  0.49777454
   0.55421125  0.99812818  0.49691835
   0.38834395  0.10084642  0.49683765
   0.44321618  0.00037932  0.49672631
   0.61072723  0.09830391  0.49566907
   0.55613614  0.19877072  0.49809886
   0.39340319  0.30199259  0.50698245
   0.44537622  0.20025701  0.49932140
   0.61248419  0.29893045  0.49950097
   0.55671353  0.39741435  0.50922177
   0.61334700  0.49955210  0.50883815
   0.61105193  0.69525190  0.50596261
   0.55155691  0.79550383  0.50482119
   0.38619940  0.90118772  0.49896894
   0.43834158  0.79986071  0.50642428
   0.60810557  0.89671534  0.49875677
   0.88751169  0.00030373  0.49178869
   0.72160730  0.09903006  0.49382586
   0.77614217  0.99908983  0.49312896
   0.94404102  0.10056696  0.49184701
   0.88866970  0.20011645  0.49195025
   0.72299301  0.29898805  0.49507348
   0.77781988  0.19913948  0.49292319
   0.94458697  0.30048938  0.49247924
   0.88886118  0.40000772  0.49304381
   0.72242224  0.49839687  0.49899340
   0.77824371  0.39890650  0.49484832
   0.94374457  0.50065878  0.49386244
   0.88766627  0.60028261  0.49385394
   0.72141151  0.69883485  0.49756628
   0.77745541  0.59932974  0.49659627
   0.94253909  0.70088110  0.49283654
   0.88689452  0.80041384  0.49228752
   0.71953247  0.89872468  0.49526628
   0.77588301  0.79950711  0.49424128
   0.94283670  0.90075462  0.49175470
   0.26869846  0.50518986  0.51725348
   0.45117383  0.39438665  0.51837888
   0.56323303  0.59728755  0.51780812
   0.38044777  0.70800660  0.51769853
   0.37487964  0.47924907  0.58666710
   0.45590157  0.62544495  0.58692380
 
 position of ions in cartesian coordinates  (Angst):
   2.83578976 -0.14098853  9.87810031
   0.69099687  1.08434468  9.83068052
   1.40449083 -0.15057159  9.84131026
   3.55381814  1.09729689  9.90701624
   2.84764793  2.35483428  9.94625483
   0.67177513  3.55098972  9.85532377
   1.40887550  2.32595508  9.87495147
   3.56321413  3.60387033 10.06991133
   2.78667201  4.84792603 10.08799649
   0.62696513  6.02539489  9.89679317
   1.36337815  4.79704565  9.91979176
   2.73435803  7.25762505 10.13729929
   0.59547725  8.50114141  9.85772635
   1.32468559  7.27233311  9.94045733
   3.44773934  8.52347924 10.13868543
   2.72177482  9.73696944  9.95006935
   0.57922311 10.97043837  9.82103652
   1.29627303  9.73632526  9.86174505
   3.43827655 10.97674093  9.92285923
   7.02262121 12.15936682  9.90579157
   4.98407198  1.07052400  9.90418281
   5.70292020 -0.17103853  9.90196343
   7.85212951  1.03951629  9.88088793
   7.13684831  2.28025513  9.92932448
   5.02655274  3.55275853 10.10641387
   5.70834662  2.29819062  9.95369514
   7.85224309  3.51756246  9.95727479
   7.12178862  4.73121645 10.15105355
   7.84068772  5.99360047 10.14340616
   7.78926868  8.41313330 10.08608386
   7.01086303  9.65247990 10.06333033
   4.86681872 10.96062275  9.94666891
   5.55036677  9.70575632 10.09528699
   7.72891544 10.90542681  9.94243940
  11.43246606 -0.17022587  9.80353478
   9.28194873  1.04914235  9.84414449
   9.88451943 12.17259185  9.83025217
  12.15022079  1.06883593  9.80469718
  11.42503939  2.29906120  9.80675522
   9.27741477  3.51984061  9.86901509
   9.99566037  2.28664334  9.82615040
  12.13487721  3.53931225  9.81730037
  11.40511660  4.76898931  9.82855485
   9.24764517  5.98280650  9.94715651
   9.97872674  4.75474172  9.86452679
  12.10158358  6.01257505  9.84487371
  11.36727993  7.24375861  9.84470439
   9.21222162  8.46038284  9.91870773
   9.94609320  7.23101268  9.89937113
  12.06366277  8.48734425  9.82442308
  11.33497605  9.71759320  9.81347864
   9.16568430 10.93149365  9.87285861
   9.90347931  9.70569639  9.85242579
  12.04516537 10.95782256  9.80285710
   3.39542935  6.06029646 10.31116119
   5.76090915  4.69055976 10.33359528
   7.18328178  7.19827058 10.32221749
   4.81378962  8.56660779 10.32003295
   4.76584000  5.71515620 11.69488305
   5.79429496  7.52179705 11.70000032
 


--------------------------------------------------------------------------------------------------------


 k-point  1 :   0.2500 0.2500-0.0000  plane waves:   80662
 k-point  2 :  -0.2500 0.2500 0.0000  plane waves:   80653

 maximum and minimum number of plane-waves per node :      2549     2463

 maximum number of plane-waves:     80662
 maximum index in each direction: 
   IXMAX=   23   IYMAX=   22   IZMAX=   36
   IXMIN=  -23   IYMIN=  -22   IZMIN=  -36


 parallel 3D FFT for wavefunctions:
    minimum data exchange during FFTs selected (reduces bandwidth)
 parallel 3D FFT for charge:
    minimum data exchange during FFTs selected (reduces bandwidth)


 FFT grid for exact exchange (Hartree Fock) 
  NGX = 72; NGY = 70; NGZ =112

 
 Radii for the augmentation spheres in the non-local exchange
 for species   1 augmentation radius   0.874 (default was   0.699)
       energy cutoff for augmentation   2000.0
 for species   2 augmentation radius   0.886 (default was   0.709)
       energy cutoff for augmentation   2000.0
 for species   3 augmentation radius   1.307 (default was   1.045)
       energy cutoff for augmentation   2000.0
 for species   4 augmentation radius   1.263 (default was   1.010)
       energy cutoff for augmentation   2000.0

 real space projection operators:
  total allocation   :       2629.02 KBytes
  max/ min on nodes  :        127.36         43.59

 Maximum index for augmentation-charges in exchange          156
  SETUP_FOCK is finished

 total amount of memory used by VASP MPI-rank0   165248. kBytes
=======================================================================

   base      :      30000. kBytes
   nonl-proj :       5400. kBytes
   fftplans  :      13453. kBytes
   grid      :      34560. kBytes
   one-center:         62. kBytes
   HF        :         23. kBytes
   nonlr-proj:       1905. kBytes
   wavefun   :      79845. kBytes
 
     INWAV:  cpu time    3.6405: real time    3.6409
 Broyden mixing: mesh for mixing (old mesh)
   NGX = 47   NGY = 45   NGZ = 73
  (NGX  =192   NGY  =180   NGZ  =300)
  gives a total of 154395 points

 charge density for first step will be calculated from the start-wavefunctions


--------------------------------------------------------------------------------------------------------


 Maximum index for augmentation-charges          556 (set IRDMAX)


--------------------------------------------------------------------------------------------------------


 initial charge from wavefunction
 First call to EWALD:  gamma=   0.121
 Maximum number of real-space cells 3x 3x 2
 Maximum number of reciprocal cells 2x 2x 4

    FEWALD:  cpu time    0.0033: real time    0.0033


--------------------------------------- Iteration      1(   1)  ---------------------------------------


    POTLOK:  cpu time    1.3188: real time    1.3193
    SETDIJ:  cpu time    2.0829: real time    2.0833
    TRIAL :  cpu time  565.3507: real time  565.4258
    CORREC:  cpu time    0.0023: real time    0.0025
    CHARGE:  cpu time    1.7455: real time    1.7456
    --------------------------------------------
      LOOP:  cpu time  570.5164: real time  570.5955

 eigenvalue-minimisations  :     0
 total energy-change (2. order) :-0.6272709E+03  (-0.5500149E+00)
 number of electron     253.0000008 magnetization       6.9431311
 augmentation part       15.3682325 magnetization       4.2968051

 DIPCOR: dipole corrections for dipol
 direction  3 min pos     1,
 dipolmoment           0.000066      0.000927     -0.052258 electrons x Angstroem
 Tr[quadrupol]     -7030.661177

 energy correction for charged system         0.000000 eV
 dipol+quadrupol energy correction           -0.000078 eV
 added-field ion interaction          0.077931 eV  (added to PSCEN)


 Free energy of the ion-electron system (eV)
  ---------------------------------------------------
  alpha Z        PSCENC =       105.88742599
  Ewald energy   TEWEN  =     40771.97362670
  -Hartree energ DENC   =    -49661.85657301
  -exchange      EXHF   =       573.06119090
  -V(xc)+E(xc)   XCENC  =       647.31164550
  PAW double counting   =     27251.85978883   -27340.20509833
  entropy T*S    EENTRO =        -0.01180765
  eigenvalues    EBANDS =     -3270.61753613
  atomic energy  EATOM  =     10295.33085592
  ---------------------------------------------------
  free energy    TOTEN  =      -627.27087838 eV

  energy without entropy =     -627.25907073  energy(sigma->0) =     -627.26497456
  exchange ACFDT corr.  =        -0.00944671  see jH, gK, PRB 81, 115126


--------------------------------------------------------------------------------------------------------




--------------------------------------- Iteration      1(   2)  ---------------------------------------


    POTLOK:  cpu time    1.3290: real time    1.3290
    SETDIJ:  cpu time    2.0887: real time    2.0889
    TRIAL :  cpu time  566.2373: real time  566.2940
    CORREC:  cpu time    0.0022: real time    0.0024
    CHARGE:  cpu time    1.7408: real time    1.7409
    --------------------------------------------
      LOOP:  cpu time  571.4001: real time  571.4605

 eigenvalue-minimisations  :     0
 total energy-change (2. order) :-0.3887262E+00  (-0.4655718E+00)
 number of electron     253.0000008 magnetization       6.9689776
 augmentation part       15.3384859 magnetization       4.4066797

 DIPCOR: dipole corrections for dipol
 direction  3 min pos     1,
 dipolmoment           0.000059      0.000822     -0.046310 electrons x Angstroem
 Tr[quadrupol]     -7030.488720

 energy correction for charged system         0.000000 eV
 dipol+quadrupol energy correction           -0.000061 eV
 added-field ion interaction          0.069061 eV  (added to PSCEN)


 Free energy of the ion-electron system (eV)
  ---------------------------------------------------
  alpha Z        PSCENC =       105.87857227
  Ewald energy   TEWEN  =     40771.97362670
  -Hartree energ DENC   =    -49649.17979042
  -exchange      EXHF   =       573.01704672
  -V(xc)+E(xc)   XCENC  =       647.04131124
  PAW double counting   =     27382.33898482   -27471.25084998
  entropy T*S    EENTRO =        -0.00766164
  eigenvalues    EBANDS =     -3282.79755420
  atomic energy  EATOM  =     10295.33085592
  ---------------------------------------------------
  free energy    TOTEN  =      -627.65960458 eV

  energy without entropy =     -627.65194294  energy(sigma->0) =     -627.65577376
  exchange ACFDT corr.  =        -0.00596253  see jH, gK, PRB 81, 115126


--------------------------------------------------------------------------------------------------------




--------------------------------------- Iteration      1(   3)  ---------------------------------------


    POTLOK:  cpu time    1.3271: real time    1.3272
    SETDIJ:  cpu time    2.0872: real time    2.0873
    TRIAL :  cpu time  566.1354: real time  566.2033
    CORREC:  cpu time    0.0021: real time    0.0023
    CHARGE:  cpu time    1.7355: real time    1.7356
    --------------------------------------------
      LOOP:  cpu time  571.2891: real time  571.3576

 eigenvalue-minimisations  :     0
 total energy-change (2. order) :-0.3403788E+00  (-0.2254913E+00)
 number of electron     253.0000008 magnetization       6.9839901
 augmentation part       15.3251606 magnetization       4.4924833

 DIPCOR: dipole corrections for dipol
 direction  3 min pos     1,
 dipolmoment           0.000081      0.001132     -0.063776 electrons x Angstroem
 Tr[quadrupol]     -7030.339489

 energy correction for charged system         0.000000 eV
 dipol+quadrupol energy correction           -0.000116 eV
 added-field ion interaction          0.095107 eV  (added to PSCEN)


 Free energy of the ion-electron system (eV)
  ---------------------------------------------------
  alpha Z        PSCENC =       105.90456350
  Ewald energy   TEWEN  =     40771.97362670
  -Hartree energ DENC   =    -49632.76960304
  -exchange      EXHF   =       572.93112221
  -V(xc)+E(xc)   XCENC  =       646.66727387
  PAW double counting   =     27549.38803441   -27637.48723405
  entropy T*S    EENTRO =        -0.00472328
  eigenvalues    EBANDS =     -3299.93096129
  atomic energy  EATOM  =     10295.33085592
  ---------------------------------------------------
  free energy    TOTEN  =      -627.99998341 eV

  energy without entropy =     -627.99526013  energy(sigma->0) =     -627.99762177
  exchange ACFDT corr.  =        -0.00345875  see jH, gK, PRB 81, 115126


--------------------------------------------------------------------------------------------------------




--------------------------------------- Iteration      1(   4)  ---------------------------------------


    POTLOK:  cpu time    1.3277: real time    1.3279
    SETDIJ:  cpu time    2.1106: real time    2.1107
    TRIAL :  cpu time  563.8767: real time  563.9495
    CORREC:  cpu time    0.0022: real time    0.0024
    CHARGE:  cpu time    1.7346: real time    1.7347
    --------------------------------------------
      LOOP:  cpu time  569.0542: real time  569.1293

 eigenvalue-minimisations  :     0
 total energy-change (2. order) :-0.1672796E+00  (-0.1325823E+00)
 number of electron     253.0000008 magnetization       6.9916766
 augmentation part       15.3294096 magnetization       4.5439972

 DIPCOR: dipole corrections for dipol
 direction  3 min pos     1,
 dipolmoment           0.000107      0.001498     -0.084391 electrons x Angstroem
 Tr[quadrupol]     -7030.303149

 energy correction for charged system         0.000000 eV
 dipol+quadrupol energy correction           -0.000204 eV
 added-field ion interaction          0.125849 eV  (added to PSCEN)


 Free energy of the ion-electron system (eV)
  ---------------------------------------------------
  alpha Z        PSCENC =       105.93521859
  Ewald energy   TEWEN  =     40771.97362670
  -Hartree energ DENC   =    -49625.37768307
  -exchange      EXHF   =       573.05494536
  -V(xc)+E(xc)   XCENC  =       646.53346355
  PAW double counting   =     27696.09771457   -27784.01616884
  entropy T*S    EENTRO =        -0.00288884
  eigenvalues    EBANDS =     -3307.69451247
  atomic energy  EATOM  =     10295.33085592
  ---------------------------------------------------
  free energy    TOTEN  =      -628.16726296 eV

  energy without entropy =     -628.16437412  energy(sigma->0) =     -628.16581854
  exchange ACFDT corr.  =        -0.00192541  see jH, gK, PRB 81, 115126


--------------------------------------------------------------------------------------------------------




--------------------------------------- Iteration      1(   5)  ---------------------------------------


    POTLOK:  cpu time    1.3259: real time    1.3260
    SETDIJ:  cpu time    2.1118: real time    2.1119
    TRIAL :  cpu time  564.0203: real time  564.0760
    CORREC:  cpu time    0.0021: real time    0.0023
    CHARGE:  cpu time    1.7342: real time    1.7343
    --------------------------------------------
      LOOP:  cpu time  569.1964: real time  569.2544

 eigenvalue-minimisations  :     0
 total energy-change (2. order) :-0.9812873E-01  (-0.7199167E-01)
 number of electron     253.0000008 magnetization       6.9955540
 augmentation part       15.3334812 magnetization       4.5731290

 DIPCOR: dipole corrections for dipol
 direction  3 min pos     1,
 dipolmoment           0.000126      0.001765     -0.099430 electrons x Angstroem
 Tr[quadrupol]     -7030.355922

 energy correction for charged system         0.000000 eV
 dipol+quadrupol energy correction           -0.000283 eV
 added-field ion interaction          0.148276 eV  (added to PSCEN)


 Free energy of the ion-electron system (eV)
  ---------------------------------------------------
  alpha Z        PSCENC =       105.95756660
  Ewald energy   TEWEN  =     40771.97362670
  -Hartree energ DENC   =    -49626.49123903
  -exchange      EXHF   =       573.32890550
  -V(xc)+E(xc)   XCENC  =       646.61601504
  PAW double counting   =     27801.98672959   -27890.29076830
  entropy T*S    EENTRO =        -0.00178738
  eigenvalues    EBANDS =     -3306.67419488
  atomic energy  EATOM  =     10295.33085592
  ---------------------------------------------------
  free energy    TOTEN  =      -628.26539170 eV

  energy without entropy =     -628.26360432  energy(sigma->0) =     -628.26449801
  exchange ACFDT corr.  =        -0.00107914  see jH, gK, PRB 81, 115126


--------------------------------------------------------------------------------------------------------




--------------------------------------- Iteration      1(   6)  ---------------------------------------


    POTLOK:  cpu time    1.3272: real time    1.3274
    SETDIJ:  cpu time    2.1142: real time    2.1143
    TRIAL :  cpu time  563.5378: real time  563.6021
    CORREC:  cpu time    0.0022: real time    0.0024
    CHARGE:  cpu time    1.7278: real time    1.7279
    --------------------------------------------
      LOOP:  cpu time  568.7116: real time  568.7764

 eigenvalue-minimisations  :     0
 total energy-change (2. order) :-0.5870271E-01  (-0.4835329E-01)
 number of electron     253.0000008 magnetization       6.9975393
 augmentation part       15.3338033 magnetization       4.5894118

 DIPCOR: dipole corrections for dipol
 direction  3 min pos     1,
 dipolmoment           0.000137      0.001921     -0.108240 electrons x Angstroem
 Tr[quadrupol]     -7030.427844

 energy correction for charged system         0.000000 eV
 dipol+quadrupol energy correction           -0.000335 eV
 added-field ion interaction          0.161415 eV  (added to PSCEN)


 Free energy of the ion-electron system (eV)
  ---------------------------------------------------
  alpha Z        PSCENC =       105.97065315
  Ewald energy   TEWEN  =     40771.97362670
  -Hartree energ DENC   =    -49629.98098517
  -exchange      EXHF   =       573.59630391
  -V(xc)+E(xc)   XCENC  =       646.74677056
  PAW double counting   =     27868.68778295   -27957.13021258
  entropy T*S    EENTRO =        -0.00112369
  eigenvalues    EBANDS =     -3303.51710247
  atomic energy  EATOM  =     10295.33085592
  ---------------------------------------------------
  free energy    TOTEN  =      -628.32409441 eV

  energy without entropy =     -628.32297072  energy(sigma->0) =     -628.32353256
  exchange ACFDT corr.  =        -0.00062006  see jH, gK, PRB 81, 115126


--------------------------------------------------------------------------------------------------------




--------------------------------------- Iteration      1(   7)  ---------------------------------------


    POTLOK:  cpu time    1.3264: real time    1.3265
    SETDIJ:  cpu time    2.0774: real time    2.0776
    TRIAL :  cpu time  563.8327: real time  563.9327
    CORREC:  cpu time    0.0021: real time    0.0023
    CHARGE:  cpu time    1.7252: real time    1.7257
    --------------------------------------------
      LOOP:  cpu time  568.9664: real time  569.0692

 eigenvalue-minimisations  :     0
 total energy-change (2. order) :-0.3927232E-01  (-0.2959848E-01)
 number of electron     253.0000008 magnetization       6.9985715
 augmentation part       15.3344879 magnetization       4.5988849

 DIPCOR: dipole corrections for dipol
 direction  3 min pos     1,
 dipolmoment           0.000142      0.001996     -0.112496 electrons x Angstroem
 Tr[quadrupol]     -7030.481651

 energy correction for charged system         0.000000 eV
 dipol+quadrupol energy correction           -0.000362 eV
 added-field ion interaction          0.167762 eV  (added to PSCEN)


 Free energy of the ion-electron system (eV)
  ---------------------------------------------------
  alpha Z        PSCENC =       105.97697258
  Ewald energy   TEWEN  =     40771.97362670
  -Hartree energ DENC   =    -49632.91410275
  -exchange      EXHF   =       573.79751573
  -V(xc)+E(xc)   XCENC  =       646.85357582
  PAW double counting   =     27906.62453085   -27994.98393787
  entropy T*S    EENTRO =        -0.00072233
  eigenvalues    EBANDS =     -3301.02128002
  atomic energy  EATOM  =     10295.33085592
  ---------------------------------------------------
  free energy    TOTEN  =      -628.36336673 eV

  energy without entropy =     -628.36264440  energy(sigma->0) =     -628.36300556
  exchange ACFDT corr.  =        -0.00036559  see jH, gK, PRB 81, 115126


--------------------------------------------------------------------------------------------------------




--------------------------------------- Iteration      1(   8)  ---------------------------------------


    POTLOK:  cpu time    1.3221: real time    1.3277
    SETDIJ:  cpu time    2.0784: real time    2.0786
    TRIAL :  cpu time  564.3176: real time  564.4345
    CORREC:  cpu time    0.0019: real time    0.0021
    CHARGE:  cpu time    1.7228: real time    1.7232
    --------------------------------------------
      LOOP:  cpu time  569.4452: real time  569.5685

 eigenvalue-minimisations  :     0
 total energy-change (2. order) :-0.2519391E-01  (-0.2017816E-01)
 number of electron     253.0000008 magnetization       6.9991178
 augmentation part       15.3360819 magnetization       4.6062691

 DIPCOR: dipole corrections for dipol
 direction  3 min pos     1,
 dipolmoment           0.000145      0.002029     -0.114313 electrons x Angstroem
 Tr[quadrupol]     -7030.512153

 energy correction for charged system         0.000000 eV
 dipol+quadrupol energy correction           -0.000374 eV
 added-field ion interaction          0.170472 eV  (added to PSCEN)


 Free energy of the ion-electron system (eV)
  ---------------------------------------------------
  alpha Z        PSCENC =       105.97967112
  Ewald energy   TEWEN  =     40771.97362670
  -Hartree energ DENC   =    -49634.91448667
  -exchange      EXHF   =       573.93662310
  -V(xc)+E(xc)   XCENC  =       646.93177408
  PAW double counting   =     27926.39251956   -28014.75438243
  entropy T*S    EENTRO =        -0.00048164
  eigenvalues    EBANDS =     -3299.26403967
  atomic energy  EATOM  =     10295.33085592
  ---------------------------------------------------
  free energy    TOTEN  =      -628.38856064 eV

  energy without entropy =     -628.38807900  energy(sigma->0) =     -628.38831982
  exchange ACFDT corr.  =        -0.00022217  see jH, gK, PRB 81, 115126


--------------------------------------------------------------------------------------------------------




--------------------------------------- Iteration      1(   9)  ---------------------------------------


    POTLOK:  cpu time    1.3236: real time    1.3237
    SETDIJ:  cpu time    2.0834: real time    2.0838
    TRIAL :  cpu time  564.4202: real time  564.4944
    CORREC:  cpu time    0.0020: real time    0.0022
    CHARGE:  cpu time    1.7165: real time    1.7167
    --------------------------------------------
      LOOP:  cpu time  569.5478: real time  569.6230

 eigenvalue-minimisations  :     0
 total energy-change (2. order) :-0.1733179E-01  (-0.1349452E-01)
 number of electron     253.0000008 magnetization       6.9994147
 augmentation part       15.3374029 magnetization       4.6140717

 DIPCOR: dipole corrections for dipol
 direction  3 min pos     1,
 dipolmoment           0.000146      0.002045     -0.115244 electrons x Angstroem
 Tr[quadrupol]     -7030.524989

 energy correction for charged system         0.000000 eV
 dipol+quadrupol energy correction           -0.000380 eV
 added-field ion interaction          0.171859 eV  (added to PSCEN)


 Free energy of the ion-electron system (eV)
  ---------------------------------------------------
  alpha Z        PSCENC =       105.98105252
  Ewald energy   TEWEN  =     40771.97362670
  -Hartree energ DENC   =    -49635.98330842
  -exchange      EXHF   =       574.02485110
  -V(xc)+E(xc)   XCENC  =       646.98188480
  PAW double counting   =     27935.76544666   -28024.21334506
  entropy T*S    EENTRO =        -0.00033785
  eigenvalues    EBANDS =     -3298.26647501
  atomic energy  EATOM  =     10295.33085592
  ---------------------------------------------------
  free energy    TOTEN  =      -628.40589243 eV

  energy without entropy =     -628.40555458  energy(sigma->0) =     -628.40572350
  exchange ACFDT corr.  =        -0.00014118  see jH, gK, PRB 81, 115126


--------------------------------------------------------------------------------------------------------




--------------------------------------- Iteration      1(  10)  ---------------------------------------


    POTLOK:  cpu time    1.3220: real time    1.3220
    SETDIJ:  cpu time    2.0801: real time    2.0801
    TRIAL :  cpu time  564.0310: real time  564.0856
    CORREC:  cpu time    0.0020: real time    0.0022
    CHARGE:  cpu time    1.7156: real time    1.7157
    --------------------------------------------
      LOOP:  cpu time  569.1528: real time  569.2078

 eigenvalue-minimisations  :     0
 total energy-change (2. order) :-0.1195681E-01  (-0.9750531E-02)
 number of electron     253.0000008 magnetization       6.9995820
 augmentation part       15.3379804 magnetization       4.6221169

 DIPCOR: dipole corrections for dipol
 direction  3 min pos     1,
 dipolmoment           0.000147      0.002061     -0.116121 electrons x Angstroem
 Tr[quadrupol]     -7030.527819

 energy correction for charged system         0.000000 eV
 dipol+quadrupol energy correction           -0.000386 eV
 added-field ion interaction          0.173168 eV  (added to PSCEN)


 Free energy of the ion-electron system (eV)
  ---------------------------------------------------
  alpha Z        PSCENC =       105.98235516
  Ewald energy   TEWEN  =     40771.97362670
  -Hartree energ DENC   =    -49636.28735506
  -exchange      EXHF   =       574.07616008
  -V(xc)+E(xc)   XCENC  =       647.00787739
  PAW double counting   =     27939.65826350   -28028.16954371
  entropy T*S    EENTRO =        -0.00025081
  eigenvalues    EBANDS =     -3297.98975137
  atomic energy  EATOM  =     10295.33085592
  ---------------------------------------------------
  free energy    TOTEN  =      -628.41784924 eV

  energy without entropy =     -628.41759843  energy(sigma->0) =     -628.41772383
  exchange ACFDT corr.  =        -0.00009518  see jH, gK, PRB 81, 115126


--------------------------------------------------------------------------------------------------------




--------------------------------------- Iteration      1(  11)  ---------------------------------------


    POTLOK:  cpu time    1.3239: real time    1.3240
    SETDIJ:  cpu time    2.1101: real time    2.1102
    TRIAL :  cpu time  564.0357: real time  564.0904
    CORREC:  cpu time    0.0020: real time    0.0019
    CHARGE:  cpu time    1.7131: real time    1.7132
    --------------------------------------------
      LOOP:  cpu time  569.1869: real time  569.2419

 eigenvalue-minimisations  :     0
 total energy-change (2. order) :-0.8745652E-02  (-0.7061606E-02)
 number of electron     253.0000008 magnetization       6.9996804
 augmentation part       15.3382182 magnetization       4.6293730

 DIPCOR: dipole corrections for dipol
 direction  3 min pos     1,
 dipolmoment           0.000148      0.002077     -0.117060 electrons x Angstroem
 Tr[quadrupol]     -7030.527100

 energy correction for charged system         0.000000 eV
 dipol+quadrupol energy correction           -0.000392 eV
 added-field ion interaction          0.174569 eV  (added to PSCEN)


 Free energy of the ion-electron system (eV)
  ---------------------------------------------------
  alpha Z        PSCENC =       105.98374995
  Ewald energy   TEWEN  =     40771.97362670
  -Hartree energ DENC   =    -49636.20402787
  -exchange      EXHF   =       574.10720377
  -V(xc)+E(xc)   XCENC  =       647.02033481
  PAW double counting   =     27940.87386091   -28029.40824308
  entropy T*S    EENTRO =        -0.00019657
  eigenvalues    EBANDS =     -3298.10370519
  atomic energy  EATOM  =     10295.33085592
  ---------------------------------------------------
  free energy    TOTEN  =      -628.42659489 eV

  energy without entropy =     -628.42639832  energy(sigma->0) =     -628.42649660
  exchange ACFDT corr.  =        -0.00006845  see jH, gK, PRB 81, 115126


--------------------------------------------------------------------------------------------------------




--------------------------------------- Iteration      1(  12)  ---------------------------------------


    POTLOK:  cpu time    1.3203: real time    1.3205
    SETDIJ:  cpu time    2.0770: real time    2.0771
    TRIAL :  cpu time  563.9968: real time  564.0526
    CORREC:  cpu time    0.0018: real time    0.0020
    CHARGE:  cpu time    1.7154: real time    1.7155
    --------------------------------------------
      LOOP:  cpu time  569.1137: real time  569.1700

 eigenvalue-minimisations  :     0
 total energy-change (2. order) :-0.6431250E-02  (-0.5350893E-02)
 number of electron     253.0000008 magnetization       6.9997411
 augmentation part       15.3384180 magnetization       4.6353664

 DIPCOR: dipole corrections for dipol
 direction  3 min pos     1,
 dipolmoment           0.000149      0.002092     -0.117858 electrons x Angstroem
 Tr[quadrupol]     -7030.526497

 energy correction for charged system         0.000000 eV
 dipol+quadrupol energy correction           -0.000397 eV
 added-field ion interaction          0.175758 eV  (added to PSCEN)


 Free energy of the ion-electron system (eV)
  ---------------------------------------------------
  alpha Z        PSCENC =       105.98493411
  Ewald energy   TEWEN  =     40771.97362670
  -Hartree energ DENC   =    -49636.07853813
  -exchange      EXHF   =       574.13085553
  -V(xc)+E(xc)   XCENC  =       647.02941228
  PAW double counting   =     27941.04599876   -28029.60081362
  entropy T*S    EENTRO =        -0.00016150
  eigenvalues    EBANDS =     -3298.24916110
  atomic energy  EATOM  =     10295.33085592
  ---------------------------------------------------
  free energy    TOTEN  =      -628.43302614 eV

  energy without entropy =     -628.43286464  energy(sigma->0) =     -628.43294539
  exchange ACFDT corr.  =        -0.00005233  see jH, gK, PRB 81, 115126


--------------------------------------------------------------------------------------------------------




--------------------------------------- Iteration      1(  13)  ---------------------------------------


    POTLOK:  cpu time    1.3167: real time    1.3168
    SETDIJ:  cpu time    2.0739: real time    2.0740
    TRIAL :  cpu time  565.3938: real time  565.4461
    CORREC:  cpu time    0.0021: real time    0.0023
    CHARGE:  cpu time    1.7156: real time    1.7156
    --------------------------------------------
      LOOP:  cpu time  570.5042: real time  570.5570

 eigenvalue-minimisations  :     0
 total energy-change (2. order) :-0.4948520E-02  (-0.4181546E-02)
 number of electron     253.0000008 magnetization       6.9997803
 augmentation part       15.3385757 magnetization       4.6402482

 DIPCOR: dipole corrections for dipol
 direction  3 min pos     1,
 dipolmoment           0.000150      0.002100     -0.118359 electrons x Angstroem
 Tr[quadrupol]     -7030.526799

 energy correction for charged system         0.000000 eV
 dipol+quadrupol energy correction           -0.000401 eV
 added-field ion interaction          0.176506 eV  (added to PSCEN)


 Free energy of the ion-electron system (eV)
  ---------------------------------------------------
  alpha Z        PSCENC =       105.98567821
  Ewald energy   TEWEN  =     40771.97362670
  -Hartree energ DENC   =    -49636.02803459
  -exchange      EXHF   =       574.15208907
  -V(xc)+E(xc)   XCENC  =       647.03860129
  PAW double counting   =     27941.14440864   -28029.72983872
  entropy T*S    EENTRO =        -0.00013797
  eigenvalues    EBANDS =     -3298.30519968
  atomic energy  EATOM  =     10295.33085592
  ---------------------------------------------------
  free energy    TOTEN  =      -628.43797466 eV

  energy without entropy =     -628.43783669  energy(sigma->0) =     -628.43790567
  exchange ACFDT corr.  =        -0.00004216  see jH, gK, PRB 81, 115126


--------------------------------------------------------------------------------------------------------




--------------------------------------- Iteration      1(  14)  ---------------------------------------


    POTLOK:  cpu time    1.3155: real time    1.3155
    SETDIJ:  cpu time    2.0742: real time    2.0744
    TRIAL :  cpu time  563.3857: real time  563.4554
    CORREC:  cpu time    0.0020: real time    0.0022
    CHARGE:  cpu time    1.7138: real time    1.7139
    --------------------------------------------
      LOOP:  cpu time  568.4932: real time  568.5634

 eigenvalue-minimisations  :     0
 total energy-change (2. order) :-0.3911716E-02  (-0.3382713E-02)
 number of electron     253.0000008 magnetization       6.9998066
 augmentation part       15.3386546 magnetization       4.6442811

 DIPCOR: dipole corrections for dipol
 direction  3 min pos     1,
 dipolmoment           0.000150      0.002105     -0.118600 electrons x Angstroem
 Tr[quadrupol]     -7030.527475

 energy correction for charged system         0.000000 eV
 dipol+quadrupol energy correction           -0.000402 eV
 added-field ion interaction          0.176865 eV  (added to PSCEN)


 Free energy of the ion-electron system (eV)
  ---------------------------------------------------
  alpha Z        PSCENC =       105.98603520
  Ewald energy   TEWEN  =     40771.97362670
  -Hartree energ DENC   =    -49636.01938838
  -exchange      EXHF   =       574.17105787
  -V(xc)+E(xc)   XCENC  =       647.04696179
  PAW double counting   =     27941.63177324   -28030.24526248
  entropy T*S    EENTRO =        -0.00012165
  eigenvalues    EBANDS =     -3298.31740826
  atomic energy  EATOM  =     10295.33085592
  ---------------------------------------------------
  free energy    TOTEN  =      -628.44188637 eV

  energy without entropy =     -628.44176472  energy(sigma->0) =     -628.44182555
  exchange ACFDT corr.  =        -0.00003547  see jH, gK, PRB 81, 115126


--------------------------------------------------------------------------------------------------------




--------------------------------------- Iteration      1(  15)  ---------------------------------------


    POTLOK:  cpu time    1.3142: real time    1.3142
    SETDIJ:  cpu time    2.1052: real time    2.1054
    TRIAL :  cpu time  564.7123: real time  564.7848
    CORREC:  cpu time    0.0020: real time    0.0022
    CHARGE:  cpu time    1.7134: real time    1.7134
    --------------------------------------------
      LOOP:  cpu time  569.8493: real time  569.9223

 eigenvalue-minimisations  :     0
 total energy-change (2. order) :-0.3210600E-02  (-0.2851885E-02)
 number of electron     253.0000008 magnetization       6.9998248
 augmentation part       15.3386842 magnetization       4.6475786

 DIPCOR: dipole corrections for dipol
 direction  3 min pos     1,
 dipolmoment           0.000150      0.002107     -0.118704 electrons x Angstroem
 Tr[quadrupol]     -7030.528035

 energy correction for charged system         0.000000 eV
 dipol+quadrupol energy correction           -0.000403 eV
 added-field ion interaction          0.177020 eV  (added to PSCEN)


 Free energy of the ion-electron system (eV)
  ---------------------------------------------------
  alpha Z        PSCENC =       105.98618948
  Ewald energy   TEWEN  =     40771.97362670
  -Hartree energ DENC   =    -49636.01219607
  -exchange      EXHF   =       574.18742275
  -V(xc)+E(xc)   XCENC  =       647.05353614
  PAW double counting   =     27942.60741854   -28031.23884482
  entropy T*S    EENTRO =        -0.00011004
  eigenvalues    EBANDS =     -3298.33298396
  atomic energy  EATOM  =     10295.33085592
  ---------------------------------------------------
  free energy    TOTEN  =      -628.44509697 eV

  energy without entropy =     -628.44498694  energy(sigma->0) =     -628.44504196
  exchange ACFDT corr.  =        -0.00003090  see jH, gK, PRB 81, 115126


--------------------------------------------------------------------------------------------------------




--------------------------------------- Iteration      1(  16)  ---------------------------------------


    POTLOK:  cpu time    1.3148: real time    1.3150
    SETDIJ:  cpu time    2.0735: real time    2.0737
    TRIAL :  cpu time  563.4354: real time  563.4939
    CORREC:  cpu time    0.0019: real time    0.0021
    CHARGE:  cpu time    1.7163: real time    1.7165
    --------------------------------------------
      LOOP:  cpu time  568.5440: real time  568.6032

 eigenvalue-minimisations  :     0
 total energy-change (2. order) :-0.2735287E-02  (-0.2485920E-02)
 number of electron     253.0000008 magnetization       6.9998376
 augmentation part       15.3387006 magnetization       4.6502126

 DIPCOR: dipole corrections for dipol
 direction  3 min pos     1,
 dipolmoment           0.000150      0.002107     -0.118743 electrons x Angstroem
 Tr[quadrupol]     -7030.528341

 energy correction for charged system         0.000000 eV
 dipol+quadrupol energy correction           -0.000403 eV
 added-field ion interaction          0.177078 eV  (added to PSCEN)


 Free energy of the ion-electron system (eV)
  ---------------------------------------------------
  alpha Z        PSCENC =       105.98624781
  Ewald energy   TEWEN  =     40771.97362670
  -Hartree energ DENC   =    -49636.00333296
  -exchange      EXHF   =       574.20173904
  -V(xc)+E(xc)   XCENC  =       647.05869908
  PAW double counting   =     27943.93360047   -28032.57765579
  entropy T*S    EENTRO =        -0.00010162
  eigenvalues    EBANDS =     -3298.35150249
  atomic energy  EATOM  =     10295.33085592
  ---------------------------------------------------
  free energy    TOTEN  =      -628.44783226 eV

  energy without entropy =     -628.44773064  energy(sigma->0) =     -628.44778145
  exchange ACFDT corr.  =        -0.00002769  see jH, gK, PRB 81, 115126


--------------------------------------------------------------------------------------------------------




--------------------------------------- Iteration      1(  17)  ---------------------------------------


    POTLOK:  cpu time    1.3121: real time    1.3122
    SETDIJ:  cpu time    2.1050: real time    2.1051
    TRIAL :  cpu time  564.0392: real time  564.0952
    CORREC:  cpu time    0.0019: real time    0.0021
    CHARGE:  cpu time    1.7152: real time    1.7153
    --------------------------------------------
      LOOP:  cpu time  569.1754: real time  569.2319

 eigenvalue-minimisations  :     0
 total energy-change (2. order) :-0.2409032E-02  (-0.2243016E-02)
 number of electron     253.0000008 magnetization       6.9998467
 augmentation part       15.3387025 magnetization       4.6523085

 DIPCOR: dipole corrections for dipol
 direction  3 min pos     1,
 dipolmoment           0.000150      0.002107     -0.118733 electrons x Angstroem
 Tr[quadrupol]     -7030.528408

 energy correction for charged system         0.000000 eV
 dipol+quadrupol energy correction           -0.000403 eV
 added-field ion interaction          0.177063 eV  (added to PSCEN)


 Free energy of the ion-electron system (eV)
  ---------------------------------------------------
  alpha Z        PSCENC =       105.98623234
  Ewald energy   TEWEN  =     40771.97362670
  -Hartree energ DENC   =    -49635.99941093
  -exchange      EXHF   =       574.21472463
  -V(xc)+E(xc)   XCENC  =       647.06314986
  PAW double counting   =     27945.38400965   -28034.04146602
  entropy T*S    EENTRO =        -0.00009546
  eigenvalues    EBANDS =     -3298.36186183
  atomic energy  EATOM  =     10295.33085592
  ---------------------------------------------------
  free energy    TOTEN  =      -628.45024129 eV

  energy without entropy =     -628.45014583  energy(sigma->0) =     -628.45019356
  exchange ACFDT corr.  =        -0.00002538  see jH, gK, PRB 81, 115126


--------------------------------------------------------------------------------------------------------




--------------------------------------- Iteration      1(  18)  ---------------------------------------


    POTLOK:  cpu time    1.3114: real time    1.3116
    SETDIJ:  cpu time    2.1027: real time    2.1028
    TRIAL :  cpu time  564.2659: real time  564.3254
    CORREC:  cpu time    0.0018: real time    0.0020
    CHARGE:  cpu time    1.7137: real time    1.7138
    --------------------------------------------
      LOOP:  cpu time  569.3977: real time  569.4578

 eigenvalue-minimisations  :     0
 total energy-change (2. order) :-0.2191388E-02  (-0.2080891E-02)
 number of electron     253.0000008 magnetization       6.9998532
 augmentation part       15.3386770 magnetization       4.6540106

 DIPCOR: dipole corrections for dipol
 direction  3 min pos     1,
 dipolmoment           0.000150      0.002106     -0.118671 electrons x Angstroem
 Tr[quadrupol]     -7030.528287

 energy correction for charged system         0.000000 eV
 dipol+quadrupol energy correction           -0.000403 eV
 added-field ion interaction          0.176970 eV  (added to PSCEN)


 Free energy of the ion-electron system (eV)
  ---------------------------------------------------
  alpha Z        PSCENC =       105.98614018
  Ewald energy   TEWEN  =     40771.97362670
[...]


 VOLUME and BASIS-vectors are now :
 -----------------------------------------------------------------------------
  energy-cutoff  :      500.00
  volume of cell :     3176.88
      direct lattice vectors                 reciprocal lattice vectors
    12.895500000  0.000000000  0.000000000     0.077546431  0.000702049  0.000110599
    -0.111882970 12.358293557  0.000000000     0.000000000  0.080917320  0.001436008
    -0.025228309 -0.353768751 19.934445188     0.000000000  0.000000000  0.050164426

  length of vectors
    12.895500000 12.358800000 19.937600000     0.077549688  0.080930062  0.050164426


 FORCES acting on ions:
    Electron-Ion                     Ewald-Force                    Non-Local-Force
 -----------------------------------------------------------------------------------------------
   0.651E+01 -.478E+01 0.261E+02   -.684E+01 0.510E+01 -.262E+02   0.284E+00 -.271E+00 0.937E-01
   0.512E+01 -.130E-01 0.256E+02   -.508E+01 0.950E-02 -.257E+02   -.480E-01 -.648E-02 0.535E-01
   0.463E+01 -.250E+01 0.246E+02   -.475E+01 0.251E+01 -.246E+02   0.126E+00 -.984E-02 -.764E-01
   0.803E+01 0.242E+01 0.234E+02   -.825E+01 -.240E+01 -.233E+02   0.173E+00 -.516E-01 -.839E-01
   0.927E+01 0.127E+02 0.193E+02   -.937E+01 -.125E+02 -.194E+02   0.141E-01 -.213E+00 0.492E-01
   0.953E+01 0.106E+02 0.328E+02   -.956E+01 -.109E+02 -.329E+02   0.110E-01 0.381E+00 0.121E+00
   0.505E+01 0.962E+01 0.236E+02   -.494E+01 -.982E+01 -.235E+02   -.897E-02 0.130E+00 -.744E-01
   0.180E+02 0.287E+02 0.203E+02   -.181E+02 -.288E+02 -.207E+02   0.112E+00 0.328E-01 0.412E+00
   0.357E+02 0.533E+02 0.387E+02   -.371E+02 -.558E+02 -.398E+02   0.144E+01 0.275E+01 0.110E+01
   0.176E+02 0.275E+01 0.315E+02   -.180E+02 -.277E+01 -.313E+02   0.258E+00 -.153E-02 -.150E+00
   0.212E+02 0.148E+02 0.387E+02   -.215E+02 -.152E+02 -.388E+02   0.240E+00 0.260E+00 0.134E+00
   0.324E+02 -.396E+02 0.194E+02   -.340E+02 0.421E+02 -.198E+02   0.140E+01 -.250E+01 0.396E+00
   0.117E+02 -.523E+01 0.360E+02   -.117E+02 0.558E+01 -.360E+02   0.700E-01 -.235E+00 0.383E-01
   0.248E+02 -.108E+02 0.345E+02   -.247E+02 0.111E+02 -.345E+02   0.135E+00 -.312E+00 0.690E-01
   0.476E+02 -.107E+02 0.191E+02   -.509E+02 0.105E+02 -.197E+02   0.333E+01 0.282E+00 0.706E+00
   0.198E+02 -.177E+02 0.326E+02   -.203E+02 0.176E+02 -.327E+02   0.463E+00 0.424E-01 0.164E+00
   0.598E+01 -.633E+01 0.311E+02   -.607E+01 0.644E+01 -.311E+02   0.899E-02 -.943E-01 0.764E-01
   0.100E+02 -.111E+02 0.340E+02   -.104E+02 0.111E+02 -.340E+02   0.340E+00 -.644E-01 0.873E-02
   0.107E+02 -.175E+02 0.275E+02   -.110E+02 0.177E+02 -.274E+02   0.243E+00 -.262E+00 -.161E+00
   -.728E+01 -.105E+01 0.233E+02   0.749E+01 0.106E+01 -.232E+02   -.175E+00 0.344E-01 -.827E-01
   0.260E+01 0.861E+01 0.323E+02   -.286E+01 -.877E+01 -.324E+02   0.274E+00 0.152E+00 0.118E+00
   -.326E+01 -.686E+01 0.324E+02   0.352E+01 0.708E+01 -.325E+02   -.258E+00 -.203E+00 0.126E+00
   -.641E+01 0.569E+01 0.257E+02   0.672E+01 -.598E+01 -.258E+02   -.268E+00 0.251E+00 0.925E-01
   -.116E+02 0.194E+02 0.271E+02   0.118E+02 -.196E+02 -.269E+02   -.205E+00 0.243E+00 -.175E+00
   0.275E+02 0.581E+02 0.366E+02   -.292E+02 -.606E+02 -.377E+02   0.182E+01 0.270E+01 0.117E+01
   0.513E+00 0.237E+02 0.361E+02   -.582E+00 -.241E+02 -.362E+02   0.114E+00 0.300E+00 0.184E+00
   -.214E+02 0.168E+02 0.325E+02   0.219E+02 -.167E+02 -.326E+02   -.428E+00 -.492E-01 0.171E+00
   -.530E+02 0.923E+01 0.182E+02   0.562E+02 -.916E+01 -.187E+02   -.308E+01 -.179E+00 0.497E+00
   -.310E+02 0.342E+02 0.176E+02   0.326E+02 -.370E+02 -.182E+02   -.144E+01 0.281E+01 0.639E+00
   -.302E+02 -.509E+02 0.352E+02   0.317E+02 0.536E+02 -.364E+02   -.155E+01 -.285E+01 0.112E+01
   -.161E+02 -.252E+02 0.183E+02   0.162E+02 0.253E+02 -.188E+02   -.125E+00 -.115E+00 0.475E+00
   -.135E+01 -.209E+02 0.361E+02   0.137E+01 0.214E+02 -.363E+02   -.497E-01 -.415E+00 0.174E+00
   -.284E+02 -.523E+02 0.346E+02   0.300E+02 0.550E+02 -.357E+02   -.179E+01 -.282E+01 0.110E+01
   -.789E+01 -.950E+01 0.189E+02   0.802E+01 0.941E+01 -.190E+02   -.359E-01 0.113E+00 0.619E-01
   0.113E+01 -.232E+01 0.278E+02   -.110E+01 0.240E+01 -.278E+02   -.318E-01 -.207E-01 0.283E-01
   -.505E+01 0.314E+01 0.242E+02   0.517E+01 -.313E+01 -.241E+02   -.112E+00 -.109E-01 -.802E-01
   -.491E+01 0.606E+00 0.256E+02   0.489E+01 -.574E+00 -.257E+02   0.146E-01 -.525E-02 0.587E-01
   -.846E+00 0.267E+01 0.276E+02   0.858E+00 -.274E+01 -.277E+02   -.546E-02 0.152E-01 0.285E-01
   -.127E+01 0.455E+01 0.297E+02   0.120E+01 -.461E+01 -.297E+02   -.113E-01 0.770E-01 0.182E-01
   -.104E+02 0.108E+02 0.330E+02   0.108E+02 -.107E+02 -.330E+02   -.329E+00 0.545E-01 0.495E-02
   -.613E+01 0.664E+01 0.303E+02   0.623E+01 -.672E+01 -.304E+02   -.251E-01 0.726E-01 0.763E-01
   0.766E+00 0.623E+01 0.325E+02   -.770E+00 -.634E+01 -.326E+02   0.297E-01 0.102E+00 0.380E-01
   -.184E+01 0.569E+01 0.338E+02   0.188E+01 -.566E+01 -.338E+02   -.263E-01 -.499E-02 0.344E-01
   -.245E+02 0.888E+01 0.328E+02   0.245E+02 -.926E+01 -.328E+02   -.168E+00 0.332E+00 0.739E-01
   -.114E+02 0.449E+01 0.347E+02   0.115E+02 -.484E+01 -.348E+02   -.105E+00 0.241E+00 0.297E-01
   0.489E+01 0.280E+00 0.322E+02   -.494E+01 -.302E+00 -.322E+02   0.147E+00 -.496E-01 0.250E-01
   -.383E+01 -.731E+00 0.320E+02   0.390E+01 0.725E+00 -.320E+02   -.177E+00 0.759E-01 0.208E-01
   -.189E+02 -.144E+02 0.379E+02   0.193E+02 0.148E+02 -.380E+02   -.375E+00 -.249E+00 0.132E+00
   -.161E+02 -.305E+01 0.303E+02   0.165E+02 0.303E+01 -.301E+02   -.271E+00 0.303E-01 -.156E+00
   0.237E+01 -.597E+01 0.344E+02   -.238E+01 0.595E+01 -.345E+02   0.148E-01 -.605E-02 0.368E-01
   -.350E+00 -.617E+01 0.329E+02   0.379E+00 0.629E+01 -.330E+02   -.560E-01 -.116E+00 0.386E-01
   -.466E+01 -.828E+01 0.233E+02   0.456E+01 0.848E+01 -.233E+02   0.232E-02 -.129E+00 -.784E-01
   -.814E+01 -.103E+02 0.329E+02   0.822E+01 0.106E+02 -.330E+02   -.589E-01 -.377E+00 0.136E+00
   0.150E+01 -.418E+01 0.303E+02   -.141E+01 0.425E+01 -.303E+02   -.295E-02 -.803E-01 0.203E-01
   -.130E+01 -.146E+02 0.219E+02   0.247E+02 0.159E+02 -.190E+02   -.220E+02 -.138E+01 -.298E+01
   -.124E+02 -.697E+01 0.139E+02   0.155E+01 0.276E+02 -.108E+02   0.101E+02 -.196E+02 -.332E+01
   0.791E+01 0.634E+01 0.584E+01   -.302E+02 -.770E+01 -.279E+01   0.210E+02 0.144E+01 -.314E+01
   0.436E+00 0.116E+02 0.649E+01   0.984E+01 -.317E+02 -.353E+01   -.966E+01 0.191E+02 -.307E+01
   0.780E+02 0.130E+03 -.867E+03   -.761E+02 -.127E+03 0.862E+03   -.279E+01 -.496E+01 0.519E+01
   -.805E+02 -.142E+03 -.769E+03   0.786E+02 0.139E+03 0.765E+03   0.270E+01 0.503E+01 0.447E+01
 -----------------------------------------------------------------------------------------------
   0.692E+00 0.431E+00 -.611E+01   0.497E-12 -.853E-13 0.227E-12   -.789E+00 -.604E+00 0.620E+01
 
 
 POSITION                                       TOTAL-FORCE (eV/Angst)
 -----------------------------------------------------------------------------------
      2.83579     -0.14099      9.87810        -0.030109      0.029463      0.007862
      0.69100      1.08434      9.83068        -0.001859     -0.014537      0.005528
      1.40449     -0.15057      9.84131         0.008842     -0.000782      0.003064
      3.55382      1.09730      9.90702        -0.029488     -0.036109      0.002625
      2.84765      2.35483      9.94625        -0.094831     -0.022921      0.013233
      0.67178      3.55099      9.85532        -0.020589      0.094516      0.024071
      1.40888      2.32596      9.87495         0.097891     -0.060684      0.004211
      3.56321      3.60387     10.06991        -0.026503     -0.073041      0.020404
      2.78667      4.84793     10.08800         0.133433      0.396201      0.053047
      0.62697      6.02539      9.89679        -0.099340     -0.023273      0.007718
      1.36338      4.79705      9.91979        -0.045475     -0.083366      0.021315
      2.73436      7.25763     10.13730        -0.161868     -0.116435      0.020089
      0.59548      8.50114      9.85773        -0.011133      0.101952      0.017825
      1.32469      7.27233      9.94046         0.193572      0.033511      0.066202
      3.44774      8.52348     10.13869         0.151711      0.086015      0.079952
      2.72177      9.73697      9.95007        -0.016308     -0.059901      0.044581
      0.57922     10.97044      9.82104        -0.076915      0.009531      0.014172
      1.29627      9.73633      9.86175        -0.017617     -0.076612      0.022789
      3.43828     10.97674      9.92286         0.055414     -0.042269      0.012350
      7.02262     12.15937      9.90579         0.019991      0.043456      0.004615
      4.98407      1.07052      9.90418         0.027593      0.005724      0.025046
      5.70292     -0.17104      9.90196        -0.019393     -0.004576      0.027505
      7.85213      1.03952      9.88089         0.024198     -0.025378      0.005814
      7.13685      2.28026      9.92932        -0.073084      0.023200      0.006547
      5.02655      3.55276     10.10641         0.266234      0.343178      0.076082
      5.70835      2.29819      9.95370         0.051451     -0.078265      0.019898
      7.85224      3.51756      9.95727         0.007021      0.094149      0.048720
      7.12179      4.73122     10.15105        -0.118952     -0.135485      0.044454
      7.84069      5.99360     10.14341         0.122185      0.130114      0.070987
      7.78927      8.41313     10.08608        -0.100616     -0.387938      0.050774
      7.01086      9.65248     10.06333         0.027476      0.064670      0.030464
      4.86682     10.96062      9.94667        -0.032837      0.034218      0.022161
      5.55037      9.70576     10.09529        -0.258764     -0.299909      0.050559
      7.72892     10.90543      9.94244         0.099358      0.024635      0.016463
     11.43247     -0.17023      9.80353        -0.003761      0.050478      0.010673
      9.28195      1.04914      9.84414         0.001578     -0.008127      0.000375
      9.88452     12.17259      9.83025        -0.005562      0.030138      0.006731
     12.15022      1.06884      9.80470         0.002907     -0.049522      0.008982
     11.42504      2.29906      9.80676        -0.077482      0.018227      0.011007
      9.27741      3.51984      9.86902         0.033470      0.068900      0.013965
      9.99566      2.28664      9.82615         0.072913     -0.008376      0.010984
     12.13488      3.53931      9.81730         0.025843     -0.000528      0.012708
     11.40512      4.76899      9.82855         0.013969      0.025945      0.016270
      9.24765      5.98281      9.94716        -0.159635     -0.029881      0.062412
      9.97873      4.75474      9.86453        -0.005040     -0.100014      0.015777
     12.10158      6.01258      9.84487         0.103655     -0.077701      0.011742
     11.36728      7.24376      9.84470        -0.117146      0.076225      0.008356
      9.21222      8.46038      9.91871         0.007447      0.084054      0.021932
      9.94609      7.23101      9.89937         0.110044      0.004631      0.002759
     12.06366      8.48734      9.82442        -0.001473     -0.029817      0.016264
     11.33498      9.71759      9.81348        -0.028205     -0.000794      0.013060
      9.16568     10.93149      9.87286        -0.097376      0.067651      0.002536
      9.90348      9.70570      9.85243         0.022030     -0.085921      0.020924
     12.04517     10.95782      9.80286         0.081454     -0.016664      0.012037
      3.39543      6.06030     10.31116        -0.582618     -0.292918     -0.321533
      5.76091      4.69056     10.33360         0.147348     -0.708143     -0.437581
      7.18328      7.19827     10.32222         0.621329      0.204184     -0.357839
      4.81379      8.56661     10.32003        -0.225858      0.688532     -0.382870
      4.76584      5.71516     11.69488        -0.440754     -0.644983      0.064324
      5.79429      7.52180     11.70000         0.450233      0.761374      0.214881
 -----------------------------------------------------------------------------------
    total drift:                               -0.004216      0.029374     -0.002783


--------------------------------------------------------------------------------------------------------



  FREE ENERGIE OF THE ION-ELECTRON SYSTEM (eV)
  ---------------------------------------------------
  free  energy   TOTEN  =      -628.61692111 eV

  energy  without entropy=     -628.61688237  energy(sigma->0) =     -628.61690174
 


--------------------------------------------------------------------------------------------------------


    POTLOK:  cpu time    3.3793: real time    3.3795


--------------------------------------------------------------------------------------------------------


 stress matrix after NEB project (eV)
    -45.67389     -0.96285      0.02407
     -0.96313    -42.88099      0.17097
      0.02453      0.17155     -0.43493
  FORCES: max atom, RMS     0.910260    0.291676
  FORCE total and by dimension    2.259314    0.761374
  Stress total and by dimension   62.665679   45.673889
 writing wavefunctions
     LOOP+:  cpu time**********: real time**********
    4ORBIT:  cpu time    0.0000: real time    0.0000
 


 total charge     
 
# of ion       s       p       d       tot
------------------------------------------
    1        0.864   1.763   0.000   2.626
    2        0.864   1.757   0.000   2.621
    3        0.864   1.772   0.000   2.636
    4        0.862   1.757   0.000   2.619
    5        0.859   1.733   0.000   2.592
    6        0.865   1.764   0.000   2.629
    7        0.861   1.761   0.000   2.621
    8        0.845   1.741   0.000   2.586
    9        0.856   1.702   0.000   2.558
   10        0.867   1.766   0.000   2.633
   11        0.866   1.771   0.000   2.636
   12        0.856   1.731   0.000   2.587
   13        0.866   1.776   0.000   2.641
   14        0.867   1.773   0.000   2.640
   15        0.856   1.729   0.000   2.585
   16        0.866   1.772   0.000   2.638
   17        0.866   1.767   0.000   2.632
   18        0.866   1.778   0.000   2.644
   19        0.866   1.757   0.000   2.624
   20        0.862   1.758   0.000   2.620
   21        0.865   1.763   0.000   2.628
   22        0.865   1.764   0.000   2.628
   23        0.864   1.764   0.000   2.628
   24        0.867   1.758   0.000   2.625
   25        0.857   1.705   0.000   2.562
   26        0.866   1.772   0.000   2.638
   27        0.866   1.772   0.000   2.638
   28        0.857   1.729   0.000   2.586
   29        0.855   1.731   0.000   2.586
   30        0.856   1.703   0.000   2.559
   31        0.846   1.741   0.000   2.587
   32        0.866   1.772   0.000   2.638
   33        0.857   1.706   0.000   2.563
   34        0.858   1.735   0.000   2.594
   35        0.864   1.762   0.000   2.626
   36        0.865   1.771   0.000   2.636
   37        0.864   1.758   0.000   2.622
   38        0.864   1.762   0.000   2.626
   39        0.866   1.768   0.000   2.634
   40        0.866   1.777   0.000   2.644
   41        0.865   1.768   0.000   2.633
   42        0.865   1.765   0.000   2.630
   43        0.867   1.767   0.000   2.634
   44        0.867   1.773   0.000   2.640
   45        0.865   1.777   0.000   2.642
   46        0.865   1.777   0.000   2.642
   47        0.865   1.775   0.000   2.641
   48        0.866   1.771   0.000   2.637
   49        0.867   1.766   0.000   2.633
   50        0.867   1.767   0.000   2.634
   51        0.865   1.765   0.000   2.630
   52        0.861   1.760   0.000   2.621
   53        0.865   1.765   0.000   2.630
   54        0.865   1.769   0.000   2.634
   55        1.232   2.676   0.000   3.908
   56        1.235   2.675   0.000   3.910
   57        1.232   2.680   0.000   3.912
   58        1.235   2.679   0.000   3.914
   59        0.448   0.368   7.291   8.107
   60        0.479   0.396   6.135   7.009
--------------------------------------------------
tot         52.453 106.379  13.426 172.258
 


 magnetization (x)
 
# of ion       s       p       d       tot
------------------------------------------
    1        0.000   0.002   0.000   0.002
    2        0.000   0.001   0.000   0.001
    3       -0.000  -0.001   0.000  -0.001
    4       -0.000  -0.000   0.000  -0.000
    5       -0.000   0.001   0.000   0.000
    6        0.000   0.002   0.000   0.003
    7       -0.000  -0.000   0.000  -0.000
    8        0.001   0.008   0.000   0.010
    9       -0.000  -0.001   0.000  -0.001
   10        0.000   0.002   0.000   0.002
   11        0.000  -0.000   0.000  -0.000
   12        0.001   0.004   0.000   0.005
   13        0.000   0.003   0.000   0.003
   14        0.000  -0.001   0.000  -0.001
   15        0.000  -0.001   0.000  -0.000
   16        0.001   0.003   0.000   0.003
   17        0.000   0.003   0.000   0.003
   18       -0.000  -0.001   0.000  -0.002
   19       -0.000  -0.004   0.000  -0.004
   20        0.000   0.004   0.000   0.004
   21        0.000   0.002   0.000   0.002
   22       -0.000  -0.002   0.000  -0.002
   23       -0.000  -0.003   0.000  -0.003
   24        0.000   0.001   0.000   0.001
   25       -0.000  -0.001   0.000  -0.001
   26        0.000  -0.000   0.000   0.000
   27        0.000  -0.000   0.000   0.000
   28        0.000   0.004   0.000   0.004
   29        0.000  -0.000   0.000   0.000
   30       -0.000  -0.005   0.000  -0.005
   31        0.002   0.016   0.000   0.017
   32        0.001   0.005   0.000   0.005
   33       -0.000  -0.004   0.000  -0.004
   34       -0.001  -0.006   0.000  -0.006
   35        0.000   0.003   0.000   0.003
   36        0.000   0.005   0.000   0.006
   37       -0.000  -0.003   0.000  -0.003
   38       -0.000  -0.002   0.000  -0.002
   39        0.000   0.003   0.000   0.004
   40        0.000   0.003   0.000   0.004
   41       -0.000  -0.002   0.000  -0.003
   42       -0.000  -0.002   0.000  -0.002
   43        0.000   0.002   0.000   0.003
   44        0.001   0.003   0.000   0.003
   45       -0.000  -0.002   0.000  -0.002
   46       -0.000  -0.002   0.000  -0.002
   47        0.000   0.004   0.000   0.005
   48        0.001   0.005   0.000   0.006
   49       -0.000  -0.003   0.000  -0.004
   50       -0.000  -0.002   0.000  -0.002
   51        0.000   0.003   0.000   0.003
   52        0.001   0.008   0.000   0.008
   53       -0.000  -0.003   0.000  -0.004
   54       -0.000  -0.002   0.000  -0.002
   55        0.010   0.040   0.000   0.050
   56        0.010   0.040   0.000   0.050
   57        0.011   0.055   0.000   0.066
   58        0.011   0.046   0.000   0.057
   59        0.037   0.055   2.238   2.330
   60        0.066   0.075   3.381   3.522
--------------------------------------------------
tot          0.155   0.357   5.619   6.131
 

 total amount of memory used by VASP MPI-rank0   180989. kBytes
=======================================================================

   base      :      30000. kBytes
   nonl-proj :       5400. kBytes
   fftplans  :      13453. kBytes
   grid      :      34560. kBytes
   one-center:         62. kBytes
   HF        :         23. kBytes
   nonlr-proj:      17646. kBytes
   wavefun   :      79845. kBytes
 
  
  
 General timing and accounting informations for this job:
 ========================================================
  
                  Total CPU time used (sec):   102643.359
                            User time (sec):   102557.992
                          System time (sec):       85.369
                         Elapsed time (sec):   102669.010
  
                   Maximum memory used (kb):      427092.
                   Average memory used (kb):           0.
  
                          Minor page faults:       921820
                          Major page faults:            0
                 Voluntary context switches:         1859
