 vasp.5.4.4.18Apr17-6-g9f103f2a35 (build Feb 25 2019 10:51:38) complex          
  
 executed on             LinuxIFC date 2021.06.16  07:44:31
 running on   48 total cores
 distrk:  each k-point on   24 cores,    2 groups
 distr:  one band on NCORES_PER_BAND=  24 cores,    1 groups


--------------------------------------------------------------------------------------------------------


 INCAR:
 POTCAR:    PAW_PBE C 08Apr2002                   
 POTCAR:    PAW_PBE N 08Apr2002                   
 POTCAR:    PAW_PBE Fe 06Sep2000                  
 POTCAR:    PAW_PBE Mn 06Sep2000                  

 ----------------------------------------------------------------------------- 
|                                                                             |
|           W    W    AA    RRRRR   N    N  II  N    N   GGGG   !!!           |
|           W    W   A  A   R    R  NN   N  II  NN   N  G    G  !!!           |
|           W    W  A    A  R    R  N N  N  II  N N  N  G       !!!           |
|           W WW W  AAAAAA  RRRRR   N  N N  II  N  N N  G  GGG   !            |
|           WW  WW  A    A  R   R   N   NN  II  N   NN  G    G                |
|           W    W  A    A  R    R  N    N  II  N    N   GGGG   !!!           |
|                                                                             |
|      For optimal performance we recommend to set                            |
|        NCORE= 4 - approx SQRT( number of cores)                             |
|      NCORE specifies how many cores store one orbital (NPAR=cpu/NCORE).     |
|      This setting can  greatly improve the performance of VASP for DFT.     |
|      The default,   NCORE=1            might be grossly inefficient         |
|      on modern multi-core architectures or massively parallel machines.     |
|      Do your own testing !!!!                                               |
|      Unfortunately you need to use the default for GW and RPA calculations. |
|      (for HF NCORE is supported but not extensively tested yet)             |
|                                                                             |
 ----------------------------------------------------------------------------- 


 ----------------------------------------------------------------------------- 
|                                                                             |
|           W    W    AA    RRRRR   N    N  II  N    N   GGGG   !!!           |
|           W    W   A  A   R    R  NN   N  II  NN   N  G    G  !!!           |
|           W    W  A    A  R    R  N N  N  II  N N  N  G       !!!           |
|           W WW W  AAAAAA  RRRRR   N  N N  II  N  N N  G  GGG   !            |
|           WW  WW  A    A  R   R   N   NN  II  N   NN  G    G                |
|           W    W  A    A  R    R  N    N  II  N    N   GGGG   !!!           |
|                                                                             |
|      You have enabled k-point parallelism (KPAR>1).                         |
|      This developmental code was originally  written by Paul Kent at ORNL,  |
|      and carefully double checked in Vienna.                                |
|      GW as well as linear response parallelism added by Martijn Marsman     |
|      and Georg Kresse.                                                      |
|      Carefully verify results versus KPAR=1.                                |
|      Report problems to Paul Kent and Vienna.                               |
|                                                                             |
 ----------------------------------------------------------------------------- 

 POTCAR:    PAW_PBE C 08Apr2002                   
   VRHFIN =C: s2p2                                                              
   LEXCH  = PE                                                                  
   EATOM  =   147.1560 eV,   10.8157 Ry                                         
                                                                                
   TITEL  = PAW_PBE C 08Apr2002                                                 
   LULTRA =        F    use ultrasoft PP ?                                      
   IUNSCR =        1    unscreen: 0-lin 1-nonlin 2-no                           
   RPACOR =    1.200    partial core radius                                     
   POMASS =   12.011; ZVAL   =    4.000    mass and valenz                      
   RCORE  =    1.500    outmost cutoff radius                                   
   RWIGS  =    1.630; RWIGS  =    0.863    wigner-seitz radius (au A)           
   ENMAX  =  400.000; ENMIN  =  300.000 eV                                      
   ICORE  =        2    local potential                                         
   LCOR   =        T    correct aug charges                                     
   LPAW   =        T    paw PP                                                  
   EAUG   =  644.873                                                            
   DEXC   =    0.000                                                            
   RMAX   =    1.529    core radius for proj-oper                               
   RAUG   =    1.300    factor for augmentation sphere                          
   RDEP   =    1.501    radius for radial grids                                 
   RDEPT  =    1.300    core radius for aug-charge                              
                                                                                
   Atomic configuration                                                         
    4 entries                                                                   
     n  l   j            E        occ.                                          
     1  0  0.50      -273.3789   2.0000                                         
     2  0  0.50       -13.7508   2.0000                                         
     2  1  0.50        -5.2854   2.0000                                         
     3  2  1.50        -5.4423   0.0000                                         
   Description                                                                  
     l       E           TYP  RCUT    TYP  RCUT                                 
     0    -13.7508458     23  1.200                                             
     0     -8.2022199     23  1.200                                             
     1     -5.2854383     23  1.500                                             
     1     34.0145650     23  1.500                                             
     2     -5.4423304      7  1.500                                             
  local pseudopotential read in
  partial core-charges read in
  partial kinetic energy density read in
  atomic valenz-charges read in
  non local Contribution for L=           0  read in
    real space projection operators read in
  non local Contribution for L=           0  read in
    real space projection operators read in
  non local Contribution for L=           1  read in
    real space projection operators read in
  non local Contribution for L=           1  read in
    real space projection operators read in
    PAW grid and wavefunctions read in
 
   number of l-projection  operators is LMAX  =           4
   number of lm-projection operators is LMMAX =           8
 
 POTCAR:    PAW_PBE N 08Apr2002                   
   VRHFIN =N: s2p3                                                              
   LEXCH  = PE                                                                  
   EATOM  =   264.5486 eV,   19.4438 Ry                                         
                                                                                
   TITEL  = PAW_PBE N 08Apr2002                                                 
   LULTRA =        F    use ultrasoft PP ?                                      
   IUNSCR =        1    unscreen: 0-lin 1-nonlin 2-no                           
   RPACOR =    1.200    partial core radius                                     
   POMASS =   14.001; ZVAL   =    5.000    mass and valenz                      
   RCORE  =    1.500    outmost cutoff radius                                   
   RWIGS  =    1.400; RWIGS  =    0.741    wigner-seitz radius (au A)           
   ENMAX  =  400.000; ENMIN  =  300.000 eV                                      
   ICORE  =        2    local potential                                         
   LCOR   =        T    correct aug charges                                     
   LPAW   =        T    paw PP                                                  
   EAUG   =  627.112                                                            
   DEXC   =    0.000                                                            
   RMAX   =    1.529    core radius for proj-oper                               
   RAUG   =    1.300    factor for augmentation sphere                          
   RDEP   =    1.514    radius for radial grids                                 
   RDEPT  =    1.338    core radius for aug-charge                              
                                                                                
   Atomic configuration                                                         
    4 entries                                                                   
     n  l   j            E        occ.                                          
     1  0  0.50      -384.7179   2.0000                                         
     2  0  0.50       -18.5828   2.0000                                         
     2  1  0.50        -7.0898   3.0000                                         
     3  2  1.50        -6.8029   0.0000                                         
   Description                                                                  
     l       E           TYP  RCUT    TYP  RCUT                                 
     0    -18.5828119     23  1.200                                             
     0    -13.5018863     23  1.200                                             
     1     -7.0897853     23  1.500                                             
     1      9.5240782     23  1.500                                             
     2     -6.8029130      7  1.500                                             
  local pseudopotential read in
  partial core-charges read in
  partial kinetic energy density read in
  atomic valenz-charges read in
  non local Contribution for L=           0  read in
    real space projection operators read in
  non local Contribution for L=           0  read in
    real space projection operators read in
  non local Contribution for L=           1  read in
    real space projection operators read in
  non local Contribution for L=           1  read in
    real space projection operators read in
    PAW grid and wavefunctions read in
 
   number of l-projection  operators is LMAX  =           4
   number of lm-projection operators is LMMAX =           8
 
 POTCAR:    PAW_PBE Fe 06Sep2000                  
   VRHFIN =Fe:  d7 s1                                                           
   LEXCH  = PE                                                                  
   EATOM  =   594.3153 eV,   43.6809 Ry                                         
                                                                                
   TITEL  = PAW_PBE Fe 06Sep2000                                                
   LULTRA =        F    use ultrasoft PP ?                                      
   IUNSCR =        1    unscreen: 0-lin 1-nonlin 2-no                           
   RPACOR =    2.000    partial core radius                                     
   POMASS =   55.847; ZVAL   =    8.000    mass and valenz                      
   RCORE  =    2.300    outmost cutoff radius                                   
   RWIGS  =    2.460; RWIGS  =    1.302    wigner-seitz radius (au A)           
   ENMAX  =  267.882; ENMIN  =  200.911 eV                                      
   RCLOC  =    1.701    cutoff for local pot                                    
   LCOR   =        T    correct aug charges                                     
   LPAW   =        T    paw PP                                                  
   EAUG   =  511.368                                                            
   DEXC   =    0.000                                                            
   RMAX   =    2.356    core radius for proj-oper                               
   RAUG   =    1.300    factor for augmentation sphere                          
   RDEP   =    2.442    radius for radial grids                                 
   RDEPT  =    1.890    core radius for aug-charge                              
                                                                                
   Atomic configuration                                                         
    9 entries                                                                   
     n  l   j            E        occ.                                          
     1  0  0.50     -6993.8440   2.0000                                         
     2  0  0.50      -814.6047   2.0000                                         
     2  1  1.50      -693.3689   6.0000                                         
     3  0  0.50       -89.4732   2.0000                                         
     3  1  1.50       -55.6373   6.0000                                         
     3  2  2.50        -3.8151   7.0000                                         
     4  0  0.50        -4.2551   1.0000                                         
     4  1  1.50        -3.4015   0.0000                                         
     4  3  2.50        -1.3606   0.0000                                         
   Description                                                                  
     l       E           TYP  RCUT    TYP  RCUT                                 
     2     -3.8151135     23  2.300                                             
     2     -5.1756961     23  2.300                                             
     0     -4.2550963     23  2.300                                             
     0      7.2035603     23  2.300                                             
     1     -2.7211652     23  2.300                                             
     1     18.4316424     23  2.300                                             
  local pseudopotential read in
  partial core-charges read in
  partial kinetic energy density read in
  atomic valenz-charges read in
  non local Contribution for L=           2  read in
    real space projection operators read in
  non local Contribution for L=           2  read in
    real space projection operators read in
  non local Contribution for L=           0  read in
    real space projection operators read in
  non local Contribution for L=           0  read in
    real space projection operators read in
  non local Contribution for L=           1  read in
    real space projection operators read in
  non local Contribution for L=           1  read in
    real space projection operators read in
    PAW grid and wavefunctions read in
 
   number of l-projection  operators is LMAX  =           6
   number of lm-projection operators is LMMAX =          18
 
 POTCAR:    PAW_PBE Mn 06Sep2000                  
   VRHFIN =Mn: d6 s1                                                            
   LEXCH  = PE                                                                  
   EATOM  =   416.7541 eV,   30.6306 Ry                                         
                                                                                
   TITEL  = PAW_PBE Mn 06Sep2000                                                
   LULTRA =        F    use ultrasoft PP ?                                      
   IUNSCR =        1    unscreen: 0-lin 1-nonlin 2-no                           
   RPACOR =    2.000    partial core radius                                     
   POMASS =   54.938; ZVAL   =    7.000    mass and valenz                      
   RCORE  =    2.300    outmost cutoff radius                                   
   RWIGS  =    2.500; RWIGS  =    1.323    wigner-seitz radius (au A)           
   ENMAX  =  269.864; ENMIN  =  202.398 eV                                      
   RCLOC  =    1.725    cutoff for local pot                                    
   LCOR   =        T    correct aug charges                                     
   LPAW   =        T    paw PP                                                  
   EAUG   =  500.711                                                            
   DEXC   =    0.000                                                            
   RMAX   =    2.343    core radius for proj-oper                               
   RAUG   =    1.300    factor for augmentation sphere                          
   RDEP   =    2.338    radius for radial grids                                 
   RDEPT  =    1.911    core radius for aug-charge                              
                                                                                
   Atomic configuration                                                         
    9 entries                                                                   
     n  l   j            E        occ.                                          
     1  0  0.50     -6424.8288   2.0000                                         
     2  0  0.50      -739.1154   2.0000                                         
     2  1  1.50      -625.3949   6.0000                                         
     3  0  0.50       -81.6100   2.0000                                         
     3  1  1.50       -50.4667   6.0000                                         
     3  2  2.50        -3.3745   6.0000                                         
     4  0  0.50        -4.1331   1.0000                                         
     4  1  0.50        -4.0817   0.0000                                         
     4  3  2.50        -1.3606   0.0000                                         
   Description                                                                  
     l       E           TYP  RCUT    TYP  RCUT                                 
     2     -3.3744664     23  2.300                                             
     2     -4.7350490     23  2.300                                             
     0     -4.1331408     23  2.300                                             
     0      7.6656614     23  2.300                                             
     1     -2.7211652     23  2.300                                             
     1     20.4087390     23  2.300                                             
  local pseudopotential read in
  partial core-charges read in
  partial kinetic energy density read in
  atomic valenz-charges read in
  non local Contribution for L=           2  read in
    real space projection operators read in
  non local Contribution for L=           2  read in
    real space projection operators read in
  non local Contribution for L=           0  read in
    real space projection operators read in
  non local Contribution for L=           0  read in
    real space projection operators read in
  non local Contribution for L=           1  read in
    real space projection operators read in
  non local Contribution for L=           1  read in
    real space projection operators read in
    PAW grid and wavefunctions read in
 
   number of l-projection  operators is LMAX  =           6
   number of lm-projection operators is LMMAX =          18
 

 ----------------------------------------------------------------------------- 
|                                                                             |
|  ADVICE TO THIS USER RUNNING 'VASP/VAMP'   (HEAR YOUR MASTER'S VOICE ...):  |
|                                                                             |
|      You have a (more or less) 'large supercell' and for larger cells       |
|      it might be more efficient to use real space projection opertators     |
|      So try LREAL= Auto  in the INCAR   file.                               |
|      Mind:          For very  accurate calculation you might also keep the  |
|      reciprocal projection scheme          (i.e. LREAL=.FALSE.)             |
|                                                                             |
 ----------------------------------------------------------------------------- 

  PAW_PBE C 08Apr2002                   :
 energy of atom  1       EATOM= -147.1560
 kinetic energy error for atom=    0.0076 (will be added to EATOM!!)
  PAW_PBE N 08Apr2002                   :
 energy of atom  2       EATOM= -264.5486
 kinetic energy error for atom=    0.0138 (will be added to EATOM!!)
  PAW_PBE Fe 06Sep2000                  :
 energy of atom  3       EATOM= -594.3153
 kinetic energy error for atom=    0.0026 (will be added to EATOM!!)
  PAW_PBE Mn 06Sep2000                  :
 energy of atom  4       EATOM= -416.7541
 kinetic energy error for atom=    0.0024 (will be added to EATOM!!)
 
 
 POSCAR:  C  N Fe Mn                             
  positions in cartesian coordinates
  No initial velocities read in
 exchange correlation table for  LEXCH =        8
   RHO(1)=    0.500       N(1)  =     2000
   RHO(2)=  100.500       N(2)  =     4000

 VTST: version 3.2, (02/03/18)

 CHAIN: initializing optimizer
 
 OPT: Using VASP Conjugate-Gradient optimizer
 CHAIN: Read ICHAIN            0
 
 POSCAR:  C  N Fe Mn                             
  positions in cartesian coordinates
  No initial velocities read in
 


--------------------------------------------------------------------------------------------------------


 ion  position               nearest neighbor table
   1  0.222  0.002  0.498-   3 1.43  19 1.43   4 1.44
   2  0.058  0.102  0.497-  36 1.43   3 1.43   7 1.44
   3  0.111  0.002  0.497-   1 1.43   2 1.43  17 1.43
   4  0.278  0.104  0.500-  21 1.42   5 1.44   1 1.44
   5  0.225  0.205  0.503-   7 1.43   4 1.44   8 1.45
   6  0.058  0.303  0.499-  40 1.43  11 1.43   7 1.43
   7  0.113  0.203  0.500-   5 1.43   6 1.43   2 1.44
   8  0.282  0.307  0.509-  25 1.44   5 1.45   9 1.47
   9  0.223  0.408  0.510-  53 1.39  11 1.44   8 1.47
  10  0.054  0.504  0.501-  14 1.43  44 1.44  11 1.44
  11  0.112  0.404  0.502-   6 1.43   9 1.44  10 1.44
  12  0.222  0.603  0.506-  53 1.39  14 1.43  15 1.44
  13  0.053  0.702  0.498-  14 1.43  18 1.43  48 1.44
  14  0.110  0.604  0.501-  13 1.43  10 1.43  12 1.43
  15  0.281  0.703  0.501-  56 1.41  16 1.44  12 1.44
  16  0.223  0.801  0.498-  18 1.44  15 1.44  19 1.44
  17  0.055  0.901  0.496-  52 1.43   3 1.43  18 1.44
  18  0.110  0.801  0.497-  13 1.43  17 1.44  16 1.44
  19  0.277  0.903  0.497-   1 1.43  30 1.43  16 1.44
  20  0.555  0.001  0.494-  23 1.42  32 1.42  22 1.42
  21  0.389  0.101  0.499-   4 1.42  26 1.42  22 1.43
  22  0.444  0.002  0.496-  20 1.42  30 1.43  21 1.43
  23  0.612  0.099  0.495-  24 1.41  20 1.42  34 1.43
  24  0.557  0.197  0.499-  27 1.41  23 1.41  26 1.43
  25  0.395  0.301  0.510-  54 1.39  26 1.43   8 1.44
  26  0.446  0.200  0.501-  21 1.42  24 1.43  25 1.43
  27  0.615  0.294  0.501-  28 1.39  24 1.41  38 1.41
  28  0.562  0.391  0.510-  54 1.37  55 1.37  27 1.39
  29  0.554  0.804  0.496-  57 1.39  32 1.41  31 1.43
  30  0.388  0.903  0.497-  31 1.42  22 1.43  19 1.43
  31  0.442  0.804  0.497-  56 1.40  30 1.42  29 1.43
  32  0.610  0.902  0.494-  29 1.41  20 1.42  50 1.43
  33  0.890  0.001  0.494-  35 1.43  52 1.43  36 1.44
  34  0.724  0.100  0.493-  23 1.43  35 1.43  39 1.43
  35  0.778  0.000  0.493-  50 1.43  34 1.43  33 1.43
  36  0.946  0.101  0.495-   2 1.43  37 1.43  33 1.44
  37  0.891  0.201  0.495-  39 1.42  36 1.43  40 1.43
  38  0.725  0.298  0.498-  27 1.41  39 1.42  43 1.43
  39  0.780  0.199  0.495-  38 1.42  37 1.42  34 1.43
  40  0.946  0.302  0.497-  37 1.43   6 1.43  41 1.44
  41  0.889  0.401  0.498-  43 1.43  44 1.43  40 1.44
  42  0.718  0.497  0.503-  55 1.38  43 1.44  47 1.45
  43  0.778  0.399  0.500-  38 1.43  41 1.43  42 1.44
  44  0.942  0.503  0.499-  41 1.43  10 1.44  45 1.44
  45  0.884  0.601  0.499-  48 1.43  44 1.44  47 1.46
  46  0.714  0.702  0.498-  57 1.39  51 1.44  47 1.45
  47  0.770  0.600  0.500-  42 1.45  46 1.45  45 1.46
  48  0.941  0.700  0.497-  49 1.43  45 1.43  13 1.44
  49  0.886  0.800  0.495-  48 1.43  51 1.43  52 1.44
  50  0.721  0.901  0.494-  35 1.43  32 1.43  51 1.43
  51  0.774  0.800  0.495-  50 1.43  49 1.43  46 1.44
  52  0.944  0.900  0.495-  33 1.43  17 1.43  49 1.44
  53  0.273  0.507  0.517-   9 1.39  12 1.39  58 1.95
  54  0.456  0.392  0.520-  28 1.37  25 1.39  58 1.95
  55  0.611  0.489  0.510-  28 1.37  42 1.38  59 1.96
  56  0.390  0.705  0.500-  31 1.40  15 1.41  59 1.96
  57  0.606  0.707  0.498-  46 1.39  29 1.39  59 1.95
  58  0.398  0.510  0.574-  54 1.95  53 1.95  59 2.14
  59  0.500  0.596  0.509-  57 1.95  55 1.96  56 1.96  58 2.14
 
  LATTYP: Found a triclinic cell.
 ALAT       =    26.7079972750
 B/A-ratio  =     0.4795080615
 C/A-ratio  =     0.4657593706
 COS(alpha) =     0.0070371095
 COS(beta)  =     0.4527751865
 COS(gamma) =     0.4904883383
  
  Lattice vectors:
  
 A1 = (  13.0999612035, -12.0008297363, -19.9421217665)
 A2 = (  12.8067000000,   0.0000000000,   0.0000000000)
 A3 = (   0.0875381232, -12.4391919885,   0.0000000000)


Analysis of symmetry for initial positions (statically):
=====================================================================
 Subroutine PRICEL returns:
 Original cell was already a primitive cell.
 

 Routine SETGRP: Setting up the symmetry group for a 
 triclinic supercell.


 Subroutine GETGRP returns: Found  1 space group operations
 (whereof  1 operations were pure point group operations)
 out of a pool of  2 trial point group operations.


The static configuration has the point symmetry C_1 .


Analysis of symmetry for dynamics (positions and initial velocities):
=====================================================================
 Subroutine PRICEL returns:
 Original cell was already a primitive cell.
 

 Routine SETGRP: Setting up the symmetry group for a 
 triclinic supercell.


 Subroutine GETGRP returns: Found  1 space group operations
 (whereof  1 operations were pure point group operations)
 out of a pool of  2 trial point group operations.


The dynamic configuration has the point symmetry C_1 .


Analysis of structural, dynamic, and magnetic symmetry:
=====================================================================
 Subroutine PRICEL returns:
 Original cell was already a primitive cell.
 

 Routine SETGRP: Setting up the symmetry group for a 
 triclinic supercell.


 Subroutine GETGRP returns: Found  1 space group operations
 (whereof  1 operations were pure point group operations)
 out of a pool of  2 trial point group operations.


The magnetic configuration has the point symmetry C_1 .


 Subroutine INISYM returns: Found  1 space group operations
 (whereof  1 operations are pure point group operations),
 and found     1 'primitive' translations

 
 
 KPOINTS: KPOINTS created by Atomic Simulation Env

Automatic generation of k-mesh.
Space group operators:
 irot       det(A)        alpha          n_x          n_y          n_z        tau_x        tau_y        tau_z
    1     1.000000     0.000000     1.000000     0.000000     0.000000     0.000000     0.000000     0.000000
 
 Subroutine IBZKPT returns following result:
 ===========================================
 
 Found      2 irreducible k-points:
 
 Following reciprocal coordinates:
            Coordinates               Weight
  0.250000  0.250000 -0.000000      2.000000
 -0.250000  0.250000  0.000000      2.000000
 
 Following cartesian coordinates:
            Coordinates               Weight
  0.019521  0.020235  0.000646      2.000000
 -0.019521  0.019960  0.000237      2.000000
 
 
 Subroutine IBZKPT_HF returns following result:
 ==============================================
 
 Found      4 k-points in 1st BZ
 the following      4 k-points will be used (e.g. in the exchange kernel)
 Following reciprocal coordinates:   # in IRBZ
  0.250000  0.250000 -0.000000    0.25000000   1 t-inv F
 -0.250000  0.250000  0.000000    0.25000000   2 t-inv F
 -0.250000 -0.250000  0.000000    0.25000000   1 t-inv T
  0.250000 -0.250000 -0.000000    0.25000000   2 t-inv T


--------------------------------------------------------------------------------------------------------




 Dimension of arrays:
   k-points           NKPTS =      2   k-points in BZ     NKDIM =      4   number of bands    NBANDS=    158
   number of dos      NEDOS =    301   number of ions     NIONS =     59
   non local maximal  LDIM  =      6   non local SUM 2l+1 LMDIM =     18
   total plane-waves  NPLWV = ******
   max r-space proj   IRMAX =      1   max aug-charges    IRDMAX=  16196
   dimension x,y,z NGX =    96 NGY =   96 NGZ =  150
   dimension x,y,z NGXF=   192 NGYF=  192 NGZF=  300
   support grid    NGXF=   192 NGYF=  192 NGZF=  300
   ions per type =              52   5   1   1
   NGX,Y,Z   is equivalent  to a cutoff of  12.46, 12.83, 12.50 a.u.
   NGXF,Y,Z  is equivalent  to a cutoff of  24.92, 25.66, 25.00 a.u.

 SYSTEM =  unknown system                          
 POSCAR =   C  N Fe Mn                             

 Startparameter for this run:
   NWRITE =      2    write-flag & timer
   PREC   = accura    normal or accurate (medium, high low for compatibility)
   ISTART =      1    job   : 0-new  1-cont  2-samecut
   ICHARG =      0    charge: 1-file 2-atom 10-const
   ISPIN  =      2    spin polarized calculation?
   LNONCOLLINEAR =      F non collinear calculations
   LSORBIT =      F    spin-orbit coupling
   INIWAV =      1    electr: 0-lowe 1-rand  2-diag
   LASPH  =      T    aspherical Exc in radial PAW
   METAGGA=      F    non-selfconsistent MetaGGA calc.

 Electronic Relaxation 1
   ENCUT  =  500.0 eV  36.75 Ry    6.06 a.u.  23.35 22.68 36.37*2*pi/ulx,y,z
   ENINI  =  500.0     initial cutoff
   ENAUG  =  644.9 eV  augmentation charge cutoff
   NELM   =    250;   NELMIN=  2; NELMDL=  0     # of ELM steps 
   EDIFF  = 0.1E-03   stopping-criterion for ELM
   LREAL  =      F    real-space projection
   NLSPLINE    = F    spline interpolate recip. space projectors
   LCOMPAT=      F    compatible to vasp.4.4
   GGA_COMPAT  = T    GGA compatible to vasp.4.4-vasp.4.6
   LMAXPAW     = -100 max onsite density
   LMAXMIX     =    2 max onsite mixed and CHGCAR
   VOSKOWN=      0    Vosko Wilk Nusair interpolation
   ROPT   =    0.00000   0.00000   0.00000   0.00000
 Ionic relaxation
   EDIFFG = -.3E-01   stopping-criterion for IOM
   NSW    =      0    number of steps for IOM
   NBLOCK =      1;   KBLOCK =      1    inner block; outer block 
   IBRION =     -1    ionic relax: 0-MD 1-quasi-New 2-CG
   NFREE  =      1    steps in history (QN), initial steepest desc. (CG)
   ISIF   =      2    stress and relaxation
   IWAVPR =     10    prediction:  0-non 1-charg 2-wave 3-comb
   ISYM   =      3    0-nonsym 1-usesym 2-fastsym
   LCORR  =      T    Harris-Foulkes like correction to forces

   POTIM  = 0.5000    time-step for ionic-motion
   TEIN   =    0.0    initial temperature
   TEBEG  =    0.0;   TEEND  =   0.0 temperature during run
   SMASS  =  -3.00    Nose mass-parameter (am)
   estimated Nose-frequenzy (Omega)   =  0.10E-29 period in steps =****** mass=  -0.375E-26a.u.
   SCALEE = 1.0000    scale energy and forces
   NPACO  =    256;   APACO  = 16.0  distance and # of slots for P.C.
   PSTRESS=    0.0 pullay stress

  Mass of Ions in am
   POMASS =  12.01 14.00 55.85 54.94
  Ionic Valenz
   ZVAL   =   4.00  5.00  8.00  7.00
  Atomic Wigner-Seitz radii
   RWIGS  =  -1.00 -1.00 -1.00 -1.00
  virtual crystal weights 
   VCA    =   1.00  1.00  1.00  1.00
   NELECT =     248.0000    total number of electrons
   NUPDOWN=      -1.0000    fix difference up-down

 DOS related values:
   EMIN   =  10.00;   EMAX   =-10.00  energy-range for DOS
   EFERMI =   0.00
   ISMEAR =     0;   SIGMA  =   0.10  broadening in eV -4-tet -1-fermi 0-gaus

 Electronic relaxation 2 (details)
   IALGO  =     53    algorithm
   LDIAG  =      T    sub-space diagonalisation (order eigenvalues)
   LSUBROT=      F    optimize rotation matrix (better conditioning)
   TURBO    =      0    0=normal 1=particle mesh
   IRESTART =      0    0=no restart 2=restart with 2 vectors
   NREBOOT  =      0    no. of reboots
   NMIN     =      0    reboot dimension
   EREF     =   0.00    reference energy to select bands
   IMIX   =      4    mixing-type and parameters
     AMIX     =   0.40;   BMIX     =  1.00
     AMIX_MAG =   1.60;   BMIX_MAG =  1.00
     AMIN     =   0.10
     WC   =   100.;   INIMIX=   1;  MIXPRE=   1;  MAXMIX= -45

 Intra band minimization:
   WEIMIN = 0.0000     energy-eigenvalue tresh-hold
   EBREAK =  0.16E-06  absolut break condition
   DEPER  =   0.30     relativ break condition  

   TIME   =   0.20     timestep for ELM

  volume/ion in A,a.u.               =      53.85       363.37
  Fermi-wavevector in a.u.,A,eV,Ry     =   0.699668  1.322180  6.660526  0.489535
  Thomas-Fermi vector in A             =   1.783610
 
 Write flags
   LWAVE        =      T    write WAVECAR
   LDOWNSAMPLE  =      F    k-point downsampling of WAVECAR
   LCHARG       =      T    write CHGCAR
   LVTOT        =      F    write LOCPOT, total local potential
   LVHAR        =      F    write LOCPOT, Hartree potential only
   LELF         =      F    write electronic localiz. function (ELF)
   LORBIT       =     11    0 simple, 1 ext, 2 COOP (PROOUT), +10 PAW based schemes


 Dipole corrections
   LMONO  =      F    monopole corrections only (constant potential shift)
   LDIPOL =      T    correct potential (dipole corrections)
   IDIPOL =      3    1-x, 2-y, 3-z, 4-all directions 
   EPSILON=  1.0000000 bulk dielectric constant

 Exchange correlation treatment:
   GGA     =    PE    GGA type
   LEXCH   =     8    internal setting for exchange type
   VOSKOWN=      0    Vosko Wilk Nusair interpolation
   EXXOEP  =     0    0=HF, 1=EXX-LHF (local Hartree Fock) 2=EXX OEP
   LHFCALC =     T    Hartree Fock is set to
   LSYMGRAD=     F    symmetrize gradient (conserves proper symmetry)
   PRECFOCK=normal    Normal, Fast or Accurate (Low or Medium for compatibility)
   LRHFCALC=     F    long range Hartree Fock
   LRSCOR  =     F    long range correlation only (use DFT for short range part)
   LTHOMAS =     F    Thomas Fermi screening in HF
   LMODELHF=     F    short range full HF, long range fraction AEXX
   ENCUT4O =  -1.0   cutoff for four orbital integrals eV
   LMAXFOCK=     4    L truncation for augmentation on plane wave grid
   LMAXFOCKAE=  -1    L truncation for all-electron charge restoration on plane wave grid
   NMAXFOCKAE=   1    number of basis functions for all-electron charge restoration
   LFOCKAEDFT=     F  apply the AE augmentation even for DFT
   NKREDX  =     1    reduce k-point grid by
   NKREDY  =     1    reduce k-point grid by
   NKREDZ  =     1    reduce k-point grid by
   SHIFTRED=     F    shift reduced grid of Gamma
   HFKIDENT=     F    idential grid for each k-point
   ODDONLY =     F    use only odd q-grid points
   EVENONLY=     F    use only even q-grid points
   HFALPHA =   -1.0000 decay constant for conv. correction
   MCALPHA =    0.0000 extent of test-charge in conv. correction in multipole expansion
   AEXX    =    0.2500 exact exchange contribution
   HFSCREEN=    0.2000 screening length (either q_TF or 0.3 A-1)
   HFSCREENC=   0.2000 screening length for correlation (either q_TF or 0.3 A-1)
   HFRCUT  =    0.0000 spherical cutoff for potential kernel
   ALDAX   =    0.7500 LDA exchange part
   AGGAX   =    0.7500 GGA exchange part
   ALDAC   =    1.0000 LDA correlation
   AGGAC   =    1.0000 GGA correlation
   ENCUTFOCK=  -1.0 apply spherical cutoff to Coloumb kernel
   NBANDSGWLOW=     1    first orbital included in HF term
   NBLOCK_FOCK=    64    blocking factor in FOCK_ACC
 Linear response parameters
   LEPSILON=     F    determine dielectric tensor
   LRPA    =     F    only Hartree local field effects (RPA)
   LNABLA  =     F    use nabla operator in PAW spheres
   LVEL    =     F    velocity operator in full k-point grid
   LINTERFAST=   F  fast interpolation
   KINTER  =     0    interpolate to denser k-point grid
   CSHIFT  =0.1000    complex shift for real part using Kramers Kronig
   OMEGAMAX=  -1.0    maximum frequency
   DEG_THRESHOLD= 0.2000000E-02 threshold for treating states as degnerate
   RTIME   =   -0.100 relaxation time in fs
  (WPLASMAI=    0.000 imaginary part of plasma frequency in eV, 0.658/RTIME)
   DFIELD  = 0.0000000 0.0000000 0.0000000 field for delta impulse in time
 
 Orbital magnetization related:
   ORBITALMAG=     F  switch on orbital magnetization
   LCHIMAG   =     F  perturbation theory with respect to B field
   DQ        =  0.001000  dq finite difference perturbation B field
   LLRAUG    =     F  two centre corrections for induced B field



--------------------------------------------------------------------------------------------------------


 Static calculation
 charge density and potential will be updated during run
 spin polarized calculation
 Conjugate gradient for all bands (Freysoldt, et al. PRB 79, 241103 (2009))
 perform sub-space diagonalisation
    before iterative eigenvector-optimisation
 modified Broyden-mixing scheme, WC =      100.0
 initial mixing is a Kerker type mixing with AMIX =  0.4000 and BMIX =      1.0000
 Hartree-type preconditioning will be used
 using additional bands           34
 reciprocal scheme for non local part
 use partial core corrections
 no Harris-corrections to forces 
 use gradient corrections 
 use of overlap-Matrix (Vanderbilt PP)
 Gauss-broadening in eV      SIGMA  =   0.10


--------------------------------------------------------------------------------------------------------


  energy-cutoff  :      500.00
  volume of cell :     3176.88
      direct lattice vectors                 reciprocal lattice vectors
    12.806700000  0.000000000  0.000000000     0.078084128  0.000549500  0.000817595
    -0.087538123 12.439191989  0.000000000     0.000000000  0.080391074  0.001767135
    -0.205723080 -0.438362252 19.942121767     0.000000000  0.000000000  0.050145116

  length of vectors
    12.806700000 12.439500000 19.948000000     0.078090341  0.080410494  0.050145116


 
 old parameters found on file WAVECAR:
  energy-cutoff  :      500.00
  volume of cell :     3176.88
      direct lattice vectors                 reciprocal lattice vectors
    12.806700000  0.000000000  0.000000000     0.078084128  0.000549500  0.000817595
    -0.087538123 12.439191989  0.000000000     0.000000000  0.080391074  0.001767135
    -0.205723080 -0.438362252 19.942121767     0.000000000  0.000000000  0.050145116

  length of vectors

 
 k-points in units of 2pi/SCALE and weight: KPOINTS created by Atomic Simulation Env
   0.01952103  0.02023514  0.00064618       0.500
  -0.01952103  0.01996039  0.00023738       0.500
 
 k-points in reciprocal lattice and weights: KPOINTS created by Atomic Simulation Env
   0.25000000  0.25000000 -0.00000000       0.500
  -0.25000000  0.25000000  0.00000000       0.500
 
 position of ions in fractional coordinates (direct lattice) 
   0.22246522  0.00236316  0.49821028
   0.05755894  0.10223303  0.49714253
   0.11112226  0.00164601  0.49733666
   0.27829929  0.10351487  0.50016287
   0.22519906  0.20528915  0.50296755
   0.05753169  0.30290924  0.49904125
   0.11332402  0.20342544  0.49973967
   0.28208466  0.30670061  0.50876869
   0.22341437  0.40798660  0.50972980
   0.05449623  0.50351254  0.50106654
   0.11179244  0.40407246  0.50230040
   0.22193394  0.60344186  0.50580078
   0.05335568  0.70174048  0.49778528
   0.11011705  0.60358431  0.50106058
   0.28051776  0.70262295  0.50127810
   0.22254379  0.80106197  0.49815115
   0.05536523  0.90118664  0.49628425
   0.11034327  0.80095353  0.49736263
   0.27692461  0.90272788  0.49745967
   0.55516063  0.00117556  0.49435243
   0.38902409  0.10148841  0.49869974
   0.44429067  0.00201435  0.49600589
   0.61237266  0.09925300  0.49470811
   0.55738673  0.19732213  0.49881423
   0.39470872  0.30090847  0.50978364
   0.44619024  0.20005785  0.50146747
   0.61530659  0.29440010  0.50075550
   0.56155150  0.39060360  0.50992991
   0.55420961  0.80408739  0.49592346
   0.38835299  0.90253683  0.49659629
   0.44237869  0.80350350  0.49690328
   0.60994844  0.90228527  0.49407163
   0.88982683  0.00064208  0.49386010
   0.72364134  0.09977131  0.49345419
   0.77822164  0.00010249  0.49300506
   0.94621415  0.10095447  0.49485696
   0.89139462  0.20079403  0.49489863
   0.72549271  0.29783053  0.49765625
   0.78033058  0.19916700  0.49454199
   0.94570990  0.30181199  0.49680772
   0.88909431  0.40134377  0.49824179
   0.71777628  0.49679449  0.50341149
   0.77778593  0.39941943  0.49973344
   0.94240070  0.50257174  0.49926259
   0.88355602  0.60115684  0.49857654
   0.71433730  0.70160316  0.49812212
   0.76974503  0.60000804  0.50011343
   0.94093807  0.70039522  0.49693733
   0.88626177  0.80014776  0.49547510
   0.72134394  0.90111556  0.49377014
   0.77432029  0.80009000  0.49545462
   0.94352737  0.90028448  0.49492404
   0.27305642  0.50687571  0.51713288
   0.45596143  0.39230969  0.51988727
   0.61062455  0.48880220  0.51016661
   0.39039050  0.70470884  0.50043905
   0.60623271  0.70658447  0.49802410
   0.39815595  0.50964060  0.57414764
   0.49974865  0.59601493  0.50927868
 
 position of ions in cartesian coordinates  (Angst):
   2.74634510 -0.18900077  9.93537016
   0.62591704  1.05376782  9.91407677
   1.32065179 -0.19753854  9.91794814
   3.45213894  1.06838880  9.97430887
   2.76261416  2.33314912 10.03024004
   0.60761071  3.54918536  9.95194142
   1.33069122  2.31138107  9.96586936
   3.48106019  3.59208276 10.14592709
   2.72062325  4.85157729 10.16509368
   0.55075933  6.04364044  9.99232994
   1.29298568  4.80614539 10.01693570
   2.68536233  7.28460518 10.08674066
   0.51947524  8.51087427  9.92689474
   1.25431968  7.28845507  9.99221106
   3.42787600  8.52032032  9.99654899
   2.67744684  9.74619302  9.93419080
   0.52806052 10.99248134  9.89696090
   1.24070015  9.74518975  9.91846618
   3.36512839 11.01113788  9.92040132
   7.00797302 -0.20208240  9.85843640
   4.87063661  1.04382268  9.94513103
   5.58768108 -0.19237342  9.89140984
   7.73201165  1.01776579  9.86552937
   7.01839384  2.23586657  9.94741418
   4.92370096  3.51958827 10.16616744
   5.59354847  2.26873358 10.00032535
   7.75125867  3.44258704  9.98612711
   7.05252455  4.63525916 10.16908435
   6.92518496  9.78480333  9.88976599
   4.79235258 11.00913987  9.90318375
   5.49284946  9.77711071  9.90930569
   7.63080034 11.00711737  9.85283666
  11.29409059 -0.20850269  9.84861829
   9.15720880  1.02476273  9.84052362
   9.86501955 -0.21483989  9.83156690
  12.00723983  1.03886548  9.86849773
  11.29643423  2.28077056  9.86932870
   9.16271659  3.48661743  9.92432161
   9.87428629  2.26068799  9.86221667
  11.98279805  3.53651548  9.90740012
  11.24873133  4.77398178  9.93599839
   9.04529369  5.95904541 10.03909319
   9.82309992  4.74939072  9.96574513
  11.92233900  6.03272843  9.95635534
  11.16024403  7.25934817  9.94267400
   8.98441128  8.50901849  9.93361190
   9.70248518  7.24438431  9.97332289
  11.88676878  8.49451205  9.90998470
  11.17811457  9.73599402  9.88082481
   9.05757354 10.99269932  9.84682421
   9.74452277  9.73528450  9.88041638
  11.90284545 10.98185547  9.86983556
   3.34619454  6.07843270 10.31272676
   5.69806644  4.65211654 10.36765526
   7.67234351  5.85666667 10.17380465
   4.83497327  8.54663500  9.97981643
   7.59953232  8.57102487  9.93165718
   4.93633543  6.08783267 11.44972205
   6.24318660  7.19069559 10.15609745
 


--------------------------------------------------------------------------------------------------------


 k-point  1 :   0.2500 0.2500-0.0000  plane waves:   80643
 k-point  2 :  -0.2500 0.2500 0.0000  plane waves:   80657

 maximum and minimum number of plane-waves per node :      3394     3329

 maximum number of plane-waves:     80657
 maximum index in each direction: 
   IXMAX=   23   IYMAX=   22   IZMAX=   36
   IXMIN=  -23   IYMIN=  -22   IZMIN=  -36


 parallel 3D FFT for wavefunctions:
    minimum data exchange during FFTs selected (reduces bandwidth)
 parallel 3D FFT for charge:
    minimum data exchange during FFTs selected (reduces bandwidth)


 FFT grid for exact exchange (Hartree Fock) 
  NGX = 72; NGY = 70; NGZ =112

 
 Radii for the augmentation spheres in the non-local exchange
 for species   1 augmentation radius   0.874 (default was   0.699)
       energy cutoff for augmentation   2000.0
 for species   2 augmentation radius   0.886 (default was   0.709)
       energy cutoff for augmentation   2000.0
 for species   3 augmentation radius   1.263 (default was   1.010)
       energy cutoff for augmentation   2000.0
 for species   4 augmentation radius   1.276 (default was   1.021)
       energy cutoff for augmentation   2000.0

 real space projection operators:
  total allocation   :       2580.47 KBytes
  max/ min on nodes  :        164.73         62.74

 Maximum index for augmentation-charges in exchange           88
  SETUP_FOCK is finished

 total amount of memory used by VASP MPI-rank0   210895. kBytes
=======================================================================

   base      :      30000. kBytes
   nonl-proj :       7130. kBytes
   fftplans  :      18630. kBytes
   grid      :      49102. kBytes
   one-center:         93. kBytes
   HF        :         23. kBytes
   nonlr-proj:       1685. kBytes
   wavefun   :     104232. kBytes
 
     INWAV:  cpu time    3.4910: real time    6.0706
 Broyden mixing: mesh for mixing (old mesh)
   NGX = 47   NGY = 45   NGZ = 73
  (NGX  =192   NGY  =192   NGZ  =300)
  gives a total of 154395 points

 charge density for first step will be calculated from the start-wavefunctions


--------------------------------------------------------------------------------------------------------


 Maximum index for augmentation-charges          762 (set IRDMAX)


--------------------------------------------------------------------------------------------------------


 initial charge from wavefunction
 First call to EWALD:  gamma=   0.121
 Maximum number of real-space cells 3x 3x 2
 Maximum number of reciprocal cells 2x 2x 4

    FEWALD:  cpu time    0.0030: real time    0.0030


--------------------------------------- Iteration      1(   1)  ---------------------------------------


    POTLOK:  cpu time    2.1921: real time    2.2120
    SETDIJ:  cpu time    2.0791: real time    2.0804
    TRIAL :  cpu time  349.7728: real time  350.0804
    CORREC:  cpu time    0.0010: real time    0.0010
    CHARGE:  cpu time    1.4159: real time    1.4181
    --------------------------------------------
      LOOP:  cpu time  355.4963: real time  355.8287

 eigenvalue-minimisations  :     0
 total energy-change (2. order) :-0.6208778E+03  (-0.4631702E+00)
 number of electron     248.0000005 magnetization       5.9752371
 augmentation part       13.4856677 magnetization       4.0079733

 DIPCOR: dipole corrections for dipol
 direction  3 min pos     1,
 dipolmoment           0.001824      0.003886     -0.176784 electrons x Angstroem
 Tr[quadrupol]     -6845.601413

 energy correction for charged system         0.000000 eV
 dipol+quadrupol energy correction           -0.000895 eV
 added-field ion interaction          0.124549 eV  (added to PSCEN)


 Free energy of the ion-electron system (eV)
  ---------------------------------------------------
  alpha Z        PSCENC =       104.80072698
  Ewald energy   TEWEN  =     39963.27664954
  -Hartree energ DENC   =    -48502.26794327
  -exchange      EXHF   =       562.26112544
  -V(xc)+E(xc)   XCENC  =       620.67468277
  PAW double counting   =     26641.81517104   -26669.18270299
  entropy T*S    EENTRO =        -0.01273025
  eigenvalues    EBANDS =     -3211.65772330
  atomic energy  EATOM  =      9869.41843337
  ---------------------------------------------------
  free energy    TOTEN  =      -620.87777312 eV

  energy without entropy =     -620.86504287  energy(sigma->0) =     -620.87140800
  exchange ACFDT corr.  =        -0.00781589  see jH, gK, PRB 81, 115126


--------------------------------------------------------------------------------------------------------




--------------------------------------- Iteration      1(   2)  ---------------------------------------


    POTLOK:  cpu time    2.2343: real time    2.2355
    SETDIJ:  cpu time    2.0778: real time    2.0792
    TRIAL :  cpu time  348.7250: real time  348.9801
    CORREC:  cpu time    0.0010: real time    0.0010
    CHARGE:  cpu time    1.4245: real time    1.4251
    --------------------------------------------
      LOOP:  cpu time  354.4653: real time  354.7249

 eigenvalue-minimisations  :     0
 total energy-change (2. order) :-0.3794489E+00  (-0.4052379E+00)
 number of electron     248.0000005 magnetization       5.9893313
 augmentation part       13.4647135 magnetization       4.1066223

 DIPCOR: dipole corrections for dipol
 direction  3 min pos     1,
 dipolmoment           0.001818      0.003873     -0.176192 electrons x Angstroem
 Tr[quadrupol]     -6845.436079

 energy correction for charged system         0.000000 eV
 dipol+quadrupol energy correction           -0.000889 eV
 added-field ion interaction          0.124133 eV  (added to PSCEN)


 Free energy of the ion-electron system (eV)
  ---------------------------------------------------
  alpha Z        PSCENC =       104.80031626
  Ewald energy   TEWEN  =     39963.27664954
  -Hartree energ DENC   =    -48486.89548047
  -exchange      EXHF   =       562.16038359
  -V(xc)+E(xc)   XCENC  =       620.35109414
  PAW double counting   =     26781.86326257   -26808.88169900
  entropy T*S    EENTRO =        -0.00932251
  eigenvalues    EBANDS =     -3227.33745178
  atomic energy  EATOM  =      9869.41843337
  ---------------------------------------------------
  free energy    TOTEN  =      -621.25722205 eV

  energy without entropy =     -621.24789954  energy(sigma->0) =     -621.25256079
  exchange ACFDT corr.  =        -0.00673893  see jH, gK, PRB 81, 115126


--------------------------------------------------------------------------------------------------------




--------------------------------------- Iteration      1(   3)  ---------------------------------------


    POTLOK:  cpu time    2.2568: real time    2.2579
    SETDIJ:  cpu time    2.0733: real time    2.0751
    TRIAL :  cpu time  348.5092: real time  348.8449
    CORREC:  cpu time    0.0009: real time    0.0009
    CHARGE:  cpu time    1.4108: real time    1.4130
    --------------------------------------------
      LOOP:  cpu time  354.2518: real time  354.5953

 eigenvalue-minimisations  :     0
 total energy-change (2. order) :-0.3132367E+00  (-0.2333637E+00)
 number of electron     248.0000005 magnetization       5.9952091
 augmentation part       13.4664222 magnetization       4.1853574

 DIPCOR: dipole corrections for dipol
 direction  3 min pos     1,
 dipolmoment           0.002128      0.004533     -0.206234 electrons x Angstroem
 Tr[quadrupol]     -6845.336539

 energy correction for charged system         0.000000 eV
 dipol+quadrupol energy correction           -0.001217 eV
 added-field ion interaction          0.145297 eV  (added to PSCEN)


 Free energy of the ion-electron system (eV)
  ---------------------------------------------------
  alpha Z        PSCENC =       104.82115228
  Ewald energy   TEWEN  =     39963.27664954
  -Hartree energ DENC   =    -48473.14030716
  -exchange      EXHF   =       562.12941588
  -V(xc)+E(xc)   XCENC  =       620.03986619
  PAW double counting   =     26963.74128832   -26990.52600869
  entropy T*S    EENTRO =        -0.00690001
  eigenvalues    EBANDS =     -3241.32162601
  atomic energy  EATOM  =      9869.41843337
  ---------------------------------------------------
  free energy    TOTEN  =      -621.57045879 eV

  energy without entropy =     -621.56355879  energy(sigma->0) =     -621.56700879
  exchange ACFDT corr.  =        -0.00389069  see jH, gK, PRB 81, 115126


--------------------------------------------------------------------------------------------------------




--------------------------------------- Iteration      1(   4)  ---------------------------------------


    POTLOK:  cpu time    2.2612: real time    2.2623
    SETDIJ:  cpu time    2.0757: real time    2.0770
    TRIAL :  cpu time  347.9262: real time  348.7718
    CORREC:  cpu time    0.0010: real time    0.0010
    CHARGE:  cpu time    1.4138: real time    1.4144
    --------------------------------------------
      LOOP:  cpu time  353.6789: real time  354.5307

 eigenvalue-minimisations  :     0
 total energy-change (2. order) :-0.1800423E+00  (-0.1359461E+00)
 number of electron     248.0000005 magnetization       5.9976634
 augmentation part       13.4745728 magnetization       4.2344836

 DIPCOR: dipole corrections for dipol
 direction  3 min pos     1,
 dipolmoment           0.002360      0.005028     -0.228745 electrons x Angstroem
 Tr[quadrupol]     -6845.337081

 energy correction for charged system         0.000000 eV
 dipol+quadrupol energy correction           -0.001498 eV
 added-field ion interaction          0.161157 eV  (added to PSCEN)


 Free energy of the ion-electron system (eV)
  ---------------------------------------------------
  alpha Z        PSCENC =       104.83673164
  Ewald energy   TEWEN  =     39963.27664954
  -Hartree energ DENC   =    -48467.95828923
  -exchange      EXHF   =       562.28621528
  -V(xc)+E(xc)   XCENC  =       619.94264375
  PAW double counting   =     27118.19369195   -27145.01430786
  entropy T*S    EENTRO =        -0.00526950
  eigenvalues    EBANDS =     -3246.72536948
  atomic energy  EATOM  =      9869.41843337
  ---------------------------------------------------
  free energy    TOTEN  =      -621.75050106 eV

  energy without entropy =     -621.74523156  energy(sigma->0) =     -621.74786631
  exchange ACFDT corr.  =        -0.00414555  see jH, gK, PRB 81, 115126


--------------------------------------------------------------------------------------------------------




--------------------------------------- Iteration      1(   5)  ---------------------------------------


    POTLOK:  cpu time    2.2585: real time    2.2602
    SETDIJ:  cpu time    2.0762: real time    2.0771
    TRIAL :  cpu time  347.9997: real time  348.2642
    CORREC:  cpu time    0.0010: real time    0.0010
    CHARGE:  cpu time    1.4100: real time    1.4108
    --------------------------------------------
      LOOP:  cpu time  353.7476: real time  354.0178

 eigenvalue-minimisations  :     0
 total energy-change (2. order) :-0.1098925E+00  (-0.8810301E-01)
 number of electron     248.0000005 magnetization       5.9987552
 augmentation part       13.4781668 magnetization       4.2630907

 DIPCOR: dipole corrections for dipol
 direction  3 min pos     1,
 dipolmoment           0.002427      0.005171     -0.235222 electrons x Angstroem
 Tr[quadrupol]     -6845.397086

 energy correction for charged system         0.000000 eV
 dipol+quadrupol energy correction           -0.001584 eV
 added-field ion interaction          0.165720 eV  (added to PSCEN)


 Free energy of the ion-electron system (eV)
  ---------------------------------------------------
  alpha Z        PSCENC =       104.84120901
  Ewald energy   TEWEN  =     39963.27664954
  -Hartree energ DENC   =    -48469.42903784
  -exchange      EXHF   =       562.57135467
  -V(xc)+E(xc)   XCENC  =       620.02643640
  PAW double counting   =     27225.39692134   -27252.32176582
  entropy T*S    EENTRO =        -0.00412569
  eigenvalues    EBANDS =     -3245.63532472
  atomic energy  EATOM  =      9869.41843337
  ---------------------------------------------------
  free energy    TOTEN  =      -621.86039353 eV

  energy without entropy =     -621.85626784  energy(sigma->0) =     -621.85833068
  exchange ACFDT corr.  =        -0.00302619  see jH, gK, PRB 81, 115126


--------------------------------------------------------------------------------------------------------




--------------------------------------- Iteration      1(   6)  ---------------------------------------


    POTLOK:  cpu time    2.2548: real time    2.2569
    SETDIJ:  cpu time    2.0754: real time    2.0763
    TRIAL :  cpu time  347.8348: real time  348.0855
    CORREC:  cpu time    0.0010: real time    0.0010
    CHARGE:  cpu time    1.4092: real time    1.4100
    --------------------------------------------
      LOOP:  cpu time  353.5767: real time  353.8338

 eigenvalue-minimisations  :     0
 total energy-change (2. order) :-0.7337912E-01  (-0.5844295E-01)
 number of electron     248.0000005 magnetization       5.9992594
 augmentation part       13.4799108 magnetization       4.2824242

 DIPCOR: dipole corrections for dipol
 direction  3 min pos     1,
 dipolmoment           0.002489      0.005304     -0.241309 electrons x Angstroem
 Tr[quadrupol]     -6845.477817

 energy correction for charged system         0.000000 eV
 dipol+quadrupol energy correction           -0.001667 eV
 added-field ion interaction          0.170009 eV  (added to PSCEN)


 Free energy of the ion-electron system (eV)
  ---------------------------------------------------
  alpha Z        PSCENC =       104.84541435
  Ewald energy   TEWEN  =     39963.27664954
  -Hartree energ DENC   =    -48473.33277098
  -exchange      EXHF   =       562.86534787
  -V(xc)+E(xc)   XCENC  =       620.17110041
  PAW double counting   =     27291.37847341   -27318.31280053
  entropy T*S    EENTRO =        -0.00328589
  eigenvalues    EBANDS =     -3242.23949439
  atomic energy  EATOM  =      9869.41843337
  ---------------------------------------------------
  free energy    TOTEN  =      -621.93377264 eV

  energy without entropy =     -621.93048676  energy(sigma->0) =     -621.93212970
  exchange ACFDT corr.  =        -0.00228041  see jH, gK, PRB 81, 115126


--------------------------------------------------------------------------------------------------------




--------------------------------------- Iteration      1(   7)  ---------------------------------------


    POTLOK:  cpu time    2.2499: real time    2.2507
    SETDIJ:  cpu time    2.0770: real time    2.0780
    TRIAL :  cpu time  347.4525: real time  347.7410
    CORREC:  cpu time    0.0009: real time    0.0009
    CHARGE:  cpu time    1.4107: real time    1.4115
    --------------------------------------------
      LOOP:  cpu time  353.1921: real time  353.4855

 eigenvalue-minimisations  :     0
 total energy-change (2. order) :-0.4982261E-01  (-0.3970558E-01)
 number of electron     248.0000005 magnetization       5.9994975
 augmentation part       13.4844432 magnetization       4.2990296

 DIPCOR: dipole corrections for dipol
 direction  3 min pos     1,
 dipolmoment           0.002581      0.005500     -0.250198 electrons x Angstroem
 Tr[quadrupol]     -6845.549443

 energy correction for charged system         0.000000 eV
 dipol+quadrupol energy correction           -0.001792 eV
 added-field ion interaction          0.176272 eV  (added to PSCEN)


 Free energy of the ion-electron system (eV)
  ---------------------------------------------------
  alpha Z        PSCENC =       104.85155228
  Ewald energy   TEWEN  =     39963.27664954
  -Hartree energ DENC   =    -48477.05274110
  -exchange      EXHF   =       563.10276763
  -V(xc)+E(xc)   XCENC  =       620.30263739
  PAW double counting   =     27329.33746361   -27356.23963720
  entropy T*S    EENTRO =        -0.00266574
  eigenvalues    EBANDS =     -3238.97743489
  atomic energy  EATOM  =      9869.41843337
  ---------------------------------------------------
  free energy    TOTEN  =      -621.98359526 eV

  energy without entropy =     -621.98092952  energy(sigma->0) =     -621.98226239
  exchange ACFDT corr.  =        -0.00175666  see jH, gK, PRB 81, 115126


--------------------------------------------------------------------------------------------------------




--------------------------------------- Iteration      1(   8)  ---------------------------------------


    POTLOK:  cpu time    2.2430: real time    2.2444
    SETDIJ:  cpu time    2.0748: real time    2.0770
    TRIAL :  cpu time  347.6545: real time  347.9159
    CORREC:  cpu time    0.0009: real time    0.0009
    CHARGE:  cpu time    1.4079: real time    1.4088
    --------------------------------------------
      LOOP:  cpu time  353.3819: real time  353.6507

 eigenvalue-minimisations  :     0
 total energy-change (2. order) :-0.3480251E-01  (-0.2850088E-01)
 number of electron     248.0000005 magnetization       5.9996152
 augmentation part       13.4906134 magnetization       4.3144084

 DIPCOR: dipole corrections for dipol
 direction  3 min pos     1,
 dipolmoment           0.002641      0.005627     -0.255982 electrons x Angstroem
 Tr[quadrupol]     -6845.595190

 energy correction for charged system         0.000000 eV
 dipol+quadrupol energy correction           -0.001876 eV
 added-field ion interaction          0.180347 eV  (added to PSCEN)


 Free energy of the ion-electron system (eV)
  ---------------------------------------------------
  alpha Z        PSCENC =       104.85554330
  Ewald energy   TEWEN  =     39963.27664954
  -Hartree energ DENC   =    -48479.64120071
  -exchange      EXHF   =       563.27371466
  -V(xc)+E(xc)   XCENC  =       620.40050347
  PAW double counting   =     27350.31910145   -27377.24196093
  entropy T*S    EENTRO =        -0.00221583
  eigenvalues    EBANDS =     -3236.67651617
  atomic energy  EATOM  =      9869.41843337
  ---------------------------------------------------
  free energy    TOTEN  =      -622.01839777 eV

  energy without entropy =     -622.01618193  energy(sigma->0) =     -622.01728985
  exchange ACFDT corr.  =        -0.00092200  see jH, gK, PRB 81, 115126


--------------------------------------------------------------------------------------------------------




--------------------------------------- Iteration      1(   9)  ---------------------------------------


    POTLOK:  cpu time    2.2378: real time    2.2401
    SETDIJ:  cpu time    2.0736: real time    2.0747
    TRIAL :  cpu time  347.4826: real time  347.7323
    CORREC:  cpu time    0.0009: real time    0.0009
    CHARGE:  cpu time    1.4103: real time    1.4111
    --------------------------------------------
      LOOP:  cpu time  353.2061: real time  353.4625

 eigenvalue-minimisations  :     0
 total energy-change (2. order) :-0.2549347E-01  (-0.2109161E-01)
 number of electron     248.0000005 magnetization       5.9996770
 augmentation part       13.4955795 magnetization       4.3282093

 DIPCOR: dipole corrections for dipol
 direction  3 min pos     1,
 dipolmoment           0.002653      0.005652     -0.257132 electrons x Angstroem
 Tr[quadrupol]     -6845.616324

 energy correction for charged system         0.000000 eV
 dipol+quadrupol energy correction           -0.001893 eV
 added-field ion interaction          0.181157 eV  (added to PSCEN)


 Free energy of the ion-electron system (eV)
  ---------------------------------------------------
  alpha Z        PSCENC =       104.85633655
  Ewald energy   TEWEN  =     39963.27664954
  -Hartree energ DENC   =    -48481.03378844
  -exchange      EXHF   =       563.38970832
  -V(xc)+E(xc)   XCENC  =       620.46563245
  PAW double counting   =     27361.31346753   -27388.30163379
  entropy T*S    EENTRO =        -0.00189371
  eigenvalues    EBANDS =     -3235.42648094
  atomic energy  EATOM  =      9869.41843337
  ---------------------------------------------------
  free energy    TOTEN  =      -622.04389123 eV

  energy without entropy =     -622.04199753  energy(sigma->0) =     -622.04294438
  exchange ACFDT corr.  =        -0.00074699  see jH, gK, PRB 81, 115126


--------------------------------------------------------------------------------------------------------




--------------------------------------- Iteration      1(  10)  ---------------------------------------


    POTLOK:  cpu time    2.2316: real time    2.2329
    SETDIJ:  cpu time    2.0745: real time    2.0760
    TRIAL :  cpu time  347.9401: real time  348.2160
    CORREC:  cpu time    0.0010: real time    0.0009
    CHARGE:  cpu time    1.4158: real time    1.4166
    --------------------------------------------
      LOOP:  cpu time  353.6642: real time  353.9460

 eigenvalue-minimisations  :     0
 total energy-change (2. order) :-0.1909927E-01  (-0.1594844E-01)
 number of electron     248.0000005 magnetization       5.9997104
 augmentation part       13.4983534 magnetization       4.3401114

 DIPCOR: dipole corrections for dipol
 direction  3 min pos     1,
 dipolmoment           0.002648      0.005642     -0.256646 electrons x Angstroem
 Tr[quadrupol]     -6845.623649

 energy correction for charged system         0.000000 eV
 dipol+quadrupol energy correction           -0.001885 eV
 added-field ion interaction          0.180814 eV  (added to PSCEN)


 Free energy of the ion-electron system (eV)
  ---------------------------------------------------
  alpha Z        PSCENC =       104.85600118
  Ewald energy   TEWEN  =     39963.27664954
  -Hartree energ DENC   =    -48481.57608731
  -exchange      EXHF   =       563.46734639
  -V(xc)+E(xc)   XCENC  =       620.50613781
  PAW double counting   =     27366.48014690   -27393.52992744
  entropy T*S    EENTRO =        -0.00166237
  eigenvalues    EBANDS =     -3234.95979723
  atomic energy  EATOM  =      9869.41843337
  ---------------------------------------------------
  free energy    TOTEN  =      -622.06299050 eV

  energy without entropy =     -622.06132814  energy(sigma->0) =     -622.06215932
  exchange ACFDT corr.  =        -0.00062497  see jH, gK, PRB 81, 115126


--------------------------------------------------------------------------------------------------------




--------------------------------------- Iteration      1(  11)  ---------------------------------------


    POTLOK:  cpu time    2.2269: real time    2.2279
    SETDIJ:  cpu time    2.0731: real time    2.0753
    TRIAL :  cpu time  346.3129: real time  346.5548
    CORREC:  cpu time    0.0009: real time    0.0009
    CHARGE:  cpu time    1.4110: real time    1.4116
    --------------------------------------------
      LOOP:  cpu time  352.0258: real time  352.2738

 eigenvalue-minimisations  :     0
 total energy-change (2. order) :-0.1461031E-01  (-0.1236126E-01)
 number of electron     248.0000005 magnetization       5.9997275
 augmentation part       13.4997917 magnetization       4.3500811

 DIPCOR: dipole corrections for dipol
 direction  3 min pos     1,
 dipolmoment           0.002650      0.005648     -0.256923 electrons x Angstroem
 Tr[quadrupol]     -6845.626496

 energy correction for charged system         0.000000 eV
 dipol+quadrupol energy correction           -0.001890 eV
 added-field ion interaction          0.181009 eV  (added to PSCEN)


 Free energy of the ion-electron system (eV)
  ---------------------------------------------------
  alpha Z        PSCENC =       104.85619212
  Ewald energy   TEWEN  =     39963.27664954
  -Hartree energ DENC   =    -48481.68895309
  -exchange      EXHF   =       563.52190961
  -V(xc)+E(xc)   XCENC  =       620.53171733
  PAW double counting   =     27368.48827205   -27395.57286765
  entropy T*S    EENTRO =        -0.00149333
  eigenvalues    EBANDS =     -3234.90729172
  atomic energy  EATOM  =      9869.41843337
  ---------------------------------------------------
  free energy    TOTEN  =      -622.07760081 eV

  energy without entropy =     -622.07610748  energy(sigma->0) =     -622.07685414
  exchange ACFDT corr.  =        -0.00053920  see jH, gK, PRB 81, 115126


--------------------------------------------------------------------------------------------------------




--------------------------------------- Iteration      1(  12)  ---------------------------------------


    POTLOK:  cpu time    2.2220: real time    2.2243
    SETDIJ:  cpu time    2.0745: real time    2.0755
    TRIAL :  cpu time  345.3916: real time  345.6518
    CORREC:  cpu time    0.0009: real time    0.0009
    CHARGE:  cpu time    1.4087: real time    1.4104
    --------------------------------------------
      LOOP:  cpu time  351.0990: real time  351.3666

 eigenvalue-minimisations  :     0
 total energy-change (2. order) :-0.1142374E-01  (-0.9752342E-02)
 number of electron     248.0000004 magnetization       5.9997344
 augmentation part       13.5011496 magnetization       4.3582170

 DIPCOR: dipole corrections for dipol
 direction  3 min pos     1,
 dipolmoment           0.002661      0.005670     -0.257936 electrons x Angstroem
 Tr[quadrupol]     -6845.628714

 energy correction for charged system         0.000000 eV
 dipol+quadrupol energy correction           -0.001904 eV
 added-field ion interaction          0.181724 eV  (added to PSCEN)


 Free energy of the ion-electron system (eV)
  ---------------------------------------------------
  alpha Z        PSCENC =       104.85689149
  Ewald energy   TEWEN  =     39963.27664954
  -Hartree energ DENC   =    -48481.67194183
  -exchange      EXHF   =       563.56412259
  -V(xc)+E(xc)   XCENC  =       620.55003820
  PAW double counting   =     27369.15594088   -27396.25666103
  entropy T*S    EENTRO =        -0.00136687
  eigenvalues    EBANDS =     -3234.98100444
  atomic energy  EATOM  =      9869.41843337
  ---------------------------------------------------
  free energy    TOTEN  =      -622.08902455 eV

  energy without entropy =     -622.08765768  energy(sigma->0) =     -622.08834112
  exchange ACFDT corr.  =        -0.00047758  see jH, gK, PRB 81, 115126


--------------------------------------------------------------------------------------------------------




--------------------------------------- Iteration      1(  13)  ---------------------------------------


    POTLOK:  cpu time    2.2190: real time    2.2200
    SETDIJ:  cpu time    2.0719: real time    2.0730
    TRIAL :  cpu time  345.4142: real time  345.7050
    CORREC:  cpu time    0.0009: real time    0.0009
    CHARGE:  cpu time    1.4061: real time    1.4074
    --------------------------------------------
      LOOP:  cpu time  351.1132: real time  351.4096

 eigenvalue-minimisations  :     0
 total energy-change (2. order) :-0.9084972E-02  (-0.7822561E-02)
 number of electron     248.0000004 magnetization       5.9997346
 augmentation part       13.5028469 magnetization       4.3647637

 DIPCOR: dipole corrections for dipol
 direction  3 min pos     1,
 dipolmoment           0.002668      0.005685     -0.258636 electrons x Angstroem
 Tr[quadrupol]     -6845.630788

 energy correction for charged system         0.000000 eV
 dipol+quadrupol energy correction           -0.001915 eV
 added-field ion interaction          0.182217 eV  (added to PSCEN)


 Free energy of the ion-electron system (eV)
  ---------------------------------------------------
  alpha Z        PSCENC =       104.85737425
  Ewald energy   TEWEN  =     39963.27664954
  -Hartree energ DENC   =    -48481.67825088
  -exchange      EXHF   =       563.60007414
  -V(xc)+E(xc)   XCENC  =       620.56556348
  PAW double counting   =     27369.64361107   -27396.75968897
  entropy T*S    EENTRO =        -0.00127025
  eigenvalues    EBANDS =     -3235.02050864
  atomic energy  EATOM  =      9869.41843337
  ---------------------------------------------------
  free energy    TOTEN  =      -622.09810952 eV

  energy without entropy =     -622.09683927  energy(sigma->0) =     -622.09747440
  exchange ACFDT corr.  =        -0.00043209  see jH, gK, PRB 81, 115126


--------------------------------------------------------------------------------------------------------




--------------------------------------- Iteration      1(  14)  ---------------------------------------


    POTLOK:  cpu time    2.2137: real time    2.2148
    SETDIJ:  cpu time    2.0732: real time    2.0752
    TRIAL :  cpu time  345.7232: real time  346.6084
    CORREC:  cpu time    0.0010: real time    0.0010
    CHARGE:  cpu time    1.4091: real time    1.4100
    --------------------------------------------
      LOOP:  cpu time  351.4210: real time  352.3126

 eigenvalue-minimisations  :     0
 total energy-change (2. order) :-0.7336728E-02  (-0.6357448E-02)
 number of electron     248.0000004 magnetization       5.9997304
 augmentation part       13.5045341 magnetization       4.3700733

 DIPCOR: dipole corrections for dipol
 direction  3 min pos     1,
 dipolmoment           0.002669      0.005686     -0.258692 electrons x Angstroem
 Tr[quadrupol]     -6845.632625

 energy correction for charged system         0.000000 eV
 dipol+quadrupol energy correction           -0.001916 eV
 added-field ion interaction          0.182256 eV  (added to PSCEN)


 Free energy of the ion-electron system (eV)
  ---------------------------------------------------
  alpha Z        PSCENC =       104.85741229
  Ewald energy   TEWEN  =     39963.27664954
  -Hartree energ DENC   =    -48481.74286845
  -exchange      EXHF   =       563.63221927
  -V(xc)+E(xc)   XCENC  =       620.57969420
  PAW double counting   =     27370.54715629   -27397.68419835
  entropy T*S    EENTRO =        -0.00119540
  eigenvalues    EBANDS =     -3234.98867416
  atomic energy  EATOM  =      9869.41843337
  ---------------------------------------------------
  free energy    TOTEN  =      -622.10544625 eV

  energy without entropy =     -622.10425085  energy(sigma->0) =     -622.10484855
  exchange ACFDT corr.  =        -0.00039771  see jH, gK, PRB 81, 115126


--------------------------------------------------------------------------------------------------------




--------------------------------------- Iteration      1(  15)  ---------------------------------------


    POTLOK:  cpu time    2.2089: real time    2.2114
    SETDIJ:  cpu time    2.0769: real time    2.0782
    TRIAL :  cpu time  345.8343: real time  346.1301
    CORREC:  cpu time    0.0009: real time    0.0009
    CHARGE:  cpu time    1.4054: real time    1.4062
    --------------------------------------------
      LOOP:  cpu time  351.5273: real time  351.8308

 eigenvalue-minimisations  :     0
 total energy-change (2. order) :-0.5994713E-02  (-0.5230997E-02)
 number of electron     248.0000004 magnetization       5.9997232
 augmentation part       13.5058855 magnetization       4.3744267

 DIPCOR: dipole corrections for dipol
 direction  3 min pos     1,
 dipolmoment           0.002667      0.005683     -0.258543 electrons x Angstroem
 Tr[quadrupol]     -6845.634385

 energy correction for charged system         0.000000 eV
 dipol+quadrupol energy correction           -0.001913 eV
 added-field ion interaction          0.182151 eV  (added to PSCEN)


 Free energy of the ion-electron system (eV)
  ---------------------------------------------------
  alpha Z        PSCENC =       104.85730986
  Ewald energy   TEWEN  =     39963.27664954
  -Hartree energ DENC   =    -48481.83776052
  -exchange      EXHF   =       563.66112328
  -V(xc)+E(xc)   XCENC  =       620.59221738
  PAW double counting   =     27372.00441909   -27399.16251486
  entropy T*S    EENTRO =        -0.00113702
  eigenvalues    EBANDS =     -3234.92012270
  atomic energy  EATOM  =      9869.41843337
  ---------------------------------------------------
  free energy    TOTEN  =      -622.11144096 eV

  energy without entropy =     -622.11030394  energy(sigma->0) =     -622.11087245
  exchange ACFDT corr.  =        -0.00037131  see jH, gK, PRB 81, 115126


--------------------------------------------------------------------------------------------------------




--------------------------------------- Iteration      1(  16)  ---------------------------------------


    POTLOK:  cpu time    2.2074: real time    2.2082
    SETDIJ:  cpu time    2.0743: real time    2.0766
    TRIAL :  cpu time  347.6435: real time  347.8981
    CORREC:  cpu time    0.0009: real time    0.0009
    CHARGE:  cpu time    1.4042: real time    1.4049
    --------------------------------------------
      LOOP:  cpu time  353.3312: real time  353.5924

 eigenvalue-minimisations  :     0
 total energy-change (2. order) :-0.4956130E-02  (-0.4356265E-02)
 number of electron     248.0000004 magnetization       5.9997138
 augmentation part       13.5068825 magnetization       4.3780140

 DIPCOR: dipole corrections for dipol
 direction  3 min pos     1,
 dipolmoment           0.002667      0.005683     -0.258546 electrons x Angstroem
 Tr[quadrupol]     -6845.636102

 energy correction for charged system         0.000000 eV
 dipol+quadrupol energy correction           -0.001913 eV
 added-field ion interaction          0.182153 eV  (added to PSCEN)


 Free energy of the ion-electron system (eV)
  ---------------------------------------------------
  alpha Z        PSCENC =       104.85731185
  Ewald energy   TEWEN  =     39963.27664954
  -Hartree energ DENC   =    -48481.93027281
  -exchange      EXHF   =       563.68692938
  -V(xc)+E(xc)   XCENC  =       620.60286460
  PAW double counting   =     27373.81654577   -27400.99074589
  entropy T*S    EENTRO =        -0.00109135
  eigenvalues    EBANDS =     -3234.85297588
  atomic energy  EATOM  =      9869.41843337
  ---------------------------------------------------
  free energy    TOTEN  =      -622.11639709 eV

  energy without entropy =     -622.11530574  energy(sigma->0) =     -622.11585142
  exchange ACFDT corr.  =        -0.00035084  see jH, gK, PRB 81, 115126


--------------------------------------------------------------------------------------------------------




--------------------------------------- Iteration      1(  17)  ---------------------------------------


    POTLOK:  cpu time    2.2042: real time    2.2066
    SETDIJ:  cpu time    2.0691: real time    2.0702
    TRIAL :  cpu time  347.7118: real time  347.9767
    CORREC:  cpu time    0.0009: real time    0.0009
    CHARGE:  cpu time    1.4038: real time    1.4048
    --------------------------------------------
      LOOP:  cpu time  353.3908: real time  353.6630

 eigenvalue-minimisations  :     0
 total energy-change (2. order) :-0.4143654E-02  (-0.3664765E-02)
 number of electron     248.0000004 magnetization       5.9997029
 augmentation part       13.5076792 magnetization       4.3809872

 DIPCOR: dipole corrections for dipol
 direction  3 min pos     1,
 dipolmoment           0.002668      0.005686     -0.258652 electrons x Angstroem
 Tr[quadrupol]     -6845.637521

 energy correction for charged system         0.000000 eV
 dipol+quadrupol energy correction           -0.001915 eV
 added-field ion interaction          0.182228 eV  (added to PSCEN)


 Free energy of the ion-electron system (eV)
  ---------------------------------------------------
  alpha Z        PSCENC =       104.85738491
  Ewald energy   TEWEN  =     39963.27664954
  -Hartree energ DENC   =    -48482.00243047
  -exchange      EXHF   =       563.70984889
  -V(xc)+E(xc)   XCENC  =       620.61174896
  PAW double counting   =     27375.69502771   -27402.88033184
  entropy T*S    EENTRO =        -0.00105552
  eigenvalues    EBANDS =     -3234.80578045
  atomic energy  EATOM  =      9869.41843337
  ---------------------------------------------------
  free energy    TOTEN  =      -622.12054075 eV

  energy without entropy =     -622.11948523  energy(sigma->0) =     -622.12001299
  exchange ACFDT corr.  =        -0.00033491  see jH, gK, PRB 81, 115126


[...]
  Total     -44.08837   -46.86044    -0.15526    -3.57036    -0.58875    -0.44333
  in kB     -22.23483   -23.63285    -0.07830    -1.80062    -0.29692    -0.22358
  external pressure =      -15.32 kB  Pullay stress =        0.00 kB


 VOLUME and BASIS-vectors are now :
 -----------------------------------------------------------------------------
  energy-cutoff  :      500.00
  volume of cell :     3176.88
      direct lattice vectors                 reciprocal lattice vectors
    12.806700000  0.000000000  0.000000000     0.078084128  0.000549500  0.000817595
    -0.087538123 12.439191989  0.000000000     0.000000000  0.080391074  0.001767135
    -0.205723080 -0.438362252 19.942121767     0.000000000  0.000000000  0.050145116

  length of vectors
    12.806700000 12.439500000 19.948000000     0.078090341  0.080410494  0.050145116


 FORCES acting on ions:
    Electron-Ion                     Ewald-Force                    Non-Local-Force
 -----------------------------------------------------------------------------------------------
   0.483E+01 -.481E+01 0.866E+01   -.490E+01 0.469E+01 -.869E+01   0.137E+00 -.468E-01 0.304E-01
   -.164E+01 -.119E+01 0.110E+02   0.179E+01 0.111E+01 -.111E+02   -.155E+00 0.607E-01 0.272E-01
   0.641E+01 -.110E+00 0.856E+01   -.641E+01 -.381E-02 -.851E+01   -.609E-01 0.880E-01 -.515E-01
   0.139E+02 0.222E+01 0.490E+01   -.142E+02 -.234E+01 -.483E+01   0.287E+00 0.157E+00 -.719E-01
   0.626E+01 0.448E+01 -.133E+01   -.632E+01 -.458E+01 0.128E+01   0.886E-01 0.958E-01 0.401E-01
   0.315E+01 0.512E+01 0.156E+02   -.304E+01 -.542E+01 -.157E+02   -.598E-01 0.288E+00 0.103E+00
   0.532E+01 0.591E+01 0.717E+01   -.536E+01 -.602E+01 -.714E+01   -.260E-02 0.102E+00 -.342E-01
   0.208E+02 0.142E+02 -.117E+02   -.211E+02 -.145E+02 0.115E+02   0.292E+00 0.704E-01 0.193E+00
   0.248E+02 0.457E+02 -.376E+01   -.266E+02 -.483E+02 0.309E+01   0.179E+01 0.303E+01 0.666E+00
   0.145E+02 0.322E+01 0.811E+01   -.147E+02 -.304E+01 -.798E+01   0.218E+00 -.137E+00 -.117E+00
   0.165E+02 0.960E+01 0.136E+02   -.169E+02 -.987E+01 -.137E+02   0.382E+00 0.201E+00 0.105E+00
   0.266E+02 -.324E+02 0.148E+02   -.283E+02 0.356E+02 -.157E+02   0.169E+01 -.302E+01 0.931E+00
   0.110E+02 -.525E+01 0.177E+02   -.112E+02 0.545E+01 -.177E+02   0.224E+00 -.200E+00 0.526E-01
   0.175E+02 -.762E+01 0.140E+02   -.176E+02 0.816E+01 -.141E+02   0.131E+00 -.472E+00 0.828E-01
   0.327E+02 -.795E+01 0.215E+02   -.359E+02 0.778E+01 -.216E+02   0.304E+01 0.110E+00 0.119E+00
   0.152E+02 -.975E+01 0.181E+02   -.155E+02 0.969E+01 -.181E+02   0.281E+00 -.909E-01 0.675E-01
   0.223E+01 -.189E+01 0.133E+02   -.211E+01 0.195E+01 -.133E+02   -.898E-01 0.953E-02 0.440E-01
   0.726E+01 -.658E+01 0.142E+02   -.751E+01 0.640E+01 -.141E+02   0.217E+00 0.126E+00 -.730E-01
   0.129E+02 -.757E+01 0.147E+02   -.133E+02 0.799E+01 -.147E+02   0.252E+00 -.230E+00 0.394E-01
   -.197E+01 -.204E+01 0.260E+02   0.168E+01 0.207E+01 -.260E+02   0.252E+00 -.750E-01 0.159E-01
   0.591E+01 0.660E+01 0.162E+02   -.642E+01 -.702E+01 -.162E+02   0.407E+00 0.412E+00 0.756E-01
   0.519E+01 -.437E+01 0.215E+02   -.501E+01 0.430E+01 -.216E+02   -.124E+00 0.799E-02 0.182E-01
   -.772E+01 0.632E+01 0.271E+02   0.790E+01 -.679E+01 -.272E+02   -.129E+00 0.493E+00 0.947E-01
   -.177E+01 0.179E+02 0.192E+02   0.168E+01 -.186E+02 -.190E+02   0.134E+00 0.682E+00 -.137E+00
   0.357E+02 0.405E+02 -.125E+01   -.380E+02 -.437E+02 0.567E+00   0.239E+01 0.316E+01 0.661E+00
   0.791E+01 0.187E+02 0.170E+02   -.827E+01 -.193E+02 -.172E+02   0.296E+00 0.572E+00 0.191E+00
   -.201E+02 0.246E+02 0.228E+02   0.209E+02 -.258E+02 -.232E+02   -.695E+00 0.111E+01 0.341E+00
   -.312E+02 0.334E+02 -.512E+01   0.332E+02 -.371E+02 0.437E+01   -.216E+01 0.370E+01 0.770E+00
   0.347E+01 -.319E+02 0.279E+02   -.532E+01 0.352E+02 -.280E+02   0.166E+01 -.317E+01 0.126E+00
   0.707E+01 -.151E+02 0.194E+02   -.709E+01 0.154E+02 -.193E+02   0.132E+00 -.315E+00 -.372E-01
   -.463E+01 -.341E+02 0.301E+02   0.588E+01 0.369E+02 -.305E+02   -.111E+01 -.273E+01 0.471E+00
   -.945E+01 -.132E+02 0.263E+02   0.931E+01 0.136E+02 -.263E+02   0.849E-01 -.425E+00 0.608E-01
   -.569E+01 -.868E+00 0.206E+02   0.584E+01 0.817E+00 -.206E+02   -.113E+00 0.347E-01 0.139E-01
   -.889E+01 0.334E+01 0.275E+02   0.893E+01 -.345E+01 -.275E+02   -.111E+00 0.148E+00 0.437E-02
   -.787E+01 0.753E+00 0.257E+02   0.804E+01 -.794E+00 -.258E+02   -.188E+00 -.303E-01 0.582E-01
   -.834E+00 0.303E+01 0.190E+02   0.101E+01 -.318E+01 -.191E+02   -.164E+00 0.130E+00 0.402E-01
   -.842E+01 0.247E+01 0.221E+02   0.870E+01 -.253E+01 -.221E+02   -.261E+00 0.807E-01 0.183E-01
   -.205E+02 0.749E+01 0.220E+02   0.212E+02 -.768E+01 -.221E+02   -.701E+00 0.155E+00 0.129E+00
   -.978E+01 0.733E+01 0.265E+02   0.101E+02 -.763E+01 -.266E+02   -.278E+00 0.313E+00 0.806E-01
   -.174E+01 0.712E+00 0.192E+02   0.186E+01 -.796E+00 -.192E+02   -.142E+00 0.449E-01 0.559E-01
   -.824E+01 0.179E+01 0.137E+02   0.872E+01 -.160E+01 -.137E+02   -.419E+00 -.148E+00 0.439E-01
   -.468E+02 -.167E+02 0.168E+00   0.511E+02 0.174E+02 -.688E+00   -.417E+01 -.648E+00 0.489E+00
   -.199E+02 -.235E+01 0.985E+01   0.205E+02 0.229E+01 -.986E+01   -.579E+00 0.989E-01 0.366E-02
   0.106E+01 -.472E+01 0.889E+01   -.116E+01 0.503E+01 -.887E+01   0.901E-01 -.319E+00 -.174E-01
   0.174E+01 -.716E+00 0.989E+01   -.165E+01 0.964E+00 -.991E+01   -.245E-01 -.178E+00 0.282E-01
   -.415E+02 0.815E+01 0.116E+02   0.451E+02 -.829E+01 -.115E+02   -.373E+01 0.204E+00 -.111E+00
   -.133E+02 -.617E+01 0.587E+01   0.136E+02 0.641E+01 -.592E+01   -.252E+00 -.253E+00 0.579E-01
   -.355E+00 -.761E+00 0.153E+02   0.432E+00 0.613E+00 -.152E+02   -.150E+00 0.105E+00 0.575E-02
   -.438E+01 -.335E+01 0.165E+02   0.466E+01 0.314E+01 -.165E+02   -.310E+00 0.178E+00 0.234E-01
   -.130E+02 -.458E+01 0.230E+02   0.132E+02 0.483E+01 -.230E+02   -.231E+00 -.135E+00 0.111E-01
   -.150E+02 -.431E+00 0.173E+02   0.155E+02 0.540E+00 -.173E+02   -.435E+00 -.152E+00 0.341E-01
   -.322E+00 0.186E+01 0.167E+02   0.423E+00 -.187E+01 -.167E+02   -.105E+00 0.451E-01 0.676E-02
   -.323E+01 -.246E+01 -.301E+02   0.237E+02 0.340E+01 0.320E+02   -.195E+02 -.107E+01 -.211E+01
   0.290E+02 0.528E+01 -.530E+02   -.389E+02 0.116E+02 0.568E+02   0.974E+01 -.159E+02 -.378E+01
   -.274E+02 -.585E+02 -.320E+02   0.181E+02 0.757E+02 0.344E+02   0.889E+01 -.164E+02 -.226E+01
   0.273E+01 0.286E+02 0.434E+02   0.622E+01 -.449E+02 -.440E+02   -.839E+01 0.154E+02 0.592E+00
   -.103E+02 0.362E+02 0.337E+02   0.108E+01 -.520E+02 -.340E+02   0.884E+01 0.149E+02 0.295E+00
   0.233E+02 -.380E+02 -.772E+03   -.246E+02 0.363E+02 0.765E+03   0.366E+00 0.119E+01 0.819E+01
   -.146E+02 -.185E+02 0.381E+02   0.170E+02 0.218E+02 -.369E+02   -.210E+01 -.301E+01 -.186E+01
 -----------------------------------------------------------------------------------------------
   0.446E+01 0.157E+01 -.453E+01   0.256E-12 -.149E-12 -.284E-13   -.459E+01 -.159E+01 0.484E+01
 
 
 POSITION                                       TOTAL-FORCE (eV/Angst)
 -----------------------------------------------------------------------------------
      2.74635     -0.18900      9.93537         0.066910     -0.179346     -0.005330
      0.62592      1.05377      9.91408        -0.015217     -0.024784     -0.005735
      1.32065     -0.19754      9.91795        -0.062173     -0.020177     -0.009047
      3.45214      1.06839      9.97431         0.087862      0.037704     -0.008367
      2.76261      2.33315     10.03024         0.023557     -0.004116     -0.002180
      0.60761      3.54919      9.95194         0.046769      0.004393      0.031067
      1.33069      2.31138      9.96587        -0.043428      0.006048     -0.005693
      3.48106      3.59208     10.14593         0.063411     -0.173612     -0.006407
      2.72062      4.85158     10.16509         0.095232      0.528954      0.033836
      0.55076      6.04364      9.99233         0.021451      0.042534      0.005951
      1.29299      4.80615     10.01694        -0.028437     -0.071197      0.027173
      2.68536      7.28461     10.08674         0.004424     -0.034931      0.048269
      0.51948      8.51087      9.92689         0.072219     -0.007373      0.023973
      1.25432      7.28846      9.99221        -0.040349      0.048747      0.031434
      3.42788      8.52032      9.99655        -0.072685     -0.050677     -0.003944
      2.67745      9.74619      9.93419         0.004103     -0.154359      0.027118
      0.52806     10.99248      9.89696         0.027813      0.072677      0.007588
      1.24070      9.74519      9.91847        -0.017898     -0.050018      0.008463
      3.36513     11.01114      9.92040        -0.076740      0.182810      0.002366
      7.00797     -0.20208      9.85844        -0.023960     -0.047484      0.024353
      4.87064      1.04382      9.94513        -0.090990      0.018605      0.018549
      5.58768     -0.19237      9.89141         0.049911     -0.057967      0.004957
      7.73201      1.01777      9.86553         0.038944      0.040464      0.024897
      7.01839      2.23587      9.94741         0.050321      0.032589      0.013183
      4.92370      3.51959     10.16617         0.158094      0.101889      0.011943
      5.59355      2.26873     10.00033        -0.045438      0.029992      0.033381
      7.75126      3.44259      9.98613         0.061048     -0.026357      0.004465
      7.05252      4.63526     10.16908        -0.266452      0.138927      0.054745
      6.92518      9.78480      9.88977        -0.098817      0.025192     -0.013413
      4.79235     11.00914      9.90318         0.120194     -0.024522      0.000529
      5.49285      9.77711      9.90931         0.084028     -0.021363      0.063270
      7.63080     11.00712      9.85284        -0.052679      0.028699      0.015037
     11.29409     -0.20850      9.84862         0.026877     -0.020004      0.020341
      9.15721      1.02476      9.84052        -0.075873      0.034522      0.033437
      9.86502     -0.21484      9.83157        -0.027253     -0.072670      0.025897
     12.00724      1.03887      9.86850         0.005453     -0.008041      0.012345
     11.29643      2.28077      9.86933        -0.006021      0.022244      0.025472
      9.16272      3.48662      9.92432        -0.050144     -0.024088      0.021876
      9.87429      2.26069      9.86222        -0.021498      0.033956      0.025621
     11.98280      3.53652      9.90740        -0.026916     -0.041094      0.024615
     11.24873      4.77398      9.93600         0.031023      0.036382      0.020491
      9.04529      5.95905     10.03909        -0.151989     -0.058351     -0.004983
      9.82310      4.74939      9.96575        -0.014094      0.038785     -0.006767
     11.92234      6.03273      9.95636        -0.000616     -0.034153      0.006329
     11.16024      7.25935      9.94267         0.074737      0.063430      0.010894
      8.98441      8.50902      9.93361        -0.270143      0.077630     -0.021588
      9.70249      7.24438      9.97332         0.023677     -0.032868      0.004801
     11.88677      8.49451      9.90998        -0.084854     -0.035709      0.011831
     11.17811      9.73599      9.88082        -0.043316     -0.029964      0.016754
      9.05757     10.99270      9.84682        -0.008552      0.104203      0.014272
      9.74452      9.73528      9.88042         0.019482     -0.047891      0.005067
     11.90285     10.98186      9.86984        -0.007461      0.044340      0.008539
      3.34619      6.07843     10.31273        -0.650449     -0.221316     -0.350673
      5.69807      4.65212     10.36766         0.638529     -0.426827     -0.330933
      7.67234      5.85667     10.17380         0.325768     -0.629606     -0.075750
      4.83497      8.54663      9.97982        -0.170308      0.436897      0.016155
      7.59953      8.57102      9.93166         0.381201      0.332642      0.006265
      4.93634      6.08783     11.44972        -0.418421     -0.247145      0.405611
      6.24319      7.19070     10.15610         0.360132      0.312753     -0.382350
 -----------------------------------------------------------------------------------
    total drift:                                0.040723      0.082541      0.012340


--------------------------------------------------------------------------------------------------------



  FREE ENERGIE OF THE ION-ELECTRON SYSTEM (eV)
  ---------------------------------------------------
  free  energy   TOTEN  =      -622.15110206 eV

  energy  without entropy=     -622.15024715  energy(sigma->0) =     -622.15067460
 


--------------------------------------------------------------------------------------------------------


    POTLOK:  cpu time    4.2594: real time    4.2614


--------------------------------------------------------------------------------------------------------


 stress matrix after NEB project (eV)
    -44.08837     -3.57128     -0.44333
     -3.57036    -46.86044     -0.58593
     -0.44468     -0.58875     -0.15526
  FORCES: max atom, RMS     0.836312    0.257752
  FORCE total and by dimension    1.979829    0.650449
  Stress total and by dimension   64.546840   46.860435
 writing wavefunctions
     LOOP+:  cpu time20904.2524: real time20930.4389
    4ORBIT:  cpu time    0.0000: real time    0.0000
 


 total charge     
 
# of ion       s       p       d       tot
------------------------------------------
    1        0.863   1.764   0.000   2.627
    2        0.864   1.755   0.000   2.619
    3        0.864   1.768   0.000   2.632
    4        0.861   1.763   0.000   2.624
    5        0.859   1.732   0.000   2.591
    6        0.863   1.756   0.000   2.620
    7        0.860   1.759   0.000   2.618
    8        0.846   1.738   0.000   2.584
    9        0.852   1.691   0.000   2.543
   10        0.864   1.745   0.000   2.609
   11        0.860   1.762   0.000   2.623
   12        0.850   1.731   0.000   2.581
   13        0.862   1.764   0.000   2.626
   14        0.865   1.768   0.000   2.632
   15        0.847   1.710   0.000   2.557
   16        0.861   1.749   0.000   2.610
   17        0.863   1.754   0.000   2.617
   18        0.862   1.759   0.000   2.620
   19        0.863   1.765   0.000   2.629
   20        0.868   1.791   0.000   2.659
   21        0.869   1.772   0.000   2.641
   22        0.865   1.779   0.000   2.644
   23        0.870   1.790   0.000   2.660
   24        0.873   1.784   0.000   2.657
   25        0.857   1.715   0.000   2.572
   26        0.866   1.784   0.000   2.651
   27        0.876   1.832   0.000   2.709
   28        0.869   1.741   0.000   2.610
   29        0.860   1.757   0.000   2.617
   30        0.868   1.780   0.000   2.648
   31        0.858   1.744   0.000   2.601
   32        0.870   1.789   0.000   2.659
   33        0.865   1.759   0.000   2.623
   34        0.867   1.769   0.000   2.636
   35        0.865   1.776   0.000   2.641
   36        0.863   1.767   0.000   2.631
   37        0.867   1.765   0.000   2.632
   38        0.871   1.782   0.000   2.654
   39        0.868   1.783   0.000   2.651
   40        0.862   1.761   0.000   2.623
   41        0.866   1.756   0.000   2.622
   42        0.855   1.706   0.000   2.560
   43        0.863   1.777   0.000   2.640
   44        0.860   1.761   0.000   2.621
   45        0.856   1.732   0.000   2.588
   46        0.851   1.696   0.000   2.547
   47        0.847   1.745   0.000   2.592
   48        0.860   1.762   0.000   2.623
   49        0.863   1.751   0.000   2.614
   50        0.867   1.762   0.000   2.629
   51        0.860   1.763   0.000   2.623
   52        0.862   1.759   0.000   2.621
   53        1.228   2.664   0.000   3.893
   54        1.230   2.695   0.000   3.925
   55        1.232   2.698   0.000   3.930
   56        1.218   2.666   0.000   3.884
   57        1.226   2.678   0.000   3.903
   58        0.418   0.352   6.413   7.183
   59        0.358   0.413   5.040   5.811
--------------------------------------------------
tot         51.747 105.590  11.453 168.791
 


 magnetization (x)
 
# of ion       s       p       d       tot
------------------------------------------
    1       -0.000  -0.000   0.000  -0.000
    2       -0.000  -0.003   0.000  -0.003
    3        0.000   0.003   0.000   0.003
    4        0.000   0.003   0.000   0.004
    5       -0.000  -0.004   0.000  -0.005
    6       -0.000  -0.002   0.000  -0.002
    7        0.000   0.004   0.000   0.004
    8        0.001   0.009   0.000   0.010
    9       -0.000  -0.006   0.000  -0.006
   10       -0.001  -0.008   0.000  -0.009
   11        0.001   0.005   0.000   0.006
   12        0.000  -0.005   0.000  -0.004
   13        0.000   0.001   0.000   0.001
   14        0.001   0.005   0.000   0.006
   15        0.001   0.004   0.000   0.004
   16       -0.000  -0.001   0.000  -0.002
   17       -0.000  -0.003   0.000  -0.004
   18        0.000   0.004   0.000   0.004
   19        0.000   0.000   0.000   0.000
   20       -0.000   0.000   0.000   0.000
   21       -0.000  -0.002   0.000  -0.003
   22        0.000   0.001   0.000   0.002
   23        0.000   0.002   0.000   0.002
   24       -0.000  -0.000   0.000  -0.000
   25       -0.001  -0.004   0.000  -0.004
   26        0.001   0.004   0.000   0.005
   27        0.000   0.001   0.000   0.001
   28        0.001   0.010   0.000   0.011
   29        0.002   0.005   0.000   0.007
   30       -0.000  -0.003   0.000  -0.003
   31        0.001   0.003   0.000   0.004
   32        0.000   0.000   0.000   0.000
   33       -0.000  -0.002   0.000  -0.002
   34       -0.000   0.000   0.000   0.000
   35        0.000   0.001   0.000   0.002
   36        0.000   0.003   0.000   0.004
   37       -0.000  -0.005   0.000  -0.005
   38        0.000   0.001   0.000   0.001
   39        0.000   0.002   0.000   0.002
   40        0.000   0.003   0.000   0.003
   41       -0.000  -0.004   0.000  -0.005
   42       -0.000  -0.006   0.000  -0.006
   43        0.000   0.003   0.000   0.003
   44        0.000   0.005   0.000   0.005
   45       -0.000  -0.003   0.000  -0.004
   46        0.000  -0.000   0.000  -0.000
   47        0.000   0.004   0.000   0.004
   48        0.000   0.003   0.000   0.004
   49       -0.000  -0.002   0.000  -0.002
   50       -0.000  -0.003   0.000  -0.004
   51       -0.000   0.001   0.000   0.001
   52        0.000   0.003   0.000   0.003
   53        0.004   0.027   0.000   0.031
   54        0.004   0.021   0.000   0.025
   55       -0.005  -0.017   0.000  -0.022
   56       -0.006  -0.029   0.000  -0.034
   57       -0.009  -0.049   0.000  -0.058
   58       -0.028   0.006   2.802   2.781
   59        0.017   0.006   2.954   2.978
--------------------------------------------------
tot         -0.016  -0.008   5.757   5.733
 

 total amount of memory used by VASP MPI-rank0   225304. kBytes
=======================================================================

   base      :      30000. kBytes
   nonl-proj :       7130. kBytes
   fftplans  :      18630. kBytes
   grid      :      49102. kBytes
   one-center:         93. kBytes
   HF        :         23. kBytes
   nonlr-proj:      16094. kBytes
   wavefun   :     104232. kBytes
 
  
  
 General timing and accounting informations for this job:
 ========================================================
  
                  Total CPU time used (sec):    20956.465
                            User time (sec):    20921.776
                          System time (sec):       34.690
                         Elapsed time (sec):    20989.326
  
                   Maximum memory used (kb):      496004.
                   Average memory used (kb):           0.
  
                          Minor page faults:      1283153
                          Major page faults:          221
                 Voluntary context switches:       259085
