 vasp.5.4.4.18Apr17-6-g9f103f2a35 (build Feb 25 2019 10:51:38) complex          
  
 executed on             LinuxIFC date 2021.06.16  07:28:46
 running on   80 total cores
 distrk:  each k-point on   40 cores,    2 groups
 distr:  one band on NCORES_PER_BAND=  40 cores,    1 groups


--------------------------------------------------------------------------------------------------------


 INCAR:
 POTCAR:    PAW_PBE C 08Apr2002                   
 POTCAR:    PAW_PBE N 08Apr2002                   
 POTCAR:    PAW_PBE Fe 06Sep2000                  

 ----------------------------------------------------------------------------- 
|                                                                             |
|           W    W    AA    RRRRR   N    N  II  N    N   GGGG   !!!           |
|           W    W   A  A   R    R  NN   N  II  NN   N  G    G  !!!           |
|           W    W  A    A  R    R  N N  N  II  N N  N  G       !!!           |
|           W WW W  AAAAAA  RRRRR   N  N N  II  N  N N  G  GGG   !            |
|           WW  WW  A    A  R   R   N   NN  II  N   NN  G    G                |
|           W    W  A    A  R    R  N    N  II  N    N   GGGG   !!!           |
|                                                                             |
|      For optimal performance we recommend to set                            |
|        NCORE= 4 - approx SQRT( number of cores)                             |
|      NCORE specifies how many cores store one orbital (NPAR=cpu/NCORE).     |
|      This setting can  greatly improve the performance of VASP for DFT.     |
|      The default,   NCORE=1            might be grossly inefficient         |
|      on modern multi-core architectures or massively parallel machines.     |
|      Do your own testing !!!!                                               |
|      Unfortunately you need to use the default for GW and RPA calculations. |
|      (for HF NCORE is supported but not extensively tested yet)             |
|                                                                             |
 ----------------------------------------------------------------------------- 


 ----------------------------------------------------------------------------- 
|                                                                             |
|           W    W    AA    RRRRR   N    N  II  N    N   GGGG   !!!           |
|           W    W   A  A   R    R  NN   N  II  NN   N  G    G  !!!           |
|           W    W  A    A  R    R  N N  N  II  N N  N  G       !!!           |
|           W WW W  AAAAAA  RRRRR   N  N N  II  N  N N  G  GGG   !            |
|           WW  WW  A    A  R   R   N   NN  II  N   NN  G    G                |
|           W    W  A    A  R    R  N    N  II  N    N   GGGG   !!!           |
|                                                                             |
|      You have enabled k-point parallelism (KPAR>1).                         |
|      This developmental code was originally  written by Paul Kent at ORNL,  |
|      and carefully double checked in Vienna.                                |
|      GW as well as linear response parallelism added by Martijn Marsman     |
|      and Georg Kresse.                                                      |
|      Carefully verify results versus KPAR=1.                                |
|      Report problems to Paul Kent and Vienna.                               |
|                                                                             |
 ----------------------------------------------------------------------------- 

 POTCAR:    PAW_PBE C 08Apr2002                   
   VRHFIN =C: s2p2                                                              
   LEXCH  = PE                                                                  
   EATOM  =   147.1560 eV,   10.8157 Ry                                         
                                                                                
   TITEL  = PAW_PBE C 08Apr2002                                                 
   LULTRA =        F    use ultrasoft PP ?                                      
   IUNSCR =        1    unscreen: 0-lin 1-nonlin 2-no                           
   RPACOR =    1.200    partial core radius                                     
   POMASS =   12.011; ZVAL   =    4.000    mass and valenz                      
   RCORE  =    1.500    outmost cutoff radius                                   
   RWIGS  =    1.630; RWIGS  =    0.863    wigner-seitz radius (au A)           
   ENMAX  =  400.000; ENMIN  =  300.000 eV                                      
   ICORE  =        2    local potential                                         
   LCOR   =        T    correct aug charges                                     
   LPAW   =        T    paw PP                                                  
   EAUG   =  644.873                                                            
   DEXC   =    0.000                                                            
   RMAX   =    1.529    core radius for proj-oper                               
   RAUG   =    1.300    factor for augmentation sphere                          
   RDEP   =    1.501    radius for radial grids                                 
   RDEPT  =    1.300    core radius for aug-charge                              
                                                                                
   Atomic configuration                                                         
    4 entries                                                                   
     n  l   j            E        occ.                                          
     1  0  0.50      -273.3789   2.0000                                         
     2  0  0.50       -13.7508   2.0000                                         
     2  1  0.50        -5.2854   2.0000                                         
     3  2  1.50        -5.4423   0.0000                                         
   Description                                                                  
     l       E           TYP  RCUT    TYP  RCUT                                 
     0    -13.7508458     23  1.200                                             
     0     -8.2022199     23  1.200                                             
     1     -5.2854383     23  1.500                                             
     1     34.0145650     23  1.500                                             
     2     -5.4423304      7  1.500                                             
  local pseudopotential read in
  partial core-charges read in
  partial kinetic energy density read in
  atomic valenz-charges read in
  non local Contribution for L=           0  read in
    real space projection operators read in
  non local Contribution for L=           0  read in
    real space projection operators read in
  non local Contribution for L=           1  read in
    real space projection operators read in
  non local Contribution for L=           1  read in
    real space projection operators read in
    PAW grid and wavefunctions read in
 
   number of l-projection  operators is LMAX  =           4
   number of lm-projection operators is LMMAX =           8
 
 POTCAR:    PAW_PBE N 08Apr2002                   
   VRHFIN =N: s2p3                                                              
   LEXCH  = PE                                                                  
   EATOM  =   264.5486 eV,   19.4438 Ry                                         
                                                                                
   TITEL  = PAW_PBE N 08Apr2002                                                 
   LULTRA =        F    use ultrasoft PP ?                                      
   IUNSCR =        1    unscreen: 0-lin 1-nonlin 2-no                           
   RPACOR =    1.200    partial core radius                                     
   POMASS =   14.001; ZVAL   =    5.000    mass and valenz                      
   RCORE  =    1.500    outmost cutoff radius                                   
   RWIGS  =    1.400; RWIGS  =    0.741    wigner-seitz radius (au A)           
   ENMAX  =  400.000; ENMIN  =  300.000 eV                                      
   ICORE  =        2    local potential                                         
   LCOR   =        T    correct aug charges                                     
   LPAW   =        T    paw PP                                                  
   EAUG   =  627.112                                                            
   DEXC   =    0.000                                                            
   RMAX   =    1.529    core radius for proj-oper                               
   RAUG   =    1.300    factor for augmentation sphere                          
   RDEP   =    1.514    radius for radial grids                                 
   RDEPT  =    1.338    core radius for aug-charge                              
                                                                                
   Atomic configuration                                                         
    4 entries                                                                   
     n  l   j            E        occ.                                          
     1  0  0.50      -384.7179   2.0000                                         
     2  0  0.50       -18.5828   2.0000                                         
     2  1  0.50        -7.0898   3.0000                                         
     3  2  1.50        -6.8029   0.0000                                         
   Description                                                                  
     l       E           TYP  RCUT    TYP  RCUT                                 
     0    -18.5828119     23  1.200                                             
     0    -13.5018863     23  1.200                                             
     1     -7.0897853     23  1.500                                             
     1      9.5240782     23  1.500                                             
     2     -6.8029130      7  1.500                                             
  local pseudopotential read in
  partial core-charges read in
  partial kinetic energy density read in
  atomic valenz-charges read in
  non local Contribution for L=           0  read in
    real space projection operators read in
  non local Contribution for L=           0  read in
    real space projection operators read in
  non local Contribution for L=           1  read in
    real space projection operators read in
  non local Contribution for L=           1  read in
    real space projection operators read in
    PAW grid and wavefunctions read in
 
   number of l-projection  operators is LMAX  =           4
   number of lm-projection operators is LMMAX =           8
 
 POTCAR:    PAW_PBE Fe 06Sep2000                  
   VRHFIN =Fe:  d7 s1                                                           
   LEXCH  = PE                                                                  
   EATOM  =   594.3153 eV,   43.6809 Ry                                         
                                                                                
   TITEL  = PAW_PBE Fe 06Sep2000                                                
   LULTRA =        F    use ultrasoft PP ?                                      
   IUNSCR =        1    unscreen: 0-lin 1-nonlin 2-no                           
   RPACOR =    2.000    partial core radius                                     
   POMASS =   55.847; ZVAL   =    8.000    mass and valenz                      
   RCORE  =    2.300    outmost cutoff radius                                   
   RWIGS  =    2.460; RWIGS  =    1.302    wigner-seitz radius (au A)           
   ENMAX  =  267.882; ENMIN  =  200.911 eV                                      
   RCLOC  =    1.701    cutoff for local pot                                    
   LCOR   =        T    correct aug charges                                     
   LPAW   =        T    paw PP                                                  
   EAUG   =  511.368                                                            
   DEXC   =    0.000                                                            
   RMAX   =    2.356    core radius for proj-oper                               
   RAUG   =    1.300    factor for augmentation sphere                          
   RDEP   =    2.442    radius for radial grids                                 
   RDEPT  =    1.890    core radius for aug-charge                              
                                                                                
   Atomic configuration                                                         
    9 entries                                                                   
     n  l   j            E        occ.                                          
     1  0  0.50     -6993.8440   2.0000                                         
     2  0  0.50      -814.6047   2.0000                                         
     2  1  1.50      -693.3689   6.0000                                         
     3  0  0.50       -89.4732   2.0000                                         
     3  1  1.50       -55.6373   6.0000                                         
     3  2  2.50        -3.8151   7.0000                                         
     4  0  0.50        -4.2551   1.0000                                         
     4  1  1.50        -3.4015   0.0000                                         
     4  3  2.50        -1.3606   0.0000                                         
   Description                                                                  
     l       E           TYP  RCUT    TYP  RCUT                                 
     2     -3.8151135     23  2.300                                             
     2     -5.1756961     23  2.300                                             
     0     -4.2550963     23  2.300                                             
     0      7.2035603     23  2.300                                             
     1     -2.7211652     23  2.300                                             
     1     18.4316424     23  2.300                                             
  local pseudopotential read in
  partial core-charges read in
  partial kinetic energy density read in
  atomic valenz-charges read in
  non local Contribution for L=           2  read in
    real space projection operators read in
  non local Contribution for L=           2  read in
    real space projection operators read in
  non local Contribution for L=           0  read in
    real space projection operators read in
  non local Contribution for L=           0  read in
    real space projection operators read in
  non local Contribution for L=           1  read in
    real space projection operators read in
  non local Contribution for L=           1  read in
    real space projection operators read in
    PAW grid and wavefunctions read in
 
   number of l-projection  operators is LMAX  =           6
   number of lm-projection operators is LMMAX =          18
 

 ----------------------------------------------------------------------------- 
|                                                                             |
|  ADVICE TO THIS USER RUNNING 'VASP/VAMP'   (HEAR YOUR MASTER'S VOICE ...):  |
|                                                                             |
|      You have a (more or less) 'large supercell' and for larger cells       |
|      it might be more efficient to use real space projection opertators     |
|      So try LREAL= Auto  in the INCAR   file.                               |
|      Mind:          For very  accurate calculation you might also keep the  |
|      reciprocal projection scheme          (i.e. LREAL=.FALSE.)             |
|                                                                             |
 ----------------------------------------------------------------------------- 

  PAW_PBE C 08Apr2002                   :
 energy of atom  1       EATOM= -147.1560
 kinetic energy error for atom=    0.0076 (will be added to EATOM!!)
  PAW_PBE N 08Apr2002                   :
 energy of atom  2       EATOM= -264.5486
 kinetic energy error for atom=    0.0138 (will be added to EATOM!!)
  PAW_PBE Fe 06Sep2000                  :
 energy of atom  3       EATOM= -594.3153
 kinetic energy error for atom=    0.0026 (will be added to EATOM!!)
 
 
 POSCAR:  C  N Fe                                
  positions in cartesian coordinates
  No initial velocities read in
 exchange correlation table for  LEXCH =        8
   RHO(1)=    0.500       N(1)  =     2000
   RHO(2)=  100.500       N(2)  =     4000

 VTST: version 3.2, (02/03/18)

 CHAIN: initializing optimizer
 
 OPT: Using VASP Conjugate-Gradient optimizer
 CHAIN: Read ICHAIN            0
 
 POSCAR:  C  N Fe                                
  positions in cartesian coordinates
  No initial velocities read in
 


--------------------------------------------------------------------------------------------------------


 ion  position               nearest neighbor table
   1  0.228  1.000  0.500-   3 1.46  18 1.46   4 1.46
   2  0.058  0.100  0.500-   7 1.42   3 1.43  33 1.45
   3  0.116  1.000  0.500-   2 1.43  16 1.43   1 1.46
   4  0.283  0.105  0.500-   5 1.46  20 1.46   1 1.46
   5  0.223  0.205  0.500-  50 1.39   7 1.45   4 1.46
   6  0.051  0.299  0.500-  10 1.41  37 1.42   7 1.43
   7  0.112  0.201  0.500-   2 1.42   6 1.43   5 1.45
   8  0.210  0.400  0.500-  50 1.38  10 1.39  11 1.41
   9  0.048  0.500  0.500-  41 1.41  14 1.42  10 1.42
  10  0.102  0.400  0.500-   8 1.39   6 1.41   9 1.42
  11  0.263  0.500  0.499-  54 1.34   8 1.41  12 1.41
  12  0.210  0.600  0.500-  51 1.38  14 1.39  11 1.41
  13  0.051  0.701  0.500-  14 1.41  45 1.42  17 1.43
  14  0.102  0.600  0.500-  12 1.39  13 1.41   9 1.42
  15  0.223  0.795  0.500-  51 1.39  17 1.45  18 1.46
  16  0.058  0.900  0.500-  17 1.42   3 1.43  49 1.45
  17  0.112  0.799  0.500-  16 1.42  13 1.43  15 1.45
  18  0.283  0.895  0.500-  15 1.46  28 1.46   1 1.46
  19  0.558  1.000  0.500-  22 1.42  29 1.42  21 1.43
  20  0.395  0.104  0.499-  52 1.40  21 1.45   4 1.46
  21  0.448  1.000  0.500-  19 1.43  28 1.45  20 1.45
  22  0.614  0.100  0.500-  23 1.42  19 1.42  31 1.43
  23  0.559  0.199  0.500-  52 1.39  22 1.42  24 1.44
  24  0.614  0.302  0.500-  53 1.40  35 1.42  23 1.44
  25  0.608  0.500  0.499-  53 1.40  55 1.40  39 1.45
  26  0.614  0.698  0.500-  55 1.40  43 1.42  27 1.44
  27  0.559  0.800  0.500-  56 1.39  29 1.42  26 1.44
  28  0.395  0.896  0.500-  56 1.40  21 1.45  18 1.46
  29  0.614  0.900  0.500-  27 1.42  19 1.42  47 1.43
  30  0.891  1.000  0.500-  49 1.42  33 1.42  32 1.44
  31  0.725  0.099  0.500-  36 1.41  32 1.42  22 1.43
  32  0.781  1.000  0.500-  47 1.42  31 1.42  30 1.44
  33  0.947  0.100  0.500-  30 1.42  34 1.43   2 1.45
  34  0.889  0.199  0.500-  37 1.41  33 1.43  36 1.43
  35  0.722  0.299  0.500-  24 1.42  40 1.42  36 1.43
  36  0.779  0.199  0.500-  31 1.41  35 1.43  34 1.43
  37  0.942  0.299  0.500-  34 1.41   6 1.42  38 1.43
  38  0.885  0.399  0.500-  41 1.42  40 1.42  37 1.43
  39  0.719  0.500  0.500-  44 1.43  40 1.43  25 1.45
  40  0.776  0.400  0.500-  35 1.42  38 1.42  39 1.43
  41  0.940  0.500  0.500-   9 1.41  38 1.42  42 1.42
  42  0.885  0.600  0.500-  41 1.42  44 1.42  45 1.43
  43  0.722  0.701  0.500-  26 1.42  44 1.42  48 1.43
  44  0.776  0.600  0.500-  43 1.42  42 1.42  39 1.43
  45  0.942  0.701  0.500-  46 1.41  13 1.42  42 1.43
  46  0.889  0.801  0.500-  45 1.41  49 1.43  48 1.43
  47  0.725  0.900  0.500-  48 1.41  32 1.42  29 1.43
  48  0.779  0.801  0.500-  47 1.41  43 1.43  46 1.43
  49  0.947  0.900  0.500-  30 1.42  46 1.43  16 1.45
  50  0.270  0.307  0.499-   8 1.38   5 1.39  57 1.93
  51  0.270  0.693  0.500-  12 1.38  15 1.39  58 1.93
  52  0.452  0.201  0.499-  23 1.39  20 1.40  57 1.95
  53  0.557  0.399  0.499-  25 1.40  24 1.40  57 1.97
  54  0.367  0.500  0.499-  11 1.34  57 1.88  58 1.88
  55  0.557  0.600  0.499-  25 1.40  26 1.40  58 1.97
  56  0.452  0.799  0.500-  27 1.39  28 1.40  58 1.95
  57  0.412  0.354  0.498-  54 1.88  50 1.93  52 1.95  53 1.97
  58  0.412  0.646  0.499-  54 1.88  51 1.93  56 1.95  55 1.97
 
  LATTYP: Found a triclinic cell.
 ALAT       =    40.9157512141
 B/A-ratio  =     0.3177920389
 C/A-ratio  =     0.2994030327
 COS(alpha) =     0.0000244346
 COS(beta)  =     0.5989083729
 COS(gamma) =     0.6353911246
  
  Lattice vectors:
  
 A1 = (  25.9975051765, -24.5041507560, -19.9442978754)
 A2 = (  13.0027000000,   0.0000000000,   0.0000000000)
 A3 = (   0.0002993313, -12.2502999963,   0.0000000000)


Analysis of symmetry for initial positions (statically):
=====================================================================
 Subroutine PRICEL returns:
 Original cell was already a primitive cell.
 

 Routine SETGRP: Setting up the symmetry group for a 
 triclinic supercell.


 Subroutine GETGRP returns: Found  1 space group operations
 (whereof  1 operations were pure point group operations)
 out of a pool of  2 trial point group operations.


The static configuration has the point symmetry C_1 .


Analysis of symmetry for dynamics (positions and initial velocities):
=====================================================================
 Subroutine PRICEL returns:
 Original cell was already a primitive cell.
 

 Routine SETGRP: Setting up the symmetry group for a 
 triclinic supercell.


 Subroutine GETGRP returns: Found  1 space group operations
 (whereof  1 operations were pure point group operations)
 out of a pool of  2 trial point group operations.


The dynamic configuration has the point symmetry C_1 .


Analysis of structural, dynamic, and magnetic symmetry:
=====================================================================
 Subroutine PRICEL returns:
 Original cell was already a primitive cell.
 

 Routine SETGRP: Setting up the symmetry group for a 
 triclinic supercell.


 Subroutine GETGRP returns: Found  1 space group operations
 (whereof  1 operations were pure point group operations)
 out of a pool of  2 trial point group operations.


The magnetic configuration has the point symmetry C_1 .


 Subroutine INISYM returns: Found  1 space group operations
 (whereof  1 operations are pure point group operations),
 and found     1 'primitive' translations

 
 
 KPOINTS: KPOINTS created by Atomic Simulation Env

Automatic generation of k-mesh.
Space group operators:
 irot       det(A)        alpha          n_x          n_y          n_z        tau_x        tau_y        tau_z
    1     1.000000     0.000000     1.000000     0.000000     0.000000     0.000000     0.000000     0.000000
 
 Subroutine IBZKPT returns following result:
 ===========================================
 
 Found      2 irreducible k-points:
 
 Following reciprocal coordinates:
            Coordinates               Weight
  0.250000  0.250000  0.000000      2.000000
 -0.250000  0.250000 -0.000000      2.000000
 
 Following cartesian coordinates:
            Coordinates               Weight
  0.019227  0.020408 -0.000012      2.000000
 -0.019227  0.020407  0.000005      2.000000
 
 
 Subroutine IBZKPT_HF returns following result:
 ==============================================
 
 Found      4 k-points in 1st BZ
 the following      4 k-points will be used (e.g. in the exchange kernel)
 Following reciprocal coordinates:   # in IRBZ
  0.250000  0.250000  0.000000    0.25000000   1 t-inv F
 -0.250000  0.250000 -0.000000    0.25000000   2 t-inv F
 -0.250000 -0.250000 -0.000000    0.25000000   1 t-inv T
  0.250000 -0.250000  0.000000    0.25000000   2 t-inv T


--------------------------------------------------------------------------------------------------------




 Dimension of arrays:
   k-points           NKPTS =      2   k-points in BZ     NKDIM =      4   number of bands    NBANDS=    157
   number of dos      NEDOS =    301   number of ions     NIONS =     58
   non local maximal  LDIM  =      6   non local SUM 2l+1 LMDIM =     18
   total plane-waves  NPLWV = ******
   max r-space proj   IRMAX =      1   max aug-charges    IRDMAX=  14730
   dimension x,y,z NGX =    96 NGY =   90 NGZ =  150
   dimension x,y,z NGXF=   192 NGYF=  180 NGZF=  300
   support grid    NGXF=   192 NGYF=  180 NGZF=  300
   ions per type =              49   7   2
   NGX,Y,Z   is equivalent  to a cutoff of  12.27, 12.21, 12.50 a.u.
   NGXF,Y,Z  is equivalent  to a cutoff of  24.55, 24.43, 25.01 a.u.

 SYSTEM =  unknown system                          
 POSCAR =   C  N Fe                                

 Startparameter for this run:
   NWRITE =      2    write-flag & timer
   PREC   = accura    normal or accurate (medium, high low for compatibility)
   ISTART =      0    job   : 0-new  1-cont  2-samecut
   ICHARG =      2    charge: 1-file 2-atom 10-const
   ISPIN  =      2    spin polarized calculation?
   LNONCOLLINEAR =      F non collinear calculations
   LSORBIT =      F    spin-orbit coupling
   INIWAV =      1    electr: 0-lowe 1-rand  2-diag
   LASPH  =      T    aspherical Exc in radial PAW
   METAGGA=      F    non-selfconsistent MetaGGA calc.

 Electronic Relaxation 1
   ENCUT  =  500.0 eV  36.75 Ry    6.06 a.u.  23.71 22.34 36.36*2*pi/ulx,y,z
   ENINI  =  500.0     initial cutoff
   ENAUG  =  644.9 eV  augmentation charge cutoff
   NELM   =    250;   NELMIN=  2; NELMDL=  0     # of ELM steps 
   EDIFF  = 0.1E-03   stopping-criterion for ELM
   LREAL  =      F    real-space projection
   NLSPLINE    = F    spline interpolate recip. space projectors
   LCOMPAT=      F    compatible to vasp.4.4
   GGA_COMPAT  = T    GGA compatible to vasp.4.4-vasp.4.6
   LMAXPAW     = -100 max onsite density
   LMAXMIX     =    2 max onsite mixed and CHGCAR
   VOSKOWN=      0    Vosko Wilk Nusair interpolation
   ROPT   =    0.00000   0.00000   0.00000
 Ionic relaxation
   EDIFFG = -.3E-01   stopping-criterion for IOM
   NSW    =      0    number of steps for IOM
   NBLOCK =      1;   KBLOCK =      1    inner block; outer block 
   IBRION =     -1    ionic relax: 0-MD 1-quasi-New 2-CG
   NFREE  =      1    steps in history (QN), initial steepest desc. (CG)
   ISIF   =      2    stress and relaxation
   IWAVPR =     10    prediction:  0-non 1-charg 2-wave 3-comb
   ISYM   =      3    0-nonsym 1-usesym 2-fastsym
   LCORR  =      T    Harris-Foulkes like correction to forces

   POTIM  = 0.5000    time-step for ionic-motion
   TEIN   =    0.0    initial temperature
   TEBEG  =    0.0;   TEEND  =   0.0 temperature during run
   SMASS  =  -3.00    Nose mass-parameter (am)
   estimated Nose-frequenzy (Omega)   =  0.10E-29 period in steps =****** mass=  -0.386E-26a.u.
   SCALEE = 1.0000    scale energy and forces
   NPACO  =    256;   APACO  = 16.0  distance and # of slots for P.C.
   PSTRESS=    0.0 pullay stress

  Mass of Ions in am
   POMASS =  12.01 14.00 55.85
  Ionic Valenz
   ZVAL   =   4.00  5.00  8.00
  Atomic Wigner-Seitz radii
   RWIGS  =  -1.00 -1.00 -1.00
  virtual crystal weights 
   VCA    =   1.00  1.00  1.00
   NELECT =     247.0000    total number of electrons
   NUPDOWN=      -1.0000    fix difference up-down

 DOS related values:
   EMIN   =  10.00;   EMAX   =-10.00  energy-range for DOS
   EFERMI =   0.00
   ISMEAR =     0;   SIGMA  =   0.10  broadening in eV -4-tet -1-fermi 0-gaus

 Electronic relaxation 2 (details)
   IALGO  =     53    algorithm
   LDIAG  =      T    sub-space diagonalisation (order eigenvalues)
   LSUBROT=      F    optimize rotation matrix (better conditioning)
   TURBO    =      0    0=normal 1=particle mesh
   IRESTART =      0    0=no restart 2=restart with 2 vectors
   NREBOOT  =      0    no. of reboots
   NMIN     =      0    reboot dimension
   EREF     =   0.00    reference energy to select bands
   IMIX   =      4    mixing-type and parameters
     AMIX     =   0.40;   BMIX     =  1.00
     AMIX_MAG =   1.60;   BMIX_MAG =  1.00
     AMIN     =   0.10
     WC   =   100.;   INIMIX=   1;  MIXPRE=   1;  MAXMIX= -45

 Intra band minimization:
   WEIMIN = 0.0000     energy-eigenvalue tresh-hold
   EBREAK =  0.16E-06  absolut break condition
   DEPER  =   0.30     relativ break condition  

   TIME   =   0.20     timestep for ELM

  volume/ion in A,a.u.               =      54.77       369.63
  Fermi-wavevector in a.u.,A,eV,Ry     =   0.698727  1.320402  6.642627  0.488219
  Thomas-Fermi vector in A             =   1.782410
 
 Write flags
   LWAVE        =      T    write WAVECAR
   LDOWNSAMPLE  =      F    k-point downsampling of WAVECAR
   LCHARG       =      T    write CHGCAR
   LVTOT        =      F    write LOCPOT, total local potential
   LVHAR        =      F    write LOCPOT, Hartree potential only
   LELF         =      F    write electronic localiz. function (ELF)
   LORBIT       =     11    0 simple, 1 ext, 2 COOP (PROOUT), +10 PAW based schemes


 Dipole corrections
   LMONO  =      F    monopole corrections only (constant potential shift)
   LDIPOL =      T    correct potential (dipole corrections)
   IDIPOL =      3    1-x, 2-y, 3-z, 4-all directions 
   EPSILON=  1.0000000 bulk dielectric constant

 Exchange correlation treatment:
   GGA     =    PE    GGA type
   LEXCH   =     8    internal setting for exchange type
   VOSKOWN=      0    Vosko Wilk Nusair interpolation
   EXXOEP  =     0    0=HF, 1=EXX-LHF (local Hartree Fock) 2=EXX OEP
   LHFCALC =     T    Hartree Fock is set to
   LSYMGRAD=     F    symmetrize gradient (conserves proper symmetry)
   PRECFOCK=normal    Normal, Fast or Accurate (Low or Medium for compatibility)
   LRHFCALC=     F    long range Hartree Fock
   LRSCOR  =     F    long range correlation only (use DFT for short range part)
   LTHOMAS =     F    Thomas Fermi screening in HF
   LMODELHF=     F    short range full HF, long range fraction AEXX
   ENCUT4O =  -1.0   cutoff for four orbital integrals eV
   LMAXFOCK=     4    L truncation for augmentation on plane wave grid
   LMAXFOCKAE=  -1    L truncation for all-electron charge restoration on plane wave grid
   NMAXFOCKAE=   1    number of basis functions for all-electron charge restoration
   LFOCKAEDFT=     F  apply the AE augmentation even for DFT
   NKREDX  =     1    reduce k-point grid by
   NKREDY  =     1    reduce k-point grid by
   NKREDZ  =     1    reduce k-point grid by
   SHIFTRED=     F    shift reduced grid of Gamma
   HFKIDENT=     F    idential grid for each k-point
   ODDONLY =     F    use only odd q-grid points
   EVENONLY=     F    use only even q-grid points
   HFALPHA =   -1.0000 decay constant for conv. correction
   MCALPHA =    0.0000 extent of test-charge in conv. correction in multipole expansion
   AEXX    =    0.2500 exact exchange contribution
   HFSCREEN=    0.2000 screening length (either q_TF or 0.3 A-1)
   HFSCREENC=   0.2000 screening length for correlation (either q_TF or 0.3 A-1)
   HFRCUT  =    0.0000 spherical cutoff for potential kernel
   ALDAX   =    0.7500 LDA exchange part
   AGGAX   =    0.7500 GGA exchange part
   ALDAC   =    1.0000 LDA correlation
   AGGAC   =    1.0000 GGA correlation
   ENCUTFOCK=  -1.0 apply spherical cutoff to Coloumb kernel
   NBANDSGWLOW=     1    first orbital included in HF term
   NBLOCK_FOCK=    64    blocking factor in FOCK_ACC
 Linear response parameters
   LEPSILON=     F    determine dielectric tensor
   LRPA    =     F    only Hartree local field effects (RPA)
   LNABLA  =     F    use nabla operator in PAW spheres
   LVEL    =     F    velocity operator in full k-point grid
   LINTERFAST=   F  fast interpolation
   KINTER  =     0    interpolate to denser k-point grid
   CSHIFT  =0.1000    complex shift for real part using Kramers Kronig
   OMEGAMAX=  -1.0    maximum frequency
   DEG_THRESHOLD= 0.2000000E-02 threshold for treating states as degnerate
   RTIME   =   -0.100 relaxation time in fs
  (WPLASMAI=    0.000 imaginary part of plasma frequency in eV, 0.658/RTIME)
   DFIELD  = 0.0000000 0.0000000 0.0000000 field for delta impulse in time
 
 Orbital magnetization related:
   ORBITALMAG=     F  switch on orbital magnetization
   LCHIMAG   =     F  perturbation theory with respect to B field
   DQ        =  0.001000  dq finite difference perturbation B field
   LLRAUG    =     F  two centre corrections for induced B field



--------------------------------------------------------------------------------------------------------


 Static calculation
 charge density and potential will be updated during run
 spin polarized calculation
 Conjugate gradient for all bands (Freysoldt, et al. PRB 79, 241103 (2009))
 perform sub-space diagonalisation
    before iterative eigenvector-optimisation
 modified Broyden-mixing scheme, WC =      100.0
 initial mixing is a Kerker type mixing with AMIX =  0.4000 and BMIX =      1.0000
 Hartree-type preconditioning will be used
 using additional bands           33
 reciprocal scheme for non local part
 use partial core corrections
 no Harris-corrections to forces 
 use gradient corrections 
 use of overlap-Matrix (Vanderbilt PP)
 Gauss-broadening in eV      SIGMA  =   0.10


--------------------------------------------------------------------------------------------------------


  energy-cutoff  :      500.00
  volume of cell :     3176.87
      direct lattice vectors                 reciprocal lattice vectors
    13.002700000  0.000000000  0.000000000     0.076907104  0.000001879 -0.000032752
    -0.000299331 12.250299996  0.000000000     0.000000000  0.081630654 -0.000014533
     0.008493486  0.003550763 19.944297875     0.000000000  0.000000000  0.050139644

  length of vectors
    13.002700000 12.250300000 19.944300000     0.076907111  0.081630655  0.050139644


 
 k-points in units of 2pi/SCALE and weight: KPOINTS created by Atomic Simulation Env
   0.01922678  0.02040813 -0.00001182       0.500
  -0.01922678  0.02040719  0.00000455       0.500
 
 k-points in reciprocal lattice and weights: KPOINTS created by Atomic Simulation Env
   0.25000000  0.25000000  0.00000000       0.500
  -0.25000000  0.25000000 -0.00000000       0.500
 
 position of ions in fractional coordinates (direct lattice) 
   0.22825874  0.99991207  0.49979906
   0.05845581  0.09959429  0.49999786
   0.11599042  0.99991241  0.49994727
   0.28277195  0.10450812  0.49953961
   0.22311496  0.20530325  0.49951052
   0.05109219  0.29857053  0.50006144
   0.11161444  0.20094761  0.49987987
   0.20958286  0.39959960  0.49965693
   0.04786165  0.49990137  0.50029856
   0.10230836  0.39969678  0.50011810
   0.26336791  0.49991183  0.49940036
   0.20957343  0.60022167  0.49990653
   0.05109074  0.70125428  0.50012189
   0.10229557  0.60011612  0.50021897
   0.22311837  0.79453023  0.49987802
   0.05844476  0.90023185  0.50001004
   0.11161499  0.79888467  0.50001978
   0.28277488  0.89532264  0.49983832
   0.55831412  0.99991645  0.50004724
   0.39497816  0.10420125  0.49949209
   0.44798693  0.99991897  0.49986592
   0.61444541  0.09979748  0.49999809
   0.55885782  0.19938684  0.49956915
   0.61355238  0.30181451  0.49953059
   0.60804586  0.49990357  0.49946959
   0.61354349  0.69800022  0.49979869
   0.55885749  0.80044112  0.49995755
   0.39497897  0.89563428  0.49985739
   0.61444855  0.90003389  0.50013806
   0.89128315  0.99991016  0.50009166
   0.72457183  0.09933471  0.50014778
   0.78074080  0.99991467  0.50015121
   0.94703795  0.09967516  0.50010038
   0.88889655  0.19855930  0.50014050
   0.72238464  0.29920339  0.49992827
   0.77881484  0.19895962  0.50011846
   0.94183241  0.29902250  0.50015105
   0.88540401  0.39945320  0.50017102
   0.71947566  0.49991107  0.49988650
   0.77605558  0.40005327  0.50000906
   0.93951438  0.49991060  0.50024085
   0.88540516  0.60037054  0.50012146
   0.72237505  0.70061682  0.49995983
   0.77605359  0.59977293  0.49999867
   0.94183232  0.70079965  0.50007317
   0.88888654  0.80125280  0.50002257
   0.72457558  0.90049231  0.50013079
   0.77880759  0.80085880  0.50004994
   0.94702355  0.90013938  0.50003170
   0.26986315  0.30692624  0.49918126
   0.26986162  0.69290206  0.49968712
   0.45224658  0.20070357  0.49915408
   0.55694642  0.39947511  0.49911499
   0.36650275  0.49989886  0.49855093
   0.55694500  0.60033379  0.49941235
   0.45224627  0.79913741  0.49978717
   0.41175051  0.35389269  0.49849379
   0.41175534  0.64593145  0.49912597
 
 position of ions in cartesian coordinates  (Angst):
   2.97192563 12.25099752  9.96814143
   0.76430026  1.22183528  9.97210631
   1.51213563 12.25100216  9.97109737
   3.68101034  1.28202959  9.96296672
   2.90527800  2.51680002  9.96238663
   0.66849435  3.65935416  9.97337441
   1.45547463  2.46344342  9.96975302
   2.72926725  4.89698918  9.96530655
   0.62643027  6.12571815  9.97810345
   1.33441308  4.89818132  9.97450430
   3.42858590  6.12584309  9.96018955
   2.72908672  7.35467062  9.97028475
   0.66835545  8.59235114  9.97458005
   1.33418758  7.35337867  9.97651607
   2.90514915  9.73500858  9.96971613
   0.76391701 11.02988570  9.97234919
   1.45530395  9.78835235  9.97254350
   3.68081427 10.96974571  9.96892434
   7.26353889 12.25105209  9.97309109
   5.13999381  1.27827018  9.96201907
   5.82898591 12.25108230  9.96947484
   7.99366624  1.22432443  9.97211085
   7.27084392  2.44432251  9.96355596
   7.98198993  3.69909205  9.96278681
   7.91033045  6.12574219  9.96157028
   7.98175808  8.55248674  9.96813391
   7.27066309  9.80741904  9.97130235
   5.13977049 10.97356354  9.96930478
   7.99346861 11.02746099  9.97490243
  11.59303566 12.25097510  9.97397698
   9.42560845  1.21865591  9.97509633
  10.15568707 12.25103063  9.97516465
  12.31826806  1.22282635  9.97415091
  11.56224372  2.43418692  9.97495119
   9.39710728  3.66710645  9.97071842
  10.13088394  2.43909082  9.97451146
  12.25052275  3.66489123  9.97516147
  11.51677129  4.89519755  9.97555977
   9.35922231  6.12583552  9.96988523
  10.09494492  4.90254801  9.97232955
  12.22032282  6.12583109  9.97695247
  11.51672571  7.35649501  9.97457137
   9.39686280  8.58454145  9.97134784
  10.09485918  7.34917365  9.97212243
  12.25040065  8.58678157  9.97360822
  11.56193206  9.81736267  9.97259899
   9.42541725 11.03307675  9.97475745
  10.13060892  9.81253611  9.97314489
  12.31784064 11.02875296  9.97278122
   3.51309746  3.76171102  9.95581972
   3.51296635  8.49003243  9.96590882
   5.88460611  2.46045135  9.95527761
   7.24592691  4.89546223  9.95449794
   4.76961006  6.12568128  9.94324820
   7.24585081  7.35604238  9.96042866
   5.88442831  9.79144763  9.96790414
   5.35799641  4.33706170  9.94210854
   5.35797712  7.91462632  9.95471703
 


--------------------------------------------------------------------------------------------------------


 k-point  1 :   0.2500 0.2500 0.0000  plane waves:   80672
 k-point  2 :  -0.2500 0.2500-0.0000  plane waves:   80675

 maximum and minimum number of plane-waves per node :      2053     2001

 maximum number of plane-waves:     80675
 maximum index in each direction: 
   IXMAX=   23   IYMAX=   22   IZMAX=   36
   IXMIN=  -23   IYMIN=  -22   IZMIN=  -36


 parallel 3D FFT for wavefunctions:
    minimum data exchange during FFTs selected (reduces bandwidth)
 parallel 3D FFT for charge:
    minimum data exchange during FFTs selected (reduces bandwidth)


 FFT grid for exact exchange (Hartree Fock) 
  NGX = 72; NGY = 70; NGZ =112

 
 Radii for the augmentation spheres in the non-local exchange
 for species   1 augmentation radius   0.874 (default was   0.699)
       energy cutoff for augmentation   2000.0
 for species   2 augmentation radius   0.886 (default was   0.709)
       energy cutoff for augmentation   2000.0
 for species   3 augmentation radius   1.263 (default was   1.010)
       energy cutoff for augmentation   2000.0

 real space projection operators:
  total allocation   :       2508.02 KBytes
  max/ min on nodes  :        109.85         17.79

 Maximum index for augmentation-charges in exchange           77
  SETUP_FOCK is finished

 total amount of memory used by VASP MPI-rank0   136610. kBytes
=======================================================================

   base      :      30000. kBytes
   nonl-proj :       3693. kBytes
   fftplans  :      11188. kBytes
   grid      :      27138. kBytes
   one-center:         62. kBytes
   HF        :         23. kBytes
   nonlr-proj:       1596. kBytes
   wavefun   :      62910. kBytes
 
     INWAV:  cpu time    0.0000: real time    0.0002
 Broyden mixing: mesh for mixing (old mesh)
   NGX = 47   NGY = 45   NGZ = 73
  (NGX  =192   NGY  =180   NGZ  =300)
  gives a total of 154395 points

 initial charge density was supplied:
 charge density of overlapping atoms calculated
 number of electron     247.0000000 magnetization       8.0000000
 charge density for first step will be calculated from the start-wavefunctions


--------------------------------------------------------------------------------------------------------


 Maximum index for augmentation-charges          709 (set IRDMAX)


--------------------------------------------------------------------------------------------------------


 First call to EWALD:  gamma=   0.121
 Maximum number of real-space cells 3x 3x 2
 Maximum number of reciprocal cells 2x 2x 4

    FEWALD:  cpu time    0.0023: real time    0.0023


--------------------------------------- Iteration      1(   1)  ---------------------------------------


    POTLOK:  cpu time    0.8664: real time    0.8793
    SETDIJ:  cpu time    0.9916: real time    0.9951
    TRIAL :  cpu time    3.4450: real time    3.4890
    CORREC:  cpu time    0.0007: real time    0.0007
    --------------------------------------------
      LOOP:  cpu time    5.3244: real time    5.3866

 eigenvalue-minimisations  :  1868
 total energy-change (2. order) : 0.4177377E+04  (-0.7109698E+04)
 number of electron     247.0000000 magnetization       8.0000000
 augmentation part      247.0000000 magnetization       8.0000000

 DIPCOR: dipole corrections for dipol
 direction  3 min pos     1,
 dipolmoment           0.000000      0.000000      0.000002 electrons x Angstroem
 Tr[quadrupol]     -6627.222247

 energy correction for charged system         0.000000 eV
 dipol+quadrupol energy correction            0.000000 eV
 added-field ion interaction          0.000000 eV  (added to PSCEN)


 Free energy of the ion-electron system (eV)
  ---------------------------------------------------
  alpha Z        PSCENC =       103.40116651
  Ewald energy   TEWEN  =     40086.81692447
  -Hartree energ DENC   =    -47923.07893061
  -exchange      EXHF   =         0.00000000
  -V(xc)+E(xc)   XCENC  =       608.96262140
  PAW double counting   =      8008.25974105    -8047.63718919
  entropy T*S    EENTRO =        -0.10100695
  eigenvalues    EBANDS =      1206.11173961
  atomic energy  EATOM  =     10134.64230457
  ---------------------------------------------------
  free energy    TOTEN  =      4177.37737086 eV

  energy without entropy =     4177.47837782  energy(sigma->0) =     4177.42787434
  exchange ACFDT corr.  =         0.00000000  see jH, gK, PRB 81, 115126


--------------------------------------------------------------------------------------------------------




--------------------------------------- Iteration      1(   2)  ---------------------------------------


    TRIAL :  cpu time    4.3328: real time    4.3465
    CORREC:  cpu time    0.0008: real time    0.0008
    --------------------------------------------
      LOOP:  cpu time    4.3354: real time    4.3498

 eigenvalue-minimisations  :  2512
 total energy-change (2. order) :-0.2143956E+04  (-0.1970242E+04)
 number of electron     247.0000000 magnetization       8.0000000
 augmentation part      247.0000000 magnetization       8.0000000

 DIPCOR: dipole corrections for dipol
 direction  3 min pos     1,
 dipolmoment           0.000000      0.000000      0.000002 electrons x Angstroem
 Tr[quadrupol]     -6627.222247

 energy correction for charged system         0.000000 eV
 dipol+quadrupol energy correction            0.000000 eV
 added-field ion interaction          0.000000 eV  (added to PSCEN)


 Free energy of the ion-electron system (eV)
  ---------------------------------------------------
  alpha Z        PSCENC =       103.40116651
  Ewald energy   TEWEN  =     40086.81692447
  -Hartree energ DENC   =    -47923.07893061
  -exchange      EXHF   =         0.00000000
  -V(xc)+E(xc)   XCENC  =       608.96262140
  PAW double counting   =      8008.25974105    -8047.63718919
  entropy T*S    EENTRO =        -0.10481735
  eigenvalues    EBANDS =      -937.84082547
  atomic energy  EATOM  =     10134.64230457
  ---------------------------------------------------
  free energy    TOTEN  =      2033.42099539 eV

  energy without entropy =     2033.52581274  energy(sigma->0) =     2033.47340406
  exchange ACFDT corr.  =         0.00000000  see jH, gK, PRB 81, 115126


--------------------------------------------------------------------------------------------------------




--------------------------------------- Iteration      1(   3)  ---------------------------------------


    TRIAL :  cpu time    4.3368: real time    4.3519
    CORREC:  cpu time    0.0008: real time    0.0007
    --------------------------------------------
      LOOP:  cpu time    4.3385: real time    4.3536

 eigenvalue-minimisations  :  2512
 total energy-change (2. order) :-0.1181609E+04  (-0.1095151E+04)
 number of electron     247.0000000 magnetization       8.0000000
 augmentation part      247.0000000 magnetization       8.0000000

 DIPCOR: dipole corrections for dipol
 direction  3 min pos     1,
 dipolmoment           0.000000      0.000000      0.000002 electrons x Angstroem
 Tr[quadrupol]     -6627.222247

 energy correction for charged system         0.000000 eV
 dipol+quadrupol energy correction            0.000000 eV
 added-field ion interaction          0.000000 eV  (added to PSCEN)


 Free energy of the ion-electron system (eV)
  ---------------------------------------------------
  alpha Z        PSCENC =       103.40116651
  Ewald energy   TEWEN  =     40086.81692447
  -Hartree energ DENC   =    -47923.07893061
  -exchange      EXHF   =         0.00000000
  -V(xc)+E(xc)   XCENC  =       608.96262140
  PAW double counting   =      8008.25974105    -8047.63718919
  entropy T*S    EENTRO =        -0.09176607
  eigenvalues    EBANDS =     -2119.46295097
  atomic energy  EATOM  =     10134.64230457
  ---------------------------------------------------
  free energy    TOTEN  =       851.81192117 eV

  energy without entropy =      851.90368724  energy(sigma->0) =      851.85780421
  exchange ACFDT corr.  =         0.00000000  see jH, gK, PRB 81, 115126


--------------------------------------------------------------------------------------------------------




--------------------------------------- Iteration      1(   4)  ---------------------------------------


    TRIAL :  cpu time    4.3671: real time    4.3799
    CORREC:  cpu time    0.0008: real time    0.0008
    --------------------------------------------
      LOOP:  cpu time    4.3696: real time    4.3825

 eigenvalue-minimisations  :  2512
 total energy-change (2. order) :-0.5414961E+03  (-0.5075328E+03)
 number of electron     247.0000000 magnetization       8.0000000
 augmentation part      247.0000000 magnetization       8.0000000

 DIPCOR: dipole corrections for dipol
 direction  3 min pos     1,
 dipolmoment           0.000000      0.000000      0.000002 electrons x Angstroem
 Tr[quadrupol]     -6627.222247

 energy correction for charged system         0.000000 eV
 dipol+quadrupol energy correction            0.000000 eV
 added-field ion interaction          0.000000 eV  (added to PSCEN)


 Free energy of the ion-electron system (eV)
  ---------------------------------------------------
  alpha Z        PSCENC =       103.40116651
  Ewald energy   TEWEN  =     40086.81692447
  -Hartree energ DENC   =    -47923.07893061
  -exchange      EXHF   =         0.00000000
  -V(xc)+E(xc)   XCENC  =       608.96262140
  PAW double counting   =      8008.25974105    -8047.63718919
  entropy T*S    EENTRO =        -0.07033963
  eigenvalues    EBANDS =     -2660.98046585
  atomic energy  EATOM  =     10134.64230457
  ---------------------------------------------------
  free energy    TOTEN  =       310.31583274 eV

  energy without entropy =      310.38617236  energy(sigma->0) =      310.35100255
  exchange ACFDT corr.  =         0.00000000  see jH, gK, PRB 81, 115126


--------------------------------------------------------------------------------------------------------




--------------------------------------- Iteration      1(   5)  ---------------------------------------


    TRIAL :  cpu time    4.3229: real time    4.3350
    CORREC:  cpu time    0.0008: real time    0.0008
    CHARGE:  cpu time    0.7515: real time    0.7546
    --------------------------------------------
      LOOP:  cpu time    5.0764: real time    5.0922

 eigenvalue-minimisations  :  2512
 total energy-change (2. order) :-0.2429330E+03  (-0.2322706E+03)
 number of electron     247.0000021 magnetization       5.0338282
 augmentation part       13.3006105 magnetization       3.4301316

 DIPCOR: dipole corrections for dipol
 direction  3 min pos     1,
 dipolmoment           0.000000      0.000000      0.000002 electrons x Angstroem
 Tr[quadrupol]     -6627.222247

 energy correction for charged system         0.000000 eV
 dipol+quadrupol energy correction            0.000000 eV
 added-field ion interaction          0.000000 eV  (added to PSCEN)


 Free energy of the ion-electron system (eV)
  ---------------------------------------------------
  alpha Z        PSCENC =       103.40116651
  Ewald energy   TEWEN  =     40086.81692447
  -Hartree energ DENC   =    -47923.07893061
  -exchange      EXHF   =         0.00000000
  -V(xc)+E(xc)   XCENC  =       608.96262140
  PAW double counting   =      8008.25974105    -8047.63718919
  entropy T*S    EENTRO =        -0.03957985
  eigenvalues    EBANDS =     -2903.94421827
  atomic energy  EATOM  =     10134.64230457
  ---------------------------------------------------
  free energy    TOTEN  =        67.38284009 eV

  energy without entropy =       67.42241994  energy(sigma->0) =       67.40263001
  exchange ACFDT corr.  =         0.00000000  see jH, gK, PRB 81, 115126


--------------------------------------------------------------------------------------------------------




--------------------------------------- Iteration      1(   6)  ---------------------------------------


    POTLOK:  cpu time    0.8742: real time    0.8791
    SETDIJ:  cpu time    0.9890: real time    0.9914
    TRIAL :  cpu time  164.5956: real time  165.0626
    CORREC:  cpu time    0.0008: real time    0.0008
    CHARGE:  cpu time    0.7398: real time    0.7416
    --------------------------------------------
      LOOP:  cpu time  167.2008: real time  167.6786

 eigenvalue-minimisations  :     0
 total energy-change (2. order) :-0.4691448E+03  (-0.3192971E+03)
 number of electron     247.0000019 magnetization       2.9974503
 augmentation part       16.4674957 magnetization       2.3557642

 DIPCOR: dipole corrections for dipol
 direction  3 min pos     1,
 dipolmoment           0.000070      0.000029      0.164705 electrons x Angstroem
 Tr[quadrupol]     -6404.803972

 energy correction for charged system         0.000000 eV
 dipol+quadrupol energy correction            0.000776 eV
 added-field ion interaction          0.000000 eV  (added to PSCEN)


 Free energy of the ion-electron system (eV)
  ---------------------------------------------------
  alpha Z        PSCENC =       103.40194231
  Ewald energy   TEWEN  =     40086.81692447
  -Hartree energ DENC   =    -45638.77271073
  -exchange      EXHF   =       530.70194113
  -V(xc)+E(xc)   XCENC  =       608.39657778
  PAW double counting   =     26813.90270748   -26845.26186252
  entropy T*S    EENTRO =        -0.01503540
  eigenvalues    EBANDS =     -6195.55015689
  atomic energy  EATOM  =     10134.64230457
  ---------------------------------------------------
  free energy    TOTEN  =      -401.76191226 eV

  energy without entropy =     -401.74687686  energy(sigma->0) =     -401.75439456
  exchange ACFDT corr.  =        -0.11484351  see jH, gK, PRB 81, 115126


--------------------------------------------------------------------------------------------------------




--------------------------------------- Iteration      1(   7)  ---------------------------------------


    POTLOK:  cpu time    0.8862: real time    0.8896
    SETDIJ:  cpu time    0.9865: real time    0.9890
    TRIAL :  cpu time  163.3349: real time  163.7866
    CORREC:  cpu time    0.0008: real time    0.0008
    CHARGE:  cpu time    0.7386: real time    0.7404
    --------------------------------------------
      LOOP:  cpu time  165.9494: real time  166.4126

 eigenvalue-minimisations  :     0
 total energy-change (2. order) :-0.1106358E+03  (-0.9408089E+02)
 number of electron     247.0000020 magnetization       3.9512491
 augmentation part       15.0569806 magnetization       2.9857604

 DIPCOR: dipole corrections for dipol
 direction  3 min pos     1,
 dipolmoment           0.000054      0.000022      0.126111 electrons x Angstroem
 Tr[quadrupol]     -6600.564766

 energy correction for charged system         0.000000 eV
 dipol+quadrupol energy correction            0.000455 eV
 added-field ion interaction          0.000000 eV  (added to PSCEN)


 Free energy of the ion-electron system (eV)
  ---------------------------------------------------
  alpha Z        PSCENC =       103.40162133
  Ewald energy   TEWEN  =     40086.81692447
  -Hartree energ DENC   =    -48456.01501319
  -exchange      EXHF   =       555.99230676
  -V(xc)+E(xc)   XCENC  =       630.11831005
  PAW double counting   =     28186.85269065   -28263.56258486
  entropy T*S    EENTRO =        -0.03285982
  eigenvalues    EBANDS =     -3490.62923249
  atomic energy  EATOM  =     10134.64230457
  ---------------------------------------------------
  free energy    TOTEN  =      -512.39770810 eV

  energy without entropy =     -512.36484828  energy(sigma->0) =     -512.38127819
  exchange ACFDT corr.  =        -4.41427255  see jH, gK, PRB 81, 115126


--------------------------------------------------------------------------------------------------------




--------------------------------------- Iteration      1(   8)  ---------------------------------------


    POTLOK:  cpu time    0.8879: real time    0.8910
    SETDIJ:  cpu time    0.9883: real time    0.9907
    TRIAL :  cpu time  162.2664: real time  162.7107
    CORREC:  cpu time    0.0008: real time    0.0008
    CHARGE:  cpu time    0.7375: real time    0.7393
    --------------------------------------------
      LOOP:  cpu time  164.8832: real time  165.3384

 eigenvalue-minimisations  :     0
 total energy-change (2. order) :-0.5137836E+02  (-0.3763264E+02)
 number of electron     247.0000020 magnetization       4.0246573
 augmentation part       14.0528226 magnetization       3.1426106

 DIPCOR: dipole corrections for dipol
 direction  3 min pos     1,
 dipolmoment           0.000039      0.000016      0.092286 electrons x Angstroem
 Tr[quadrupol]     -6614.233418

 energy correction for charged system         0.000000 eV
 dipol+quadrupol energy correction            0.000244 eV
 added-field ion interaction          0.000000 eV  (added to PSCEN)


 Free energy of the ion-electron system (eV)
  ---------------------------------------------------
  alpha Z        PSCENC =       103.40141007
  Ewald energy   TEWEN  =     40086.81692447
  -Hartree energ DENC   =    -48579.68652523
  -exchange      EXHF   =       560.00321886
  -V(xc)+E(xc)   XCENC  =       630.83943319
  PAW double counting   =     27897.54016241   -27950.40464623
  entropy T*S    EENTRO =        -0.03145773
  eigenvalues    EBANDS =     -3446.89549493
  atomic energy  EATOM  =     10134.64230457
  ---------------------------------------------------
  free energy    TOTEN  =      -563.77607264 eV

  energy without entropy =     -563.74461490  energy(sigma->0) =     -563.76034377
  exchange ACFDT corr.  =        -2.30365034  see jH, gK, PRB 81, 115126


--------------------------------------------------------------------------------------------------------




--------------------------------------- Iteration      1(   9)  ---------------------------------------


    POTLOK:  cpu time    0.8851: real time    0.8902
    SETDIJ:  cpu time    0.9798: real time    0.9823
    TRIAL :  cpu time  162.8845: real time  163.3503
    CORREC:  cpu time    0.0007: real time    0.0007
    CHARGE:  cpu time    0.7353: real time    0.7373
    --------------------------------------------
      LOOP:  cpu time  165.4879: real time  165.9666

 eigenvalue-minimisations  :     0
 total energy-change (2. order) :-0.1167936E+02  (-0.2497846E+02)
 number of electron     247.0000020 magnetization       4.0001676
 augmentation part       14.4121208 magnetization       3.1489950

 DIPCOR: dipole corrections for dipol
 direction  3 min pos     1,
 dipolmoment           0.000016      0.000007      0.037141 electrons x Angstroem
 Tr[quadrupol]     -6612.997612

 energy correction for charged system         0.000000 eV
 dipol+quadrupol energy correction            0.000039 eV
 added-field ion interaction          0.000000 eV  (added to PSCEN)


 Free energy of the ion-electron system (eV)
  ---------------------------------------------------
  alpha Z        PSCENC =       103.40120596
  Ewald energy   TEWEN  =     40086.81692447
  -Hartree energ DENC   =    -48471.04414773
  -exchange      EXHF   =       560.22174332
  -V(xc)+E(xc)   XCENC  =       628.89680858
  PAW double counting   =     27698.78445618   -27737.96497310
  entropy T*S    EENTRO =        -0.02697327
  eigenvalues    EBANDS =     -3579.17829623
  atomic energy  EATOM  =     10134.64230457
  ---------------------------------------------------
  free energy    TOTEN  =      -575.45543171 eV

  energy without entropy =     -575.42845844  energy(sigma->0) =     -575.44194507
  exchange ACFDT corr.  =        -1.57788745  see jH, gK, PRB 81, 115126


--------------------------------------------------------------------------------------------------------




--------------------------------------- Iteration      1(  10)  ---------------------------------------


    POTLOK:  cpu time    0.8896: real time    0.8927
    SETDIJ:  cpu time    0.9799: real time    0.9823
    TRIAL :  cpu time  162.8506: real time  163.2950
    CORREC:  cpu time    0.0008: real time    0.0008
    CHARGE:  cpu time    0.7362: real time    0.7380
    --------------------------------------------
      LOOP:  cpu time  165.4590: real time  165.9147

 eigenvalue-minimisations  :     0
 total energy-change (2. order) :-0.1616814E+02  (-0.1039910E+02)
 number of electron     247.0000020 magnetization       3.9999997
 augmentation part       14.7581241 magnetization       3.1003666

 DIPCOR: dipole corrections for dipol
 direction  3 min pos     1,
 dipolmoment           0.000015      0.000006      0.035416 electrons x Angstroem
 Tr[quadrupol]     -6626.408753

 energy correction for charged system         0.000000 eV
 dipol+quadrupol energy correction            0.000036 eV
 added-field ion interaction          0.000000 eV  (added to PSCEN)


 Free energy of the ion-electron system (eV)
  ---------------------------------------------------
  alpha Z        PSCENC =       103.40120238
  Ewald energy   TEWEN  =     40086.81692447
  -Hartree energ DENC   =    -48623.41246758
  -exchange      EXHF   =       561.72359067
  -V(xc)+E(xc)   XCENC  =       629.35715351
  PAW double counting   =     27686.50277567   -27732.28830472
  entropy T*S    EENTRO =        -0.02096556
  eigenvalues    EBANDS =     -3438.33977814
  atomic energy  EATOM  =     10134.64230457
  ---------------------------------------------------
  free energy    TOTEN  =      -591.62357243 eV

  energy without entropy =     -591.60260687  energy(sigma->0) =     -591.61308965
  exchange ACFDT corr.  =        -2.12408662  see jH, gK, PRB 81, 115126


--------------------------------------------------------------------------------------------------------




--------------------------------------- Iteration      1(  11)  ---------------------------------------


    POTLOK:  cpu time    0.9124: real time    0.9159
    SETDIJ:  cpu time    0.9885: real time    0.9911
    TRIAL :  cpu time  162.6554: real time  163.0990
    CORREC:  cpu time    0.0008: real time    0.0008
    CHARGE:  cpu time    0.7371: real time    0.7389
    --------------------------------------------
      LOOP:  cpu time  165.2968: real time  165.7526

 eigenvalue-minimisations  :     0
 total energy-change (2. order) :-0.5905313E+01  (-0.5924924E+01)
 number of electron     247.0000020 magnetization       4.0000481
 augmentation part       14.6242872 magnetization       3.0986946

 DIPCOR: dipole corrections for dipol
 direction  3 min pos     1,
 dipolmoment           0.000013      0.000005      0.030025 electrons x Angstroem
 Tr[quadrupol]     -6634.417296

 energy correction for charged system         0.000000 eV
 dipol+quadrupol energy correction            0.000026 eV
 added-field ion interaction          0.000000 eV  (added to PSCEN)


 Free energy of the ion-electron system (eV)
  ---------------------------------------------------
  alpha Z        PSCENC =       103.40119229
  Ewald energy   TEWEN  =     40086.81692447
  -Hartree energ DENC   =    -48733.70650616
  -exchange      EXHF   =       562.95559028
  -V(xc)+E(xc)   XCENC  =       629.97111061
  PAW double counting   =     27689.54243459   -27742.22820072
  entropy T*S    EENTRO =        -0.02171188
  eigenvalues    EBANDS =     -3328.90276976
  atomic energy  EATOM  =     10134.64230457
  ---------------------------------------------------
  free energy    TOTEN  =      -597.52888538 eV

  energy without entropy =     -597.50717350  energy(sigma->0) =     -597.51802944
  exchange ACFDT corr.  =        -1.63005148  see jH, gK, PRB 81, 115126


--------------------------------------------------------------------------------------------------------




--------------------------------------- Iteration      1(  12)  ---------------------------------------


    POTLOK:  cpu time    0.9055: real time    0.9084
    SETDIJ:  cpu time    0.9917: real time    0.9941
    TRIAL :  cpu time  162.5863: real time  163.0254
    CORREC:  cpu time    0.0007: real time    0.0007
    CHARGE:  cpu time    0.7337: real time    0.7355
    --------------------------------------------
      LOOP:  cpu time  165.2192: real time  165.6696

 eigenvalue-minimisations  :     0
 total energy-change (2. order) :-0.3936437E+01  (-0.3718619E+01)
 number of electron     247.0000021 magnetization       4.0730604
 augmentation part       14.3444941 magnetization       3.1402626

 DIPCOR: dipole corrections for dipol
 direction  3 min pos     1,
 dipolmoment           0.000008      0.000003      0.018309 electrons x Angstroem
 Tr[quadrupol]     -6636.634376

 energy correction for charged system         0.000000 eV
 dipol+quadrupol energy correction            0.000010 eV
 added-field ion interaction          0.000000 eV  (added to PSCEN)


 Free energy of the ion-electron system (eV)
  ---------------------------------------------------
  alpha Z        PSCENC =       103.40117609
  Ewald energy   TEWEN  =     40086.81692447
  -Hartree energ DENC   =    -48754.94905032
  -exchange      EXHF   =       563.76604688
  -V(xc)+E(xc)   XCENC  =       630.07026836
  PAW double counting   =     27594.86151752   -27645.76747000
  entropy T*S    EENTRO =        -0.02677095
  eigenvalues    EBANDS =     -3314.28532819
  atomic energy  EATOM  =     10134.64230457
  ---------------------------------------------------
  free energy    TOTEN  =      -601.46532248 eV

  energy without entropy =     -601.43855153  energy(sigma->0) =     -601.45193701
  exchange ACFDT corr.  =        -1.29441641  see jH, gK, PRB 81, 115126


--------------------------------------------------------------------------------------------------------




--------------------------------------- Iteration      1(  13)  ---------------------------------------


    POTLOK:  cpu time    0.9079: real time    0.9106
    SETDIJ:  cpu time    0.9807: real time    0.9831
    TRIAL :  cpu time  162.3637: real time  162.8081
    CORREC:  cpu time    0.0008: real time    0.0008
    CHARGE:  cpu time    0.7337: real time    0.7355
    --------------------------------------------
      LOOP:  cpu time  164.9887: real time  165.4434

 eigenvalue-minimisations  :     0
 total energy-change (2. order) :-0.2665480E+01  (-0.2182742E+01)
 number of electron     247.0000021 magnetization       4.3400626
 augmentation part       14.2744704 magnetization       3.2154048

 DIPCOR: dipole corrections for dipol
 direction  3 min pos     1,
 dipolmoment           0.000014      0.000006      0.033791 electrons x Angstroem
 Tr[quadrupol]     -6637.670447

 energy correction for charged system         0.000000 eV
 dipol+quadrupol energy correction            0.000033 eV
 added-field ion interaction          0.000000 eV  (added to PSCEN)


 Free energy of the ion-electron system (eV)
  ---------------------------------------------------
  alpha Z        PSCENC =       103.40119916
  Ewald energy   TEWEN  =     40086.81692447
  -Hartree energ DENC   =    -48756.91924465
  -exchange      EXHF   =       564.47505758
  -V(xc)+E(xc)   XCENC  =       630.17364264
  PAW double counting   =     27493.19372661   -27539.66769618
  entropy T*S    EENTRO =        -0.03259473
  eigenvalues    EBANDS =     -3320.21994529
  atomic energy  EATOM  =     10134.64230457
  ---------------------------------------------------
  free energy    TOTEN  =      -604.13080204 eV

  energy without entropy =     -604.09820731  energy(sigma->0) =     -604.11450468
  exchange ACFDT corr.  =        -1.24840694  see jH, gK, PRB 81, 115126


--------------------------------------------------------------------------------------------------------




--------------------------------------- Iteration      1(  14)  ---------------------------------------


    POTLOK:  cpu time    0.9099: real time    0.9124
    SETDIJ:  cpu time    0.9816: real time    0.9840
    TRIAL :  cpu time  162.7552: real time  163.1949
    CORREC:  cpu time    0.0008: real time    0.0008
    CHARGE:  cpu time    0.7335: real time    0.7353
    --------------------------------------------
      LOOP:  cpu time  165.3830: real time  165.8330

 eigenvalue-minimisations  :     0
 total energy-change (2. order) :-0.1772823E+01  (-0.2161682E+01)
 number of electron     247.0000021 magnetization       4.3259642
 augmentation part       14.4425911 magnetization       3.1989824

 DIPCOR: dipole corrections for dipol
 direction  3 min pos     1,
 dipolmoment           0.000017      0.000007      0.040165 electrons x Angstroem
 Tr[quadrupol]     -6638.967281

 energy correction for charged system         0.000000 eV
 dipol+quadrupol energy correction            0.000046 eV
 added-field ion interaction          0.000000 eV  (added to PSCEN)


 Free energy of the ion-electron system (eV)
  ---------------------------------------------------
  alpha Z        PSCENC =       103.40121264
  Ewald energy   TEWEN  =     40086.81692447
  -Hartree energ DENC   =    -48779.01786579
  -exchange      EXHF   =       565.35028936
  -V(xc)+E(xc)   XCENC  =       630.65335218
  PAW double counting   =     27445.78676526   -27491.30064908
  entropy T*S    EENTRO =        -0.03044554
  eigenvalues    EBANDS =     -3302.20336357
  atomic energy  EATOM  =     10134.64230457
  ---------------------------------------------------
  free energy    TOTEN  =      -605.90362468 eV

  energy without entropy =     -605.87317913  energy(sigma->0) =     -605.88840190
  exchange ACFDT corr.  =        -1.38848351  see jH, gK, PRB 81, 115126


--------------------------------------------------------------------------------------------------------




--------------------------------------- Iteration      1(  15)  ---------------------------------------


    POTLOK:  cpu time    0.9088: real time    0.9123
    SETDIJ:  cpu time    0.9795: real time    0.9819
    TRIAL :  cpu time  161.9745: real time  162.4093
    CORREC:  cpu time    0.0008: real time    0.0008
    CHARGE:  cpu time    0.7348: real time    0.7366
    --------------------------------------------
      LOOP:  cpu time  164.6004: real time  165.0462

 eigenvalue-minimisations  :     0
 total energy-change (2. order) :-0.1676333E+01  (-0.1138984E+01)
 number of electron     247.0000020 magnetization       4.3992591
 augmentation part       14.5167062 magnetization       3.2152525

 DIPCOR: dipole corrections for dipol
 direction  3 min pos     1,
 dipolmoment           0.000014      0.000006      0.033897 electrons x Angstroem
 Tr[quadrupol]     -6640.034818

 energy correction for charged system         0.000000 eV
 dipol+quadrupol energy correction            0.000033 eV
 added-field ion interaction          0.000000 eV  (added to PSCEN)


 Free energy of the ion-electron system (eV)
  ---------------------------------------------------
  alpha Z        PSCENC =       103.40119937
  Ewald energy   TEWEN  =     40086.81692447
  -Hartree energ DENC   =    -48812.31027439
  -exchange      EXHF   =       566.00847309
  -V(xc)+E(xc)   XCENC  =       631.15296024
  PAW double counting   =     27439.26962318   -27487.44221765
  entropy T*S    EENTRO =        -0.03098336
  eigenvalues    EBANDS =     -3269.08850510
  atomic energy  EATOM  =     10134.64230457
  ---------------------------------------------------
  free energy    TOTEN  =      -607.57995776 eV

  energy without entropy =     -607.54897441  energy(sigma->0) =     -607.56446608
  exchange ACFDT corr.  =        -1.50018154  see jH, gK, PRB 81, 115126


--------------------------------------------------------------------------------------------------------




--------------------------------------- Iteration      1(  16)  ---------------------------------------


    POTLOK:  cpu time    0.9036: real time    0.9073
    SETDIJ:  cpu time    0.9807: real time    0.9844
    TRIAL :  cpu time  162.0818: real time  162.5173
    CORREC:  cpu time    0.0007: real time    0.0007
    CHARGE:  cpu time    0.7331: real time    0.7349
    --------------------------------------------
      LOOP:  cpu time  164.7021: real time  165.1500

 eigenvalue-minimisations  :     0
 total energy-change (2. order) :-0.9710244E+00  (-0.9152082E+00)
 number of electron     247.0000021 magnetization       4.6045456
 augmentation part       14.4550922 magnetization       3.2739288

 DIPCOR: dipole corrections for dipol
 direction  3 min pos     1,
 dipolmoment           0.000013      0.000005      0.030873 electrons x Angstroem
 Tr[quadrupol]     -6640.556786

 energy correction for charged system         0.000000 eV
 dipol+quadrupol energy correction            0.000027 eV
 added-field ion interaction          0.000000 eV  (added to PSCEN)


 Free energy of the ion-electron system (eV)
  ---------------------------------------------------
  alpha Z        PSCENC =       103.40119377
  Ewald energy   TEWEN  =     40086.81692447
  -Hartree energ DENC   =    -48827.93638956
  -exchange      EXHF   =       566.43829385
  -V(xc)+E(xc)   XCENC  =       631.42876076
  PAW double counting   =     27431.27148885   -27480.66861746
  entropy T*S    EENTRO =        -0.02970064
  eigenvalues    EBANDS =     -3253.91395808
  atomic energy  EATOM  =     10134.64230457
  ---------------------------------------------------
  free energy    TOTEN  =      -608.55098217 eV

  energy without entropy =     -608.52128153  energy(sigma->0) =     -608.53613185
  exchange ACFDT corr.  =        -1.34488582  see jH, gK, PRB 81, 115126


--------------------------------------------------------------------------------------------------------




--------------------------------------- Iteration      1(  17)  ---------------------------------------


    POTLOK:  cpu time    0.8969: real time    0.8999
    SETDIJ:  cpu time    0.9807: real time    0.9831
    TRIAL :  cpu time  162.7529: real time  163.2422
    CORREC:  cpu time    0.0008: real time    0.0008
    CHARGE:  cpu time    0.7310: real time    0.7328
    --------------------------------------------
      LOOP:  cpu time  165.3643: real time  165.8647

 eigenvalue-minimisations  :     0
 total energy-change (2. order) :-0.7696131E+00  (-0.6054246E+00)
 number of electron     247.0000021 magnetization       4.7156950
 augmentation part       14.4269019 magnetization       3.2955863

 DIPCOR: dipole corrections for dipol
 direction  3 min pos     1,
 dipolmoment           0.000013      0.000005      0.029988 electrons x Angstroem
 Tr[quadrupol]     -6640.738250

 energy correction for charged system         0.000000 eV
 dipol+quadrupol energy correction            0.000026 eV
 added-field ion interaction          0.000000 eV  (added to PSCEN)


 Free energy of the ion-electron system (eV)
  ---------------------------------------------------
  alpha Z        PSCENC =       103.40119222
  Ewald energy   TEWEN  =     40086.81692447
  -Hartree energ DENC   =    -48826.38057860
  -exchange      EXHF   =       566.67872980
  -V(xc)+E(xc)   XCENC  =       631.48532311
  PAW double counting   =     27409.60284935   -27458.03573857
  entropy T*S    EENTRO =        -0.02689952
  eigenvalues    EBANDS =     -3257.50190101
  atomic energy  EATOM  =     10134.64230457
  ---------------------------------------------------
  free energy    TOTEN  =      -609.32059529 eV

  energy without entropy =     -609.29369577  energy(sigma->0) =     -609.30714553
  exchange ACFDT corr.  =        -1.31458783  see jH, gK, PRB 81, 115126


--------------------------------------------------------------------------------------------------------




--------------------------------------- Iteration      1(  18)  ---------------------------------------


    POTLOK:  cpu time    0.8910: real time    0.8952
    SETDIJ:  cpu time    0.9793: real time    0.9817
    TRIAL :  cpu time  162.7873: real time  163.2625
    CORREC:  cpu time    0.0007: real time    0.0007
    CHARGE:  cpu time    0.7318: real time    0.7336
    --------------------------------------------
      LOOP:  cpu time  165.3917: real time  165.8790

 eigenvalue-minimisations  :     0
 total energy-change (2. order) :-0.5486163E+00  (-0.4613074E+00)
 number of electron     247.0000021 magnetization       4.7633885
 augmentation part       14.4474267 magnetization       3.2941088

 DIPCOR: dipole corrections for dipol
 direction  3 min pos     1,
 dipolmoment           0.000012      0.000005      0.027153 electrons x Angstroem
 Tr[quadrupol]     -6640.813680

 energy correction for charged system         0.000000 eV
 dipol+quadrupol energy correction            0.000021 eV
 added-field ion interaction          0.000000 eV  (added to PSCEN)


 Free energy of the ion-electron system (eV)
  ---------------------------------------------------
  alpha Z        PSCENC =       103.40118759
  Ewald energy   TEWEN  =     40086.81692447
  -Hartree energ DENC   =    -48824.47321300
  -exchange      EXHF   =       566.78200897
  -V(xc)+E(xc)   XCENC  =       631.46500432
  PAW double counting   =     27398.37329523   -27446.32726620
  entropy T*S    EENTRO =        -0.02560405
  eigenvalues    EBANDS =     -3260.52255805
  atomic energy  EATOM  =     10134.64230457
  ---------------------------------------------------
  free energy    TOTEN  =      -609.86921164 eV

  energy without entropy =     -609.84360759  energy(sigma->0) =     -609.85640962
  exchange ACFDT corr.  =        -1.36164701  see jH, gK, PRB 81, 115126


--------------------------------------------------------------------------------------------------------




--------------------------------------- Iteration      1(  19)  ---------------------------------------


    POTLOK:  cpu time    0.8853: real time    0.8889
    SETDIJ:  cpu time    0.9895: real time    0.9924
    TRIAL :  cpu time  162.0424: real time  162.4789
    CORREC:  cpu time    0.0007: real time    0.0007
    CHARGE:  cpu time    0.7339: real time    0.7357
    --------------------------------------------
      LOOP:  cpu time  164.6536: real time  165.1023

 eigenvalue-minimisations  :     0
 total energy-change (2. order) :-0.4183940E+00  (-0.3537982E+00)
 number of electron     247.0000021 magnetization       4.8102422
 augmentation part       14.4633178 magnetization       3.2940646

 DIPCOR: dipole corrections for dipol
 direction  3 min pos     1,
 dipolmoment           0.000010      0.000004      0.023321 electrons x Angstroem
 Tr[quadrupol]     -6640.864942

 energy correction for charged system         0.000000 eV
 dipol+quadrupol energy correction            0.000016 eV
 added-field ion interaction          0.000000 eV  (added to PSCEN)


 Free energy of the ion-electron system (eV)
  ---------------------------------------------------
  alpha Z        PSCENC =       103.40118206
  Ewald energy   TEWEN  =     40086.81692447
  -Hartree energ DENC   =    -48825.65768894
  -exchange      EXHF   =       566.85924744
  -V(xc)+E(xc)   XCENC  =       631.45720673
  PAW double counting   =     27398.16234484   -27446.43156887
  entropy T*S    EENTRO =        -0.02290003
  eigenvalues    EBANDS =     -3259.51195385
  atomic energy  EATOM  =     10134.64230457
  ---------------------------------------------------
  free energy    TOTEN  =      -610.28760559 eV

  energy without entropy =     -610.26470556  energy(sigma->0) =     -610.27615557
  exchange ACFDT corr.  =        -1.42381813  see jH, gK, PRB 81, 115126


--------------------------------------------------------------------------------------------------------




--------------------------------------- Iteration      1(  20)  ---------------------------------------


    POTLOK:  cpu time    0.8791: real time    0.8830
    SETDIJ:  cpu time    0.9805: real time    0.9834
    TRIAL :  cpu time  162.3700: real time  162.8153
    CORREC:  cpu time    0.0008: real time    0.0008
    CHARGE:  cpu time    0.7320: real time    0.7338
    --------------------------------------------
      LOOP:  cpu time  164.9641: real time  165.4217

 eigenvalue-minimisations  :     0
 total energy-change (2. order) :-0.3261244E+00  (-0.2703368E+00)
 number of electron     247.0000021 magnetization       4.8514081
 augmentation part       14.4644210 magnetization       3.2913990

 DIPCOR: dipole corrections for dipol
 direction  3 min pos     1,
 dipolmoment           0.000008      0.000003      0.018381 electrons x Angstroem
 Tr[quadrupol]     -6640.902595

 energy correction for charged system         0.000000 eV
 dipol+quadrupol energy correction            0.000010 eV
 added-field ion interaction          0.000000 eV  (added to PSCEN)


 Free energy of the ion-electron system (eV)
  ---------------------------------------------------
  alpha Z        PSCENC =       103.40117617
  Ewald energy   TEWEN  =     40086.81692447
  -Hartree energ DENC   =    -48826.93308873
  -exchange      EXHF   =       566.95744252
  -V(xc)+E(xc)   XCENC  =       631.46775474
  PAW double counting   =     27398.96379966   -27447.48207758
  entropy T*S    EENTRO =        -0.01942616
  eigenvalues    EBANDS =     -3258.42506578
  atomic energy  EATOM  =     10134.64230457
  ---------------------------------------------------
  free energy    TOTEN  =      -610.61372999 eV

  energy without entropy =     -610.59430383  energy(sigma->0) =     -610.60401691
[...]
  augment    55.08522    55.04434    57.73731     0.01272    -0.10506     0.22790
  Kinetic  3718.35721  3694.03786  4234.19954     0.05769    -0.07753     0.32215
  Fock     -338.60405  -338.94566  -317.18203    -0.00676     0.10316    -0.00281
  -------------------------------------------------------------------------------------
  Total     -45.13372   -43.29283    -0.44805     0.03034    -0.01151     0.10274
  in kB     -22.76212   -21.83371    -0.22596     0.01530    -0.00581     0.05181
  external pressure =      -14.94 kB  Pullay stress =        0.00 kB


 VOLUME and BASIS-vectors are now :
 -----------------------------------------------------------------------------
  energy-cutoff  :      500.00
  volume of cell :     3176.87
      direct lattice vectors                 reciprocal lattice vectors
    13.002700000  0.000000000  0.000000000     0.076907104  0.000001879 -0.000032752
    -0.000299331 12.250299996  0.000000000     0.000000000  0.081630654 -0.000014533
     0.008493486  0.003550763 19.944297875     0.000000000  0.000000000  0.050139644

  length of vectors
    13.002700000 12.250300000 19.944300000     0.076907111  0.081630655  0.050139644


 FORCES acting on ions:
    Electron-Ion                     Ewald-Force                    Non-Local-Force
 -----------------------------------------------------------------------------------------------
   0.390E+00 0.121E-02 -.170E+00   -.235E+00 -.791E-03 0.174E+00   -.113E+00 0.718E-03 -.603E-02
   0.324E+01 0.932E+01 -.701E+00   -.313E+01 -.960E+01 0.701E+00   -.115E+00 0.264E+00 -.420E-02
   -.878E+01 0.108E-01 -.497E+00   0.884E+01 -.113E-01 0.494E+00   -.109E+00 0.218E-04 -.185E-02
   0.614E+01 0.125E+02 0.921E+00   -.628E+01 -.125E+02 -.930E+00   0.928E-01 -.168E-01 0.928E-02
   0.106E+02 0.494E+02 0.766E+00   -.120E+02 -.526E+02 -.771E+00   0.135E+01 0.336E+01 0.179E-01
   0.116E+02 0.162E+02 -.108E+01   -.119E+02 -.165E+02 0.108E+01   0.281E+00 0.212E+00 0.569E-02
   0.157E+01 0.151E+02 -.461E+00   -.174E+01 -.155E+02 0.468E+00   0.140E+00 0.273E+00 -.335E-02
   0.331E+02 -.751E+01 -.839E+00   -.349E+02 0.104E+02 0.862E+00   0.164E+01 -.324E+01 -.276E-01
   0.107E+02 0.249E-02 -.268E+01   -.108E+02 -.300E-02 0.267E+01   0.102E+00 0.320E-02 -.458E-02
   0.215E+02 0.161E+01 -.225E+01   -.219E+02 -.131E+01 0.226E+01   0.485E+00 -.277E+00 -.154E-01
   0.466E+02 -.522E-01 0.248E+00   -.466E+02 0.530E-01 -.267E+00   0.928E+00 -.793E-03 0.108E-01
   0.331E+02 0.750E+01 -.187E+01   -.348E+02 -.104E+02 0.190E+01   0.164E+01 0.324E+01 -.264E-01
   0.116E+02 -.162E+02 -.112E+01   -.119E+02 0.165E+02 0.112E+01   0.280E+00 -.213E+00 0.161E-02
   0.215E+02 -.164E+01 -.252E+01   -.219E+02 0.133E+01 0.253E+01   0.490E+00 0.279E+00 -.114E-01
   0.106E+02 -.494E+02 -.639E+00   -.120E+02 0.525E+02 0.617E+00   0.135E+01 -.336E+01 0.265E-01
   0.325E+01 -.931E+01 -.513E+00   -.314E+01 0.959E+01 0.516E+00   -.112E+00 -.265E+00 -.343E-02
   0.157E+01 -.151E+02 -.766E+00   -.174E+01 0.154E+02 0.768E+00   0.139E+00 -.275E+00 0.148E-02
   0.613E+01 -.124E+02 -.333E+00   -.627E+01 0.125E+02 0.322E+00   0.918E-01 0.164E-01 0.778E-02
   -.270E+00 0.155E-01 -.155E+01   0.297E+00 -.160E-01 0.154E+01   -.102E+00 -.405E-03 0.379E-02
   0.292E+02 0.287E+02 0.789E+00   -.314E+02 -.312E+02 -.759E+00   0.240E+01 0.267E+01 -.334E-01
   0.146E+02 -.571E-02 -.964E+00   -.149E+02 0.553E-02 0.963E+00   0.405E+00 -.183E-03 -.103E-01
   -.118E+02 0.877E+01 -.146E+01   0.125E+02 -.870E+01 0.147E+01   -.654E+00 -.250E-02 -.115E-01
   -.337E+02 0.114E+02 0.156E+00   0.368E+02 -.116E+02 -.135E+00   -.324E+01 0.249E-01 -.241E-01
   -.236E+02 0.216E+02 0.454E+00   0.254E+02 -.239E+02 -.443E+00   -.170E+01 0.241E+01 -.174E-01
   -.173E+02 -.128E-01 0.720E+00   0.204E+02 0.111E-01 -.660E+00   -.329E+01 0.163E-02 -.567E-01
   -.235E+02 -.216E+02 -.488E+00   0.254E+02 0.239E+02 0.487E+00   -.170E+01 -.241E+01 -.984E-02
   -.337E+02 -.114E+02 -.130E+01   0.368E+02 0.116E+02 0.131E+01   -.324E+01 -.262E-01 -.172E-01
   0.292E+02 -.287E+02 -.695E+00   -.314E+02 0.312E+02 0.697E+00   0.240E+01 -.268E+01 -.162E-01
   -.118E+02 -.877E+01 -.188E+01   0.125E+02 0.871E+01 0.189E+01   -.655E+00 0.156E-02 -.147E-01
   -.336E+00 -.325E-05 -.611E+00   0.400E+00 0.179E-03 0.611E+00   -.100E+00 0.753E-04 0.222E-02
   -.193E+01 0.564E+01 -.158E+01   0.237E+01 -.565E+01 0.158E+01   -.375E+00 0.303E-01 -.378E-02
   -.933E+01 -.623E-02 -.113E+01   0.947E+01 0.649E-02 0.113E+01   -.114E+00 -.780E-03 -.631E-03
   -.875E+01 0.238E+01 -.857E+00   0.886E+01 -.241E+01 0.859E+00   -.120E+00 0.237E-01 -.275E-02
   0.970E+00 0.879E+01 -.106E+01   -.908E+00 -.888E+01 0.106E+01   -.464E-01 0.103E+00 0.220E-02
   -.134E+02 0.925E+01 -.866E+00   0.136E+02 -.973E+01 0.866E+00   -.375E+00 0.369E+00 -.365E-02
   -.857E+01 -.276E-01 -.134E+01   0.872E+01 -.355E+00 0.134E+01   -.152E+00 0.298E+00 -.326E-02
   0.252E+01 0.125E+01 -.118E+01   -.269E+01 -.132E+01 0.118E+01   0.189E+00 0.421E-01 0.696E-03
   0.859E+00 0.561E+01 -.135E+01   -.711E+00 -.570E+01 0.135E+01   -.178E+00 0.106E+00 -.211E-02
   -.908E+01 -.379E-02 -.821E+00   0.974E+01 0.391E-02 0.827E+00   -.458E+00 -.586E-03 -.134E-01
   -.841E+01 -.567E+00 -.920E+00   0.878E+01 0.576E+00 0.914E+00   -.316E+00 0.773E-01 0.419E-02
   0.687E+01 -.163E-01 -.171E+01   -.676E+01 0.162E-01 0.171E+01   -.788E-01 -.651E-03 0.761E-03
   0.863E+00 -.559E+01 -.932E+00   -.715E+00 0.568E+01 0.934E+00   -.179E+00 -.107E+00 -.542E-04
   -.134E+02 -.925E+01 -.575E+00   0.136E+02 0.972E+01 0.572E+00   -.374E+00 -.369E+00 0.319E-02
   -.842E+01 0.557E+00 -.699E+00   0.878E+01 -.566E+00 0.698E+00   -.316E+00 -.789E-01 -.505E-03
   0.251E+01 -.126E+01 -.463E+00   -.268E+01 0.133E+01 0.461E+00   0.188E+00 -.421E-01 0.675E-02
   0.967E+00 -.878E+01 -.127E+00   -.905E+00 0.887E+01 0.127E+00   -.449E-01 -.101E+00 0.559E-02
   -.194E+01 -.563E+01 -.114E+01   0.237E+01 0.563E+01 0.114E+01   -.376E+00 -.312E-01 0.539E-02
   -.855E+01 0.125E-01 -.611E+00   0.870E+01 0.371E+00 0.614E+00   -.151E+00 -.297E+00 -.229E-02
   -.876E+01 -.237E+01 -.279E+00   0.887E+01 0.240E+01 0.282E+00   -.116E+00 -.216E-01 0.880E-03
   -.235E+02 0.433E+02 0.307E+01   0.434E+02 -.421E+02 -.340E+01   -.191E+02 -.122E+01 0.263E+00
   -.235E+02 -.433E+02 0.550E-01   0.434E+02 0.420E+02 -.287E+00   -.191E+02 0.122E+01 0.163E+00
   0.347E+02 0.187E+01 0.338E+01   -.451E+02 0.155E+02 -.358E+01   0.994E+01 -.167E+02 0.210E+00
   0.247E+02 -.185E+02 0.349E+01   -.453E+02 0.181E+02 -.368E+01   0.197E+02 0.545E+00 0.197E+00
   -.790E+02 -.744E-01 0.841E+01   0.993E+02 0.806E-01 -.890E+01   -.198E+02 0.652E-02 0.390E+00
   0.247E+02 0.185E+02 0.181E+01   -.453E+02 -.181E+02 -.192E+01   0.197E+02 -.537E+00 0.111E+00
   0.347E+02 -.182E+01 -.600E+00   -.451E+02 -.155E+02 0.555E+00   0.994E+01 0.166E+02 0.510E-01
   -.240E+02 0.176E+02 0.121E+02   0.229E+02 -.153E+02 -.121E+02   0.119E+01 -.238E+01 0.828E-01
   -.239E+02 -.176E+02 0.574E+01   0.229E+02 0.153E+02 -.581E+01   0.118E+01 0.237E+01 0.130E+00
 -----------------------------------------------------------------------------------------------
   0.776E+00 -.491E-02 -.151E+01   0.796E-12 -.149E-12 0.115E-13   -.614E+00 0.505E-02 0.137E+01
 
 
 POSITION                                       TOTAL-FORCE (eV/Angst)
 -----------------------------------------------------------------------------------
      2.97193     12.25100      9.96814         0.033054      0.001168     -0.003002
      0.76430      1.22184      9.97211        -0.003862      0.003831     -0.004759
      1.51214     12.25100      9.97110        -0.064434     -0.000425     -0.004881
      3.68101      1.28203      9.96297        -0.047024     -0.056055      0.001099
      2.90528      2.51680      9.96239         0.049121      0.387091      0.013547
      0.66849      3.65935      9.97337        -0.003637      0.027134      0.000456
      1.45547      2.46344      9.96975        -0.034883     -0.020301      0.003013
      2.72927      4.89699      9.96531         0.002857     -0.491393     -0.006566
      0.62643      6.12572      9.97810        -0.041452      0.002881     -0.006739
      1.33441      4.89818      9.97450         0.084837      0.001713     -0.005051
      3.42859      6.12584      9.96019         1.040205     -0.000109     -0.008618
      2.72909      7.35467      9.97028         0.006898      0.490342     -0.001965
      0.66836      8.59235      9.97458        -0.003384     -0.028858      0.001434
      1.33419      7.35338      9.97652         0.090350      0.001365     -0.004290
      2.90515      9.73501      9.96972         0.047298     -0.388005      0.005032
      0.76392     11.02989      9.97235        -0.001431     -0.004495     -0.000716
      1.45530      9.78835      9.97254        -0.035821      0.017462      0.003745
      3.68081     10.96975      9.96892        -0.048050      0.055400     -0.003234
      7.26354     12.25105      9.97309        -0.077299     -0.000906     -0.006955
      5.13999      1.27827      9.96202         0.266335      0.338560     -0.005181
      5.82899     12.25108      9.96947         0.103960     -0.000398     -0.011138
      7.99367      1.22432      9.97211         0.022890      0.069280     -0.005540
      7.27084      2.44432      9.96356        -0.341564     -0.166449     -0.004833
      7.98199      3.69909      9.96279         0.055410      0.288877     -0.007341
      7.91033      6.12574      9.96157        -0.339817     -0.000022     -0.000042
      7.98176      8.55249      9.96813         0.056217     -0.285817     -0.011864
      7.27066      9.80742      9.97130        -0.341074      0.165792     -0.007551
      5.13977     10.97356      9.96930         0.267241     -0.337472     -0.014714
      7.99347     11.02746      9.97490         0.022019     -0.070164     -0.006667
     11.59304     12.25098      9.97398        -0.031956      0.000249      0.002502
      9.42561      1.21866      9.97510         0.052517      0.028835     -0.005329
     10.15569     12.25103      9.97516         0.015333     -0.000580      0.001512
     12.31827      1.22283      9.97415        -0.029291     -0.006447     -0.000441
     11.56224      2.43419      9.97495         0.020676      0.029234      0.000289
      9.39711      3.66711      9.97072        -0.172130     -0.080777     -0.003791
     10.13088      2.43909      9.97451        -0.014860     -0.077625     -0.003355
     12.25052      3.66489      9.97516         0.029062     -0.039638      0.000468
     11.51677      4.89520      9.97556        -0.038548      0.028338      0.000494
      9.35922      6.12584      9.96989         0.185060     -0.000501     -0.008748
     10.09494      4.90255      9.97233         0.031271      0.084847     -0.002130
     12.22032      6.12583      9.97695         0.032572     -0.000870     -0.000291
     11.51673      7.35650      9.97457        -0.039611     -0.030218      0.002128
      9.39686      8.58454      9.97135        -0.170978      0.080991      0.000399
     10.09486      7.34917      9.97212         0.031989     -0.087045     -0.002357
     12.25040      8.58678      9.97361         0.028981      0.039359      0.005235
     11.56193      9.81736      9.97260         0.021679     -0.026242      0.005532
      9.42542     11.03308      9.97476         0.050725     -0.029717      0.000368
     10.13061      9.81254      9.97314        -0.014882      0.079446      0.000766
     12.31784     11.02875      9.97278        -0.025504      0.008514      0.003074
      3.51310      3.76171      9.95582        -0.854531     -0.070183     -0.040517
      3.51297      8.49003      9.96591        -0.854922      0.067891     -0.055018
      5.88461      2.46045      9.95528         0.350829     -0.782900      0.032345
      7.24593      4.89546      9.95450         0.813499      0.186811      0.019707
      4.76961      6.12568      9.94325        -1.254938      0.013468     -0.069183
      7.24585      7.35604      9.96043         0.811182     -0.184427      0.015924
      5.88443      9.79145      9.96790         0.348696      0.776567      0.010298
      5.35800      4.33706      9.94211        -0.041694     -0.120379      0.109920
      5.35798      7.91463      9.95472        -0.045186      0.112968      0.083523
 -----------------------------------------------------------------------------------
    total drift:                                0.001236      0.000315      0.003542


--------------------------------------------------------------------------------------------------------



  FREE ENERGIE OF THE ION-ELECTRON SYSTEM (eV)
  ---------------------------------------------------
  free  energy   TOTEN  =      -611.85053124 eV

  energy  without entropy=     -611.85041245  energy(sigma->0) =     -611.85047184
 


--------------------------------------------------------------------------------------------------------


    POTLOK:  cpu time    1.8407: real time    1.8466


--------------------------------------------------------------------------------------------------------


 stress matrix after NEB project (eV)
    -45.13372      0.03034      0.10274
      0.03034    -43.29283     -0.01113
      0.09804     -0.01151     -0.44805
  FORCES: max atom, RMS     1.256916    0.393854
  FORCE total and by dimension    2.999506    1.254938
  Stress total and by dimension   62.542345   45.133719
 writing wavefunctions
     LOOP+:  cpu time39210.2818: real time39326.2060
    4ORBIT:  cpu time    0.0000: real time    0.0000
 


 total charge     
 
# of ion       s       p       d       tot
------------------------------------------
    1        0.850   1.688   0.000   2.538
    2        0.863   1.754   0.000   2.617
    3        0.857   1.750   0.000   2.607
    4        0.843   1.731   0.000   2.574
    5        0.850   1.696   0.000   2.546
    6        0.872   1.780   0.000   2.652
    7        0.862   1.767   0.000   2.629
    8        0.875   1.783   0.000   2.659
    9        0.870   1.807   0.000   2.677
   10        0.878   1.822   0.000   2.699
   11        0.885   1.796   0.000   2.681
   12        0.875   1.783   0.000   2.658
   13        0.872   1.780   0.000   2.652
   14        0.878   1.822   0.000   2.699
   15        0.850   1.696   0.000   2.546
   16        0.863   1.754   0.000   2.617
   17        0.862   1.767   0.000   2.629
   18        0.843   1.731   0.000   2.574
   19        0.869   1.756   0.000   2.625
   20        0.847   1.684   0.000   2.531
   21        0.857   1.747   0.000   2.604
   22        0.867   1.785   0.000   2.652
   23        0.862   1.736   0.000   2.598
   24        0.857   1.731   0.000   2.588
   25        0.840   1.658   0.000   2.498
   26        0.857   1.731   0.000   2.588
   27        0.862   1.736   0.000   2.598
   28        0.847   1.684   0.000   2.531
   29        0.867   1.785   0.000   2.652
   30        0.868   1.770   0.000   2.638
   31        0.869   1.788   0.000   2.656
   32        0.866   1.775   0.000   2.641
   33        0.863   1.764   0.000   2.627
   34        0.869   1.777   0.000   2.646
   35        0.870   1.786   0.000   2.655
   36        0.866   1.782   0.000   2.649
   37        0.869   1.789   0.000   2.658
   38        0.867   1.782   0.000   2.649
   39        0.862   1.768   0.000   2.631
   40        0.869   1.777   0.000   2.646
   41        0.875   1.791   0.000   2.665
   42        0.867   1.782   0.000   2.649
   43        0.870   1.786   0.000   2.655
   44        0.869   1.777   0.000   2.646
   45        0.869   1.789   0.000   2.658
   46        0.869   1.777   0.000   2.646
   47        0.869   1.788   0.000   2.656
   48        0.866   1.782   0.000   2.649
   49        0.863   1.764   0.000   2.627
   50        1.233   2.662   0.000   3.894
   51        1.232   2.662   0.000   3.894
   52        1.228   2.653   0.000   3.881
   53        1.222   2.646   0.000   3.868
   54        1.253   2.583   0.000   3.836
   55        1.222   2.646   0.000   3.868
   56        1.228   2.653   0.000   3.881
   57        0.440   0.592   6.250   7.282
   58        0.440   0.592   6.249   7.282
--------------------------------------------------
tot         51.833 106.024  12.499 170.356
 


 magnetization (x)
 
# of ion       s       p       d       tot
------------------------------------------
    1       -0.001  -0.003   0.000  -0.004
    2       -0.001  -0.008   0.000  -0.009
    3        0.002   0.027   0.000   0.029
    4        0.001   0.010   0.000   0.011
    5       -0.001  -0.017   0.000  -0.018
    6       -0.000  -0.003   0.000  -0.003
    7        0.001   0.013   0.000   0.014
    8        0.001   0.030   0.000   0.031
    9        0.001   0.023   0.000   0.025
   10       -0.001  -0.005   0.000  -0.006
   11       -0.001   0.003   0.000   0.001
   12        0.001   0.030   0.000   0.031
   13       -0.000  -0.003   0.000  -0.003
   14       -0.001  -0.005   0.000  -0.006
   15       -0.001  -0.017   0.000  -0.018
   16       -0.001  -0.008   0.000  -0.009
   17        0.001   0.013   0.000   0.014
   18        0.001   0.010   0.000   0.011
   19        0.000   0.008   0.000   0.008
   20       -0.001  -0.011   0.000  -0.012
   21        0.001   0.011   0.000   0.012
   22       -0.000   0.001   0.000   0.000
   23       -0.000   0.006   0.000   0.005
   24        0.001   0.020   0.000   0.021
   25        0.000   0.003   0.000   0.003
   26        0.001   0.020   0.000   0.021
   27       -0.000   0.006   0.000   0.005
   28       -0.001  -0.011   0.000  -0.012
   29       -0.000   0.001   0.000   0.000
   30       -0.000  -0.004   0.000  -0.005
   31       -0.000  -0.005   0.000  -0.005
   32        0.001   0.012   0.000   0.013
   33        0.001   0.007   0.000   0.008
   34       -0.001  -0.008   0.000  -0.008
   35       -0.001  -0.005   0.000  -0.005
   36        0.000   0.006   0.000   0.006
   37        0.001   0.014   0.000   0.015
   38       -0.000   0.004   0.000   0.004
   39       -0.000   0.007   0.000   0.007
   40        0.001   0.011   0.000   0.011
   41       -0.000  -0.001   0.000  -0.002
   42       -0.000   0.004   0.000   0.004
   43       -0.001  -0.005   0.000  -0.005
   44        0.001   0.011   0.000   0.011
   45        0.001   0.014   0.000   0.015
   46       -0.001  -0.008   0.000  -0.008
   47       -0.000  -0.005   0.000  -0.005
   48        0.000   0.006   0.000   0.006
   49        0.001   0.007   0.000   0.008
   50       -0.003   0.011   0.000   0.008
   51       -0.003   0.011   0.000   0.008
   52       -0.003  -0.001   0.000  -0.004
   53       -0.003   0.001   0.000  -0.002
   54       -0.003   0.082   0.000   0.079
   55       -0.003   0.001   0.000  -0.003
   56       -0.003  -0.001   0.000  -0.004
   57        0.038   0.022   1.992   2.051
   58        0.038   0.022   1.993   2.053
--------------------------------------------------
tot          0.055   0.356   3.984   4.395
 

 total amount of memory used by VASP MPI-rank0   150407. kBytes
=======================================================================

   base      :      30000. kBytes
   nonl-proj :       3693. kBytes
   fftplans  :      11188. kBytes
   grid      :      27138. kBytes
   one-center:         62. kBytes
   HF        :         23. kBytes
   nonlr-proj:      15393. kBytes
   wavefun   :      62910. kBytes
 
  
  
 General timing and accounting informations for this job:
 ========================================================
  
                  Total CPU time used (sec):    39238.836
                            User time (sec):    39211.640
                          System time (sec):       27.198
                         Elapsed time (sec):    39358.522
  
                   Maximum memory used (kb):      397592.
                   Average memory used (kb):           0.
  
                          Minor page faults:      1357123
                          Major page faults:          210
                 Voluntary context switches:       408777
