 vasp.5.4.4.18Apr17-6-g9f103f2a35 (build Feb 25 2019 10:51:38) complex          
  
 executed on             LinuxIFC date 2021.07.24  10:51:50
 running on   32 total cores
 distrk:  each k-point on   32 cores,    1 groups
 distr:  one band on NCORES_PER_BAND=  32 cores,    1 groups


--------------------------------------------------------------------------------------------------------


 INCAR:
 POTCAR:    PAW_PBE C 08Apr2002                   
 POTCAR:    PAW_PBE N 08Apr2002                   
 POTCAR:    PAW_PBE Co 02Aug2007                  
 POTCAR:    PAW_PBE Fe 06Sep2000                  

 ----------------------------------------------------------------------------- 
|                                                                             |
|           W    W    AA    RRRRR   N    N  II  N    N   GGGG   !!!           |
|           W    W   A  A   R    R  NN   N  II  NN   N  G    G  !!!           |
|           W    W  A    A  R    R  N N  N  II  N N  N  G       !!!           |
|           W WW W  AAAAAA  RRRRR   N  N N  II  N  N N  G  GGG   !            |
|           WW  WW  A    A  R   R   N   NN  II  N   NN  G    G                |
|           W    W  A    A  R    R  N    N  II  N    N   GGGG   !!!           |
|                                                                             |
|      For optimal performance we recommend to set                            |
|        NCORE= 4 - approx SQRT( number of cores)                             |
|      NCORE specifies how many cores store one orbital (NPAR=cpu/NCORE).     |
|      This setting can  greatly improve the performance of VASP for DFT.     |
|      The default,   NCORE=1            might be grossly inefficient         |
|      on modern multi-core architectures or massively parallel machines.     |
|      Do your own testing !!!!                                               |
|      Unfortunately you need to use the default for GW and RPA calculations. |
|      (for HF NCORE is supported but not extensively tested yet)             |
|                                                                             |
 ----------------------------------------------------------------------------- 

 POTCAR:    PAW_PBE C 08Apr2002                   
   VRHFIN =C: s2p2                                                              
   LEXCH  = PE                                                                  
   EATOM  =   147.1560 eV,   10.8157 Ry                                         
                                                                                
   TITEL  = PAW_PBE C 08Apr2002                                                 
   LULTRA =        F    use ultrasoft PP ?                                      
   IUNSCR =        1    unscreen: 0-lin 1-nonlin 2-no                           
   RPACOR =    1.200    partial core radius                                     
   POMASS =   12.011; ZVAL   =    4.000    mass and valenz                      
   RCORE  =    1.500    outmost cutoff radius                                   
   RWIGS  =    1.630; RWIGS  =    0.863    wigner-seitz radius (au A)           
   ENMAX  =  400.000; ENMIN  =  300.000 eV                                      
   ICORE  =        2    local potential                                         
   LCOR   =        T    correct aug charges                                     
   LPAW   =        T    paw PP                                                  
   EAUG   =  644.873                                                            
   DEXC   =    0.000                                                            
   RMAX   =    1.529    core radius for proj-oper                               
   RAUG   =    1.300    factor for augmentation sphere                          
   RDEP   =    1.501    radius for radial grids                                 
   RDEPT  =    1.300    core radius for aug-charge                              
                                                                                
   Atomic configuration                                                         
    4 entries                                                                   
     n  l   j            E        occ.                                          
     1  0  0.50      -273.3789   2.0000                                         
     2  0  0.50       -13.7508   2.0000                                         
     2  1  0.50        -5.2854   2.0000                                         
     3  2  1.50        -5.4423   0.0000                                         
   Description                                                                  
     l       E           TYP  RCUT    TYP  RCUT                                 
     0    -13.7508458     23  1.200                                             
     0     -8.2022199     23  1.200                                             
     1     -5.2854383     23  1.500                                             
     1     34.0145650     23  1.500                                             
     2     -5.4423304      7  1.500                                             
  local pseudopotential read in
  partial core-charges read in
  partial kinetic energy density read in
  atomic valenz-charges read in
  non local Contribution for L=           0  read in
    real space projection operators read in
  non local Contribution for L=           0  read in
    real space projection operators read in
  non local Contribution for L=           1  read in
    real space projection operators read in
  non local Contribution for L=           1  read in
    real space projection operators read in
    PAW grid and wavefunctions read in
 
   number of l-projection  operators is LMAX  =           4
   number of lm-projection operators is LMMAX =           8
 
 POTCAR:    PAW_PBE N 08Apr2002                   
   VRHFIN =N: s2p3                                                              
   LEXCH  = PE                                                                  
   EATOM  =   264.5486 eV,   19.4438 Ry                                         
                                                                                
   TITEL  = PAW_PBE N 08Apr2002                                                 
   LULTRA =        F    use ultrasoft PP ?                                      
   IUNSCR =        1    unscreen: 0-lin 1-nonlin 2-no                           
   RPACOR =    1.200    partial core radius                                     
   POMASS =   14.001; ZVAL   =    5.000    mass and valenz                      
   RCORE  =    1.500    outmost cutoff radius                                   
   RWIGS  =    1.400; RWIGS  =    0.741    wigner-seitz radius (au A)           
   ENMAX  =  400.000; ENMIN  =  300.000 eV                                      
   ICORE  =        2    local potential                                         
   LCOR   =        T    correct aug charges                                     
   LPAW   =        T    paw PP                                                  
   EAUG   =  627.112                                                            
   DEXC   =    0.000                                                            
   RMAX   =    1.529    core radius for proj-oper                               
   RAUG   =    1.300    factor for augmentation sphere                          
   RDEP   =    1.514    radius for radial grids                                 
   RDEPT  =    1.338    core radius for aug-charge                              
                                                                                
   Atomic configuration                                                         
    4 entries                                                                   
     n  l   j            E        occ.                                          
     1  0  0.50      -384.7179   2.0000                                         
     2  0  0.50       -18.5828   2.0000                                         
     2  1  0.50        -7.0898   3.0000                                         
     3  2  1.50        -6.8029   0.0000                                         
   Description                                                                  
     l       E           TYP  RCUT    TYP  RCUT                                 
     0    -18.5828119     23  1.200                                             
     0    -13.5018863     23  1.200                                             
     1     -7.0897853     23  1.500                                             
     1      9.5240782     23  1.500                                             
     2     -6.8029130      7  1.500                                             
  local pseudopotential read in
  partial core-charges read in
  partial kinetic energy density read in
  atomic valenz-charges read in
  non local Contribution for L=           0  read in
    real space projection operators read in
  non local Contribution for L=           0  read in
    real space projection operators read in
  non local Contribution for L=           1  read in
    real space projection operators read in
  non local Contribution for L=           1  read in
    real space projection operators read in
    PAW grid and wavefunctions read in
 
   number of l-projection  operators is LMAX  =           4
   number of lm-projection operators is LMMAX =           8
 
 POTCAR:    PAW_PBE Co 02Aug2007                  
   VRHFIN =Co: d8 s1                                                            
   LEXCH  = PE                                                                  
   EATOM  =   813.3670 eV,   59.7808 Ry                                         
                                                                                
   TITEL  = PAW_PBE Co 02Aug2007                                                
   LULTRA =        F    use ultrasoft PP ?                                      
   IUNSCR =        1    unscreen: 0-lin 1-nonlin 2-no                           
   RPACOR =    2.000    partial core radius                                     
   POMASS =   58.933; ZVAL   =    9.000    mass and valenz                      
   RCORE  =    2.300    outmost cutoff radius                                   
   RWIGS  =    2.460; RWIGS  =    1.302    wigner-seitz radius (au A)           
   ENMAX  =  267.968; ENMIN  =  200.976 eV                                      
   RCLOC  =    1.203    cutoff for local pot                                    
   LCOR   =        T    correct aug charges                                     
   LPAW   =        T    paw PP                                                  
   EAUG   =  477.818                                                            
   DEXC   =    0.000                                                            
   RMAX   =    2.360    core radius for proj-oper                               
   RAUG   =    1.300    factor for augmentation sphere                          
   RDEP   =    2.393    radius for radial grids                                 
   RDEPT  =    1.864    core radius for aug-charge                              
                                                                                
   Atomic configuration                                                         
    9 entries                                                                   
     n  l   j            E        occ.                                          
     1  0  0.50     -7587.6674   2.0000                                         
     2  0  0.50      -893.6084   2.0000                                         
     2  1  1.50      -764.5805   6.0000                                         
     3  0  0.50       -97.5973   2.0000                                         
     3  1  1.50       -60.9648   6.0000                                         
     3  2  2.50        -4.2382   8.0000                                         
     4  0  0.50        -4.3746   1.0000                                         
     4  1  1.50        -4.0817   0.0000                                         
     4  3  2.50        -1.3606   0.0000                                         
   Description                                                                  
     l       E           TYP  RCUT    TYP  RCUT                                 
     2     -4.2382362     23  2.300                                             
     2     -5.5988188     23  2.300                                             
     0     -4.3745797     23  2.300                                             
     0      5.7660125     23  2.300                                             
     1     -2.7211652     23  2.300                                             
     1     16.9860234     23  2.300                                             
  local pseudopotential read in
  partial core-charges read in
  partial kinetic energy density read in
  atomic valenz-charges read in
  non local Contribution for L=           2  read in
    real space projection operators read in
  non local Contribution for L=           2  read in
    real space projection operators read in
  non local Contribution for L=           0  read in
    real space projection operators read in
  non local Contribution for L=           0  read in
    real space projection operators read in
  non local Contribution for L=           1  read in
    real space projection operators read in
  non local Contribution for L=           1  read in
    real space projection operators read in
    PAW grid and wavefunctions read in
 
   number of l-projection  operators is LMAX  =           6
   number of lm-projection operators is LMMAX =          18
 
 POTCAR:    PAW_PBE Fe 06Sep2000                  
   VRHFIN =Fe:  d7 s1                                                           
   LEXCH  = PE                                                                  
   EATOM  =   594.3153 eV,   43.6809 Ry                                         
                                                                                
   TITEL  = PAW_PBE Fe 06Sep2000                                                
   LULTRA =        F    use ultrasoft PP ?                                      
   IUNSCR =        1    unscreen: 0-lin 1-nonlin 2-no                           
   RPACOR =    2.000    partial core radius                                     
   POMASS =   55.847; ZVAL   =    8.000    mass and valenz                      
   RCORE  =    2.300    outmost cutoff radius                                   
   RWIGS  =    2.460; RWIGS  =    1.302    wigner-seitz radius (au A)           
   ENMAX  =  267.882; ENMIN  =  200.911 eV                                      
   RCLOC  =    1.701    cutoff for local pot                                    
   LCOR   =        T    correct aug charges                                     
   LPAW   =        T    paw PP                                                  
   EAUG   =  511.368                                                            
   DEXC   =    0.000                                                            
   RMAX   =    2.356    core radius for proj-oper                               
   RAUG   =    1.300    factor for augmentation sphere                          
   RDEP   =    2.442    radius for radial grids                                 
   RDEPT  =    1.890    core radius for aug-charge                              
                                                                                
   Atomic configuration                                                         
    9 entries                                                                   
     n  l   j            E        occ.                                          
     1  0  0.50     -6993.8440   2.0000                                         
     2  0  0.50      -814.6047   2.0000                                         
     2  1  1.50      -693.3689   6.0000                                         
     3  0  0.50       -89.4732   2.0000                                         
     3  1  1.50       -55.6373   6.0000                                         
     3  2  2.50        -3.8151   7.0000                                         
     4  0  0.50        -4.2551   1.0000                                         
     4  1  1.50        -3.4015   0.0000                                         
     4  3  2.50        -1.3606   0.0000                                         
   Description                                                                  
     l       E           TYP  RCUT    TYP  RCUT                                 
     2     -3.8151135     23  2.300                                             
     2     -5.1756961     23  2.300                                             
     0     -4.2550963     23  2.300                                             
     0      7.2035603     23  2.300                                             
     1     -2.7211652     23  2.300                                             
     1     18.4316424     23  2.300                                             
  local pseudopotential read in
  partial core-charges read in
  partial kinetic energy density read in
  atomic valenz-charges read in
  non local Contribution for L=           2  read in
    real space projection operators read in
  non local Contribution for L=           2  read in
    real space projection operators read in
  non local Contribution for L=           0  read in
    real space projection operators read in
  non local Contribution for L=           0  read in
    real space projection operators read in
  non local Contribution for L=           1  read in
    real space projection operators read in
  non local Contribution for L=           1  read in
    real space projection operators read in
    PAW grid and wavefunctions read in
 
   number of l-projection  operators is LMAX  =           6
   number of lm-projection operators is LMMAX =          18
 

 ----------------------------------------------------------------------------- 
|                                                                             |
|  ADVICE TO THIS USER RUNNING 'VASP/VAMP'   (HEAR YOUR MASTER'S VOICE ...):  |
|                                                                             |
|      You have a (more or less) 'large supercell' and for larger cells       |
|      it might be more efficient to use real space projection opertators     |
|      So try LREAL= Auto  in the INCAR   file.                               |
|      Mind:          For very  accurate calculation you might also keep the  |
|      reciprocal projection scheme          (i.e. LREAL=.FALSE.)             |
|                                                                             |
 ----------------------------------------------------------------------------- 

  PAW_PBE C 08Apr2002                   :
 energy of atom  1       EATOM= -147.1560
 kinetic energy error for atom=    0.0076 (will be added to EATOM!!)
  PAW_PBE N 08Apr2002                   :
 energy of atom  2       EATOM= -264.5486
 kinetic energy error for atom=    0.0138 (will be added to EATOM!!)
  PAW_PBE Co 02Aug2007                  :
 energy of atom  3       EATOM= -813.3670
 kinetic energy error for atom=    0.0028 (will be added to EATOM!!)
  PAW_PBE Fe 06Sep2000                  :
 energy of atom  4       EATOM= -594.3153
 kinetic energy error for atom=    0.0026 (will be added to EATOM!!)
 
 
 POSCAR:  C  N Co Fe                             
  positions in cartesian coordinates
  No initial velocities read in
 exchange correlation table for  LEXCH =        8
   RHO(1)=    0.500       N(1)  =     2000
   RHO(2)=  100.500       N(2)  =     4000

 VTST: version 3.2, (02/03/18)

 CHAIN: initializing optimizer
 
 OPT: Using VASP Conjugate-Gradient optimizer
 CHAIN: Read ICHAIN            0
 
 POSCAR:  C  N Co Fe                             
  positions in cartesian coordinates
  No initial velocities read in
 


--------------------------------------------------------------------------------------------------------


 ion  position               nearest neighbor table
   1  0.222  0.999  0.500-   3 1.41  17 1.42   4 1.42
   2  0.055  0.099  0.500-  34 1.41   7 1.43   3 1.43
   3  0.110  0.999  0.500-   1 1.41  15 1.43   2 1.43
   4  0.278  0.097  0.500-  19 1.41   5 1.42   1 1.42
   5  0.221  0.195  0.500-   7 1.41   8 1.42   4 1.42
   6  0.056  0.299  0.500-  38 1.43   7 1.44  10 1.45
   7  0.110  0.198  0.500-   5 1.41   2 1.43   6 1.44
   8  0.278  0.293  0.500-  53 1.38   5 1.42  51 1.42
   9  0.063  0.499  0.500-  42 1.45  10 1.46  12 1.47
  10  0.118  0.396  0.500-  53 1.37   6 1.45   9 1.46
  11  0.058  0.699  0.500-  46 1.42  16 1.43  12 1.45
  12  0.118  0.601  0.500-  54 1.38  11 1.45   9 1.47
  13  0.277  0.704  0.500-  54 1.37  14 1.41  25 1.43
  14  0.222  0.802  0.500-  16 1.41  13 1.41  17 1.42
  15  0.056  0.900  0.500-  50 1.41  16 1.43   3 1.43
  16  0.111  0.800  0.500-  14 1.41  15 1.43  11 1.43
  17  0.278  0.900  0.500-  28 1.41   1 1.42  14 1.42
  18  0.556  0.999  0.500-  20 1.41  30 1.42  21 1.42
  19  0.389  0.097  0.500-   4 1.41  20 1.42  23 1.42
  20  0.445  0.999  0.500-  18 1.41  28 1.42  19 1.42
  21  0.612  0.097  0.500-  22 1.41  32 1.41  18 1.42
  22  0.557  0.196  0.500-  55 1.37  21 1.41  23 1.44
  23  0.444  0.197  0.500-  51 1.42  19 1.42  22 1.44
  24  0.555  0.606  0.500-  56 1.38  26 1.42  52 1.43  58 2.59
  25  0.390  0.702  0.500-  52 1.42  29 1.42  13 1.43
  26  0.612  0.704  0.500-  44 1.42  27 1.42  24 1.42
  27  0.556  0.802  0.500-  29 1.41  26 1.42  30 1.42
  28  0.389  0.900  0.500-  17 1.41  20 1.42  29 1.42
  29  0.444  0.801  0.500-  27 1.41  28 1.42  25 1.42
  30  0.612  0.900  0.500-  48 1.41  18 1.42  27 1.42
  31  0.889  1.000  0.500-  33 1.41  34 1.43  50 1.43
  32  0.723  0.099  0.500-  21 1.41  33 1.43  37 1.43
  33  0.778  0.999  0.500-  31 1.41  32 1.43  48 1.43
  34  0.943  0.100  0.500-   2 1.41  31 1.43  35 1.44
  35  0.888  0.201  0.500-  37 1.42  38 1.44  34 1.44
  36  0.716  0.298  0.500-  55 1.37  37 1.45  41 1.47
  37  0.776  0.200  0.500-  35 1.42  32 1.43  36 1.45
  38  0.943  0.301  0.500-   6 1.43  35 1.44  39 1.44
  39  0.886  0.400  0.500-  38 1.44  41 1.45  42 1.46
  40  0.717  0.503  0.500-  56 1.36  45 1.44  41 1.46
  41  0.772  0.401  0.500-  39 1.45  40 1.46  36 1.47
  42  0.948  0.499  0.500-  43 1.44   9 1.45  39 1.46
  43  0.891  0.599  0.500-  45 1.43  46 1.44  42 1.44
  44  0.724  0.701  0.500-  26 1.42  49 1.43  45 1.44
  45  0.778  0.600  0.500-  43 1.43  44 1.44  40 1.44
  46  0.946  0.699  0.500-  11 1.42  43 1.44  47 1.44
  47  0.891  0.799  0.500-  49 1.41  50 1.43  46 1.44
  48  0.723  0.900  0.500-  30 1.41  33 1.43  49 1.43
  49  0.779  0.800  0.500-  47 1.41  44 1.43  48 1.43
  50  0.945  0.900  0.500-  15 1.41  47 1.43  31 1.43
  51  0.390  0.296  0.500-  23 1.42   8 1.42  58 1.92  57 2.55
  52  0.442  0.601  0.500-  25 1.42  24 1.43  57 1.90  58 2.47
  53  0.226  0.390  0.500-  10 1.37   8 1.38  57 1.92
  54  0.227  0.607  0.500-  13 1.37  12 1.38  57 2.00
  55  0.607  0.292  0.500-  22 1.37  36 1.37  58 2.08
  56  0.609  0.510  0.500-  40 1.36  24 1.38  58 1.96
  57  0.338  0.492  0.500-  52 1.90  53 1.92  54 2.00  58 2.19  51 2.55
  58  0.491  0.410  0.501-  51 1.92  56 1.96  55 2.08  57 2.19  52 2.47  24 2.59
 
  LATTYP: Found a triclinic cell.
 ALAT       =    34.4741461717
 B/A-ratio  =     0.3636928363
 C/A-ratio  =     0.5808613765
 COS(alpha) =     0.0000802851
 COS(beta)  =     0.5811638476
 COS(gamma) =     0.7263586443
  
  Lattice vectors:
  
 A1 = (  12.5934643286, -25.0775393611, -20.0246955050)
 A2 = (  -0.0366757521, -12.5379463585,   0.0000000000)
 A3 = (   0.0133158327,  -0.0016466440, -20.0246955050)


Analysis of symmetry for initial positions (statically):
=====================================================================
 Subroutine PRICEL returns:
 Original cell was already a primitive cell.
 

 Routine SETGRP: Setting up the symmetry group for a 
 triclinic supercell.


 Subroutine GETGRP returns: Found  1 space group operations
 (whereof  1 operations were pure point group operations)
 out of a pool of  2 trial point group operations.


The static configuration has the point symmetry C_1 .


Analysis of symmetry for dynamics (positions and initial velocities):
=====================================================================
 Subroutine PRICEL returns:
 Original cell was already a primitive cell.
 

 Routine SETGRP: Setting up the symmetry group for a 
 triclinic supercell.


 Subroutine GETGRP returns: Found  1 space group operations
 (whereof  1 operations were pure point group operations)
 out of a pool of  2 trial point group operations.


The dynamic configuration has the point symmetry C_1 .


Analysis of structural, dynamic, and magnetic symmetry:
=====================================================================
 Subroutine PRICEL returns:
 Original cell was already a primitive cell.
 

 Routine SETGRP: Setting up the symmetry group for a 
 triclinic supercell.


 Subroutine GETGRP returns: Found  1 space group operations
 (whereof  1 operations were pure point group operations)
 out of a pool of  2 trial point group operations.


The magnetic configuration has the point symmetry C_1 .


 Subroutine INISYM returns: Found  1 space group operations
 (whereof  1 operations are pure point group operations),
 and found     1 'primitive' translations

 
 
 KPOINTS: KPOINTS created by Atomic Simulation Env

Automatic generation of k-mesh.
Space group operators:
 irot       det(A)        alpha          n_x          n_y          n_z        tau_x        tau_y        tau_z
    1     1.000000     0.000000     1.000000     0.000000     0.000000     0.000000     0.000000     0.000000
 
 Subroutine IBZKPT returns following result:
 ===========================================
 
 Found      2 irreducible k-points:
 
 Following reciprocal coordinates:
            Coordinates               Weight
  0.250000  0.250000 -0.000000      2.000000
 -0.250000  0.250000 -0.000000      2.000000
 
 Following cartesian coordinates:
            Coordinates               Weight
  0.019757  0.019882  0.000012      2.000000
 -0.019757  0.019997 -0.000015      2.000000
 
 
 Subroutine IBZKPT_HF returns following result:
 ==============================================
 
 Found      4 k-points in 1st BZ
 the following      4 k-points will be used (e.g. in the exchange kernel)
 Following reciprocal coordinates:   # in IRBZ
  0.250000  0.250000 -0.000000    0.25000000   1 t-inv F
 -0.250000  0.250000 -0.000000    0.25000000   2 t-inv F
 -0.250000 -0.250000  0.000000    0.25000000   1 t-inv T
  0.250000 -0.250000  0.000000    0.25000000   2 t-inv T


--------------------------------------------------------------------------------------------------------




 Dimension of arrays:
   k-points           NKPTS =      2   k-points in BZ     NKDIM =      4   number of bands    NBANDS=    156
   number of dos      NEDOS =    301   number of ions     NIONS =     58
   non local maximal  LDIM  =      6   non local SUM 2l+1 LMDIM =     18
   total plane-waves  NPLWV = ******
   max r-space proj   IRMAX =      1   max aug-charges    IRDMAX=  17359
   dimension x,y,z NGX =    96 NGY =   96 NGZ =  150
   dimension x,y,z NGXF=   192 NGYF=  192 NGZF=  300
   support grid    NGXF=   192 NGYF=  192 NGZF=  300
   ions per type =              52   4   1   1
   NGX,Y,Z   is equivalent  to a cutoff of  12.61, 12.73, 12.45 a.u.
   NGXF,Y,Z  is equivalent  to a cutoff of  25.23, 25.46, 24.91 a.u.

 SYSTEM =  unknown system                          
 POSCAR =   C  N Co Fe                             

 Startparameter for this run:
   NWRITE =      2    write-flag & timer
   PREC   = accura    normal or accurate (medium, high low for compatibility)
   ISTART =      1    job   : 0-new  1-cont  2-samecut
   ICHARG =      0    charge: 1-file 2-atom 10-const
   ISPIN  =      2    spin polarized calculation?
   LNONCOLLINEAR =      F non collinear calculations
   LSORBIT =      F    spin-orbit coupling
   INIWAV =      1    electr: 0-lowe 1-rand  2-diag
   LASPH  =      T    aspherical Exc in radial PAW
   METAGGA=      F    non-selfconsistent MetaGGA calc.

 Electronic Relaxation 1
   ENCUT  =  500.0 eV  36.75 Ry    6.06 a.u.  23.07 22.86 36.51*2*pi/ulx,y,z
   ENINI  =  500.0     initial cutoff
   ENAUG  =  644.9 eV  augmentation charge cutoff
   NELM   =    250;   NELMIN=  2; NELMDL=  0     # of ELM steps 
   EDIFF  = 0.1E-03   stopping-criterion for ELM
   LREAL  =      F    real-space projection
   NLSPLINE    = F    spline interpolate recip. space projectors
   LCOMPAT=      F    compatible to vasp.4.4
   GGA_COMPAT  = T    GGA compatible to vasp.4.4-vasp.4.6
   LMAXPAW     = -100 max onsite density
   LMAXMIX     =    2 max onsite mixed and CHGCAR
   VOSKOWN=      0    Vosko Wilk Nusair interpolation
   ROPT   =    0.00000   0.00000   0.00000   0.00000
 Ionic relaxation
   EDIFFG = -.3E-01   stopping-criterion for IOM
   NSW    =      0    number of steps for IOM
   NBLOCK =      1;   KBLOCK =      1    inner block; outer block 
   IBRION =     -1    ionic relax: 0-MD 1-quasi-New 2-CG
   NFREE  =      1    steps in history (QN), initial steepest desc. (CG)
   ISIF   =      2    stress and relaxation
   IWAVPR =     10    prediction:  0-non 1-charg 2-wave 3-comb
   ISYM   =      3    0-nonsym 1-usesym 2-fastsym
   LCORR  =      T    Harris-Foulkes like correction to forces

   POTIM  = 0.5000    time-step for ionic-motion
   TEIN   =    0.0    initial temperature
   TEBEG  =    0.0;   TEEND  =   0.0 temperature during run
   SMASS  =  -3.00    Nose mass-parameter (am)
   estimated Nose-frequenzy (Omega)   =  0.10E-29 period in steps =****** mass=  -0.366E-26a.u.
   SCALEE = 1.0000    scale energy and forces
   NPACO  =    256;   APACO  = 16.0  distance and # of slots for P.C.
   PSTRESS=    0.0 pullay stress

  Mass of Ions in am
   POMASS =  12.01 14.00 58.93 55.85
  Ionic Valenz
   ZVAL   =   4.00  5.00  9.00  8.00
  Atomic Wigner-Seitz radii
   RWIGS  =  -1.00 -1.00 -1.00 -1.00
  virtual crystal weights 
   VCA    =   1.00  1.00  1.00  1.00
   NELECT =     245.0000    total number of electrons
   NUPDOWN=      -1.0000    fix difference up-down

 DOS related values:
   EMIN   =  10.00;   EMAX   =-10.00  energy-range for DOS
   EFERMI =   0.00
   ISMEAR =     0;   SIGMA  =   0.10  broadening in eV -4-tet -1-fermi 0-gaus

 Electronic relaxation 2 (details)
   IALGO  =     53    algorithm
   LDIAG  =      T    sub-space diagonalisation (order eigenvalues)
   LSUBROT=      F    optimize rotation matrix (better conditioning)
   TURBO    =      0    0=normal 1=particle mesh
   IRESTART =      0    0=no restart 2=restart with 2 vectors
   NREBOOT  =      0    no. of reboots
   NMIN     =      0    reboot dimension
   EREF     =   0.00    reference energy to select bands
   IMIX   =      4    mixing-type and parameters
     AMIX     =   0.40;   BMIX     =  1.00
     AMIX_MAG =   1.60;   BMIX_MAG =  1.00
     AMIN     =   0.10
     WC   =   100.;   INIMIX=   1;  MIXPRE=   1;  MAXMIX= -45

 Intra band minimization:
   WEIMIN = 0.0000     energy-eigenvalue tresh-hold
   EBREAK =  0.16E-06  absolut break condition
   DEPER  =   0.30     relativ break condition  

   TIME   =   0.20     timestep for ELM

  volume/ion in A,a.u.               =      54.77       369.63
  Fermi-wavevector in a.u.,A,eV,Ry     =   0.696834  1.316825  6.606680  0.485577
  Thomas-Fermi vector in A             =   1.779994
 
 Write flags
   LWAVE        =      T    write WAVECAR
   LDOWNSAMPLE  =      F    k-point downsampling of WAVECAR
   LCHARG       =      T    write CHGCAR
   LVTOT        =      F    write LOCPOT, total local potential
   LVHAR        =      F    write LOCPOT, Hartree potential only
   LELF         =      F    write electronic localiz. function (ELF)
   LORBIT       =     11    0 simple, 1 ext, 2 COOP (PROOUT), +10 PAW based schemes


 Dipole corrections
   LMONO  =      F    monopole corrections only (constant potential shift)
   LDIPOL =      T    correct potential (dipole corrections)
   IDIPOL =      3    1-x, 2-y, 3-z, 4-all directions 
   EPSILON=  1.0000000 bulk dielectric constant

 Exchange correlation treatment:
   GGA     =    PE    GGA type
   LEXCH   =     8    internal setting for exchange type
   VOSKOWN=      0    Vosko Wilk Nusair interpolation
   EXXOEP  =     0    0=HF, 1=EXX-LHF (local Hartree Fock) 2=EXX OEP
   LHFCALC =     T    Hartree Fock is set to
   LSYMGRAD=     F    symmetrize gradient (conserves proper symmetry)
   PRECFOCK=normal    Normal, Fast or Accurate (Low or Medium for compatibility)
   LRHFCALC=     F    long range Hartree Fock
   LRSCOR  =     F    long range correlation only (use DFT for short range part)
   LTHOMAS =     F    Thomas Fermi screening in HF
   LMODELHF=     F    short range full HF, long range fraction AEXX
   ENCUT4O =  -1.0   cutoff for four orbital integrals eV
   LMAXFOCK=     4    L truncation for augmentation on plane wave grid
   LMAXFOCKAE=  -1    L truncation for all-electron charge restoration on plane wave grid
   NMAXFOCKAE=   1    number of basis functions for all-electron charge restoration
   LFOCKAEDFT=     F  apply the AE augmentation even for DFT
   NKREDX  =     1    reduce k-point grid by
   NKREDY  =     1    reduce k-point grid by
   NKREDZ  =     1    reduce k-point grid by
   SHIFTRED=     F    shift reduced grid of Gamma
   HFKIDENT=     F    idential grid for each k-point
   ODDONLY =     F    use only odd q-grid points
   EVENONLY=     F    use only even q-grid points
   HFALPHA =   -1.0000 decay constant for conv. correction
   MCALPHA =    0.0000 extent of test-charge in conv. correction in multipole expansion
   AEXX    =    0.2500 exact exchange contribution
   HFSCREEN=    0.2000 screening length (either q_TF or 0.3 A-1)
   HFSCREENC=   0.2000 screening length for correlation (either q_TF or 0.3 A-1)
   HFRCUT  =    0.0000 spherical cutoff for potential kernel
   ALDAX   =    0.7500 LDA exchange part
   AGGAX   =    0.7500 GGA exchange part
   ALDAC   =    1.0000 LDA correlation
   AGGAC   =    1.0000 GGA correlation
   ENCUTFOCK=  -1.0 apply spherical cutoff to Coloumb kernel
   NBANDSGWLOW=     1    first orbital included in HF term
   NBLOCK_FOCK=    64    blocking factor in FOCK_ACC
 Linear response parameters
   LEPSILON=     F    determine dielectric tensor
   LRPA    =     F    only Hartree local field effects (RPA)
   LNABLA  =     F    use nabla operator in PAW spheres
   LVEL    =     F    velocity operator in full k-point grid
   LINTERFAST=   F  fast interpolation
   KINTER  =     0    interpolate to denser k-point grid
   CSHIFT  =0.1000    complex shift for real part using Kramers Kronig
   OMEGAMAX=  -1.0    maximum frequency
   DEG_THRESHOLD= 0.2000000E-02 threshold for treating states as degnerate
   RTIME   =   -0.100 relaxation time in fs
  (WPLASMAI=    0.000 imaginary part of plasma frequency in eV, 0.658/RTIME)
   DFIELD  = 0.0000000 0.0000000 0.0000000 field for delta impulse in time
 
 Orbital magnetization related:
   ORBITALMAG=     F  switch on orbital magnetization
   LCHIMAG   =     F  perturbation theory with respect to B field
   DQ        =  0.001000  dq finite difference perturbation B field
   LLRAUG    =     F  two centre corrections for induced B field



--------------------------------------------------------------------------------------------------------


 Static calculation
 charge density and potential will be updated during run
 spin polarized calculation
 Conjugate gradient for all bands (Freysoldt, et al. PRB 79, 241103 (2009))
 perform sub-space diagonalisation
    before iterative eigenvector-optimisation
 modified Broyden-mixing scheme, WC =      100.0
 initial mixing is a Kerker type mixing with AMIX =  0.4000 and BMIX =      1.0000
 Hartree-type preconditioning will be used
 using additional bands           33
 reciprocal scheme for non local part
 use partial core corrections
 no Harris-corrections to forces 
 use gradient corrections 
 use of overlap-Matrix (Vanderbilt PP)
 Gauss-broadening in eV      SIGMA  =   0.10


--------------------------------------------------------------------------------------------------------


  energy-cutoff  :      500.00
  volume of cell :     3176.90
      direct lattice vectors                 reciprocal lattice vectors
    12.653500000  0.000000000  0.000000000     0.079029518 -0.000231176  0.000052571
     0.036675752 12.537946359  0.000000000     0.000000000  0.079757878 -0.000006559
    -0.013315833  0.001646644 20.024695505     0.000000000  0.000000000  0.049938337

  length of vectors
    12.653500000 12.538000000 20.024700000     0.079029873  0.079757879  0.049938337


 
 old parameters found on file WAVECAR:
  energy-cutoff  :      500.00
  volume of cell :     3176.90
      direct lattice vectors                 reciprocal lattice vectors
    12.653500000  0.000000000  0.000000000     0.079029518 -0.000231176  0.000052571
     0.036675752 12.537946359  0.000000000     0.000000000  0.079757878 -0.000006559
    -0.013315833  0.001646644 20.024695505     0.000000000  0.000000000  0.049938337

  length of vectors

 
 k-points in units of 2pi/SCALE and weight: KPOINTS created by Atomic Simulation Env
   0.01975738  0.01988168  0.00001150       0.500
  -0.01975738  0.01999726 -0.00001478       0.500
 
 k-points in reciprocal lattice and weights: KPOINTS created by Atomic Simulation Env
   0.25000000  0.25000000 -0.00000000       0.500
  -0.25000000  0.25000000 -0.00000000       0.500
 
 position of ions in fractional coordinates (direct lattice) 
   0.22197974  0.99879699  0.49996582
   0.05465786  0.09901613  0.49997046
   0.11031502  0.99937713  0.49997445
   0.27752859  0.09718101  0.49999772
   0.22147872  0.19536612  0.50004575
   0.05626711  0.29909892  0.50001672
   0.10985707  0.19800950  0.49999845
   0.27779206  0.29284597  0.50020359
   0.06259294  0.49861664  0.50004722
   0.11763531  0.39631346  0.50009841
   0.05838176  0.69923456  0.50000207
   0.11849716  0.60097075  0.50003195
   0.27675088  0.70355840  0.50002657
   0.22219731  0.80171745  0.49999645
   0.05567724  0.89972559  0.49998740
   0.11094764  0.80020082  0.49999613
   0.27763438  0.90046397  0.49996693
   0.55616944  0.99856534  0.49993045
   0.38921114  0.09734715  0.50001279
   0.44465213  0.99851494  0.49994447
   0.61159596  0.09731092  0.49997579
   0.55725683  0.19554930  0.50010721
   0.44374598  0.19657953  0.50014105
   0.55536594  0.60605725  0.50011861
   0.38988729  0.70208872  0.50005606
   0.61177930  0.70360998  0.50001459
   0.55615486  0.80190719  0.49995869
   0.38917614  0.90019694  0.49994441
   0.44448104  0.80120380  0.49997512
   0.61168165  0.90015821  0.49992571
   0.88919923  0.99957287  0.49997355
   0.72293617  0.09895665  0.49997703
   0.77806217  0.99934829  0.49995797
   0.94305002  0.09998139  0.49996926
   0.88797985  0.20057429  0.49998167
   0.71551963  0.29826594  0.50011286
   0.77568904  0.19987767  0.50001274
   0.94337742  0.30064527  0.49999919
   0.88640435  0.40042605  0.50003405
   0.71703869  0.50318667  0.50011285
   0.77158978  0.40057016  0.50009825
   0.94783619  0.49879250  0.50001948
   0.89089878  0.59870600  0.50000090
   0.72365185  0.70095589  0.49999484
   0.77812245  0.60037650  0.50002911
   0.94607682  0.69866015  0.49998880
   0.89069876  0.79907145  0.49997908
   0.72340064  0.89967109  0.49994249
   0.77899874  0.80005024  0.49996181
   0.94453357  0.89951539  0.49998408
   0.38973457  0.29571889  0.50030930
   0.44215478  0.60147179  0.50015162
   0.22579127  0.38984540  0.50024570
   0.22708136  0.60663327  0.50003690
   0.60705642  0.29233166  0.50022859
   0.60944737  0.51035804  0.50017940
   0.33793569  0.49219740  0.50019317
   0.49070590  0.41025638  0.50058429
 
 position of ions in cartesian coordinates  (Angst):
   2.83879483 12.52368632 10.01166335
   0.68858725  1.24228225 10.01175615
   1.42586645 12.53096010 10.01183604
   3.50861427  1.21927367 10.01230217
   2.80298769  2.45031328 10.01326392
   0.71628737  3.75090956 10.01268251
   1.39068066  2.48345582 10.01231671
   3.51912158  3.67251078 10.01642465
   0.80364834  6.25245211 10.01329335
   1.49637431  4.96978041 10.01431834
   0.75772061  8.76778872 10.01238922
   1.51478650  7.53576239 10.01298749
   3.52101255  8.82200086 10.01287986
   2.83431939 10.05271372 10.01227657
   0.73085233 11.28153447 10.01209546
   1.42656601 10.03369828 10.01227030
   3.53941432 11.29079219 10.01168545
   7.06745617 12.52078192 10.01095500
   4.92179531  1.22135667 10.01260378
   5.65636988 12.52014994 10.01123577
   7.73574083  1.22090243 10.01186291
   7.05176192  2.45261015 10.01449463
   5.61548969  2.46552717 10.01517222
   7.04289107  7.59953683 10.01472294
   4.95252976  8.80357415 10.01347037
   7.76029664  8.82264756 10.01263984
   7.06005870 10.05509260 10.01152047
   4.95079848 11.28744418 10.01123455
   5.64696804 10.04627356 10.01184948
   7.76627086 11.28695853 10.01086006
  11.28148503 12.53341434 10.01181802
   9.14464457  1.24153645 10.01188788
   9.87520415 12.53059848 10.01150614
  11.92989280  1.25438453 10.01173228
  11.23675158  2.51561295 10.01198061
   9.05810731  3.74046588 10.01460783
   9.81585390  2.50687888 10.01260297
  11.94139467  3.77029756 10.01233162
  11.22414502  5.02134370 10.01302964
   9.08484439  6.30975104 10.01460757
   9.77134325  5.02315071 10.01431519
  12.00508069  6.25465692 10.01273780
  11.28828775  7.50736703 10.01236586
   9.17577893  8.78937071 10.01224440
   9.86133331  7.52831166 10.01293066
  11.99014914  8.76058674 10.01212343
  11.29310569 10.01953831 10.01192876
   9.17988893 11.28085114 10.01119605
   9.87974555 10.03181021 10.01158310
  11.97798819 11.27889902 10.01202886
   4.93569007  3.70853143 10.01854139
   5.61020496  7.54204464 10.01538381
   2.86468658  4.88868442 10.01726782
   2.88896427  7.60675883 10.01308669
   7.68544894  3.66606239 10.01692519
   7.72369970  6.39966534 10.01594011
   4.28746051  6.17196825 10.01621601
   6.21752789  5.14459682 10.02404793
 


--------------------------------------------------------------------------------------------------------


 k-point  1 :   0.2500 0.2500-0.0000  plane waves:   80663
 k-point  2 :  -0.2500 0.2500-0.0000  plane waves:   80660

 maximum and minimum number of plane-waves per node :      2557     2478

 maximum number of plane-waves:     80663
 maximum index in each direction: 
   IXMAX=   23   IYMAX=   22   IZMAX=   36
   IXMIN=  -23   IYMIN=  -23   IZMIN=  -36


 parallel 3D FFT for wavefunctions:
    minimum data exchange during FFTs selected (reduces bandwidth)
 parallel 3D FFT for charge:
    minimum data exchange during FFTs selected (reduces bandwidth)


 FFT grid for exact exchange (Hartree Fock) 
  NGX = 70; NGY = 70; NGZ =112

 
 Radii for the augmentation spheres in the non-local exchange
 for species   1 augmentation radius   0.874 (default was   0.699)
       energy cutoff for augmentation   2000.0
 for species   2 augmentation radius   0.886 (default was   0.709)
       energy cutoff for augmentation   2000.0
 for species   3 augmentation radius   1.307 (default was   1.045)
       energy cutoff for augmentation   2000.0
 for species   4 augmentation radius   1.263 (default was   1.010)
       energy cutoff for augmentation   2000.0

 real space projection operators:
  total allocation   :       2484.52 KBytes
  max/ min on nodes  :        109.54         39.94

 Maximum index for augmentation-charges in exchange          140
  SETUP_FOCK is finished

 total amount of memory used by VASP MPI-rank0   165883. kBytes
=======================================================================

   base      :      30000. kBytes
   nonl-proj :       5335. kBytes
   fftplans  :      14250. kBytes
   grid      :      36827. kBytes
   one-center:         62. kBytes
   HF        :         23. kBytes
   nonlr-proj:       1782. kBytes
   wavefun   :      77604. kBytes
 
     INWAV:  cpu time    3.5248: real time    3.5256
 Broyden mixing: mesh for mixing (old mesh)
   NGX = 47   NGY = 45   NGZ = 73
  (NGX  =192   NGY  =192   NGZ  =300)
  gives a total of 154395 points

 charge density for first step will be calculated from the start-wavefunctions


--------------------------------------------------------------------------------------------------------


 Maximum index for augmentation-charges          782 (set IRDMAX)


--------------------------------------------------------------------------------------------------------


 initial charge from wavefunction
 First call to EWALD:  gamma=   0.121
 Maximum number of real-space cells 3x 3x 2
 Maximum number of reciprocal cells 2x 2x 4

    FEWALD:  cpu time    0.0040: real time    0.0040


--------------------------------------- Iteration      1(   1)  ---------------------------------------


    POTLOK:  cpu time    1.3842: real time    1.3852
    SETDIJ:  cpu time    2.1025: real time    2.1030
    TRIAL :  cpu time  524.6652: real time  524.7261
    CORREC:  cpu time    0.0023: real time    0.0025
    CHARGE:  cpu time    1.6940: real time    1.6940
    --------------------------------------------
      LOOP:  cpu time  529.8645: real time  529.9295

 eigenvalue-minimisations  :     0
 total energy-change (2. order) :-0.6061672E+03  (-0.5248709E+00)
 number of electron     244.9999995 magnetization       3.7561633
 augmentation part       15.0607596 magnetization       3.0327381

 DIPCOR: dipole corrections for dipol
 direction  3 min pos     1,
 dipolmoment           0.000000     -0.000000     -0.000675 electrons x Angstroem
 Tr[quadrupol]     -6572.192864

 energy correction for charged system         0.000000 eV
 dipol+quadrupol energy correction            0.000000 eV
 added-field ion interaction          0.000000 eV  (added to PSCEN)


 Free energy of the ion-electron system (eV)
  ---------------------------------------------------
  alpha Z        PSCENC =        99.29575952
  Ewald energy   TEWEN  =     39800.69407855
  -Hartree energ DENC   =    -48433.74536621
  -exchange      EXHF   =       554.75797612
  -V(xc)+E(xc)   XCENC  =       626.19933400
  PAW double counting   =     26655.40297010   -26743.16102102
  entropy T*S    EENTRO =        -0.04424141
  eigenvalues    EBANDS =     -3170.09355939
  atomic energy  EATOM  =     10004.52798163
  ---------------------------------------------------
  free energy    TOTEN  =      -606.16716309 eV

  energy without entropy =     -606.12292168  energy(sigma->0) =     -606.14504238
  exchange ACFDT corr.  =        -0.06465967  see jH, gK, PRB 81, 115126


--------------------------------------------------------------------------------------------------------




--------------------------------------- Iteration      1(   2)  ---------------------------------------


    POTLOK:  cpu time    1.3904: real time    1.3904
    SETDIJ:  cpu time    2.0871: real time    2.0870
    TRIAL :  cpu time  525.1062: real time  525.1195
    CORREC:  cpu time    0.0023: real time    0.0025
    CHARGE:  cpu time    1.6899: real time    1.6900
    --------------------------------------------
      LOOP:  cpu time  530.2792: real time  530.2933

 eigenvalue-minimisations  :     0
 total energy-change (2. order) :-0.3900722E+00  (-0.5742353E+00)
 number of electron     244.9999995 magnetization       3.8833057
 augmentation part       15.0101915 magnetization       3.1515121

 DIPCOR: dipole corrections for dipol
 direction  3 min pos     1,
 dipolmoment           0.000001     -0.000000     -0.001017 electrons x Angstroem
 Tr[quadrupol]     -6572.016341

 energy correction for charged system         0.000000 eV
 dipol+quadrupol energy correction            0.000000 eV
 added-field ion interaction          0.000000 eV  (added to PSCEN)


 Free energy of the ion-electron system (eV)
  ---------------------------------------------------
  alpha Z        PSCENC =        99.29575954
  Ewald energy   TEWEN  =     39800.69407855
  -Hartree energ DENC   =    -48419.82786614
  -exchange      EXHF   =       554.72728024
  -V(xc)+E(xc)   XCENC  =       625.90178587
  PAW double counting   =     26778.33378194   -26866.25252668
  entropy T*S    EENTRO =        -0.04471775
  eigenvalues    EBANDS =     -3183.91326886
  atomic energy  EATOM  =     10004.52798163
  ---------------------------------------------------
  free energy    TOTEN  =      -606.55723533 eV

  energy without entropy =     -606.51251758  energy(sigma->0) =     -606.53487645
  exchange ACFDT corr.  =        -0.05639191  see jH, gK, PRB 81, 115126


--------------------------------------------------------------------------------------------------------




--------------------------------------- Iteration      1(   3)  ---------------------------------------


    POTLOK:  cpu time    1.3994: real time    1.3995
    SETDIJ:  cpu time    2.0871: real time    2.0870
    TRIAL :  cpu time  522.6592: real time  522.7440
    CORREC:  cpu time    0.0023: real time    0.0025
    CHARGE:  cpu time    1.6893: real time    1.6895
    --------------------------------------------
      LOOP:  cpu time  527.8397: real time  527.9249

 eigenvalue-minimisations  :     0
 total energy-change (2. order) :-0.3563372E+00  (-0.4357512E+00)
 number of electron     244.9999995 magnetization       3.9182039
 augmentation part       15.0440997 magnetization       3.2155023

 DIPCOR: dipole corrections for dipol
 direction  3 min pos     1,
 dipolmoment           0.000000     -0.000000     -0.000640 electrons x Angstroem
 Tr[quadrupol]     -6571.811811

 energy correction for charged system         0.000000 eV
 dipol+quadrupol energy correction            0.000000 eV
 added-field ion interaction          0.000000 eV  (added to PSCEN)


 Free energy of the ion-electron system (eV)
  ---------------------------------------------------
  alpha Z        PSCENC =        99.29575952
  Ewald energy   TEWEN  =     39800.69407855
  -Hartree energ DENC   =    -48399.03716403
  -exchange      EXHF   =       554.66896752
  -V(xc)+E(xc)   XCENC  =       625.46895095
  PAW double counting   =     26931.41866184   -27017.64794875
  entropy T*S    EENTRO =        -0.04262270
  eigenvalues    EBANDS =     -3206.25814197
  atomic energy  EATOM  =     10004.52798163
  ---------------------------------------------------
  free energy    TOTEN  =      -606.91357248 eV

  energy without entropy =     -606.87094978  energy(sigma->0) =     -606.89226113
  exchange ACFDT corr.  =        -0.05576057  see jH, gK, PRB 81, 115126


--------------------------------------------------------------------------------------------------------




--------------------------------------- Iteration      1(   4)  ---------------------------------------


    POTLOK:  cpu time    1.4065: real time    1.4067
    SETDIJ:  cpu time    2.0815: real time    2.0818
    TRIAL :  cpu time  522.8719: real time  522.9692
    CORREC:  cpu time    0.0022: real time    0.0024
    CHARGE:  cpu time    1.6914: real time    1.6918
    --------------------------------------------
      LOOP:  cpu time  528.0562: real time  528.1545

 eigenvalue-minimisations  :     0
 total energy-change (2. order) :-0.2621593E+00  (-0.2251422E+00)
 number of electron     244.9999995 magnetization       4.0335166
 augmentation part       15.0280567 magnetization       3.2888039

 DIPCOR: dipole corrections for dipol
 direction  3 min pos     1,
 dipolmoment           0.000001     -0.000000     -0.000810 electrons x Angstroem
 Tr[quadrupol]     -6571.772741

 energy correction for charged system         0.000000 eV
 dipol+quadrupol energy correction            0.000000 eV
 added-field ion interaction          0.000000 eV  (added to PSCEN)


 Free energy of the ion-electron system (eV)
  ---------------------------------------------------
  alpha Z        PSCENC =        99.29575953
  Ewald energy   TEWEN  =     39800.69407855
  -Hartree energ DENC   =    -48397.51127821
  -exchange      EXHF   =       554.95250133
  -V(xc)+E(xc)   XCENC  =       625.46117399
  PAW double counting   =     27075.67392199   -27163.33072154
  entropy T*S    EENTRO =        -0.04191394
  eigenvalues    EBANDS =     -3206.89652630
  atomic energy  EATOM  =     10004.52798163
  ---------------------------------------------------
  free energy    TOTEN  =      -607.17573174 eV

  energy without entropy =     -607.13381780  energy(sigma->0) =     -607.15477477
  exchange ACFDT corr.  =        -0.04807950  see jH, gK, PRB 81, 115126


--------------------------------------------------------------------------------------------------------




--------------------------------------- Iteration      1(   5)  ---------------------------------------


    POTLOK:  cpu time    1.4026: real time    1.4027
    SETDIJ:  cpu time    2.0834: real time    2.0837
    TRIAL :  cpu time  521.8325: real time  521.8715
    CORREC:  cpu time    0.0024: real time    0.0026
    CHARGE:  cpu time    1.6918: real time    1.6917
    --------------------------------------------
      LOOP:  cpu time  527.0157: real time  527.0551

 eigenvalue-minimisations  :     0
 total energy-change (2. order) :-0.1750258E+00  (-0.1435859E+00)
 number of electron     244.9999995 magnetization       4.1357012
 augmentation part       15.0269085 magnetization       3.3374597

 DIPCOR: dipole corrections for dipol
 direction  3 min pos     1,
 dipolmoment           0.000001     -0.000000     -0.000883 electrons x Angstroem
 Tr[quadrupol]     -6571.786379

 energy correction for charged system         0.000000 eV
 dipol+quadrupol energy correction            0.000000 eV
 added-field ion interaction          0.000000 eV  (added to PSCEN)


 Free energy of the ion-electron system (eV)
  ---------------------------------------------------
  alpha Z        PSCENC =        99.29575953
  Ewald energy   TEWEN  =     39800.69407855
  -Hartree energ DENC   =    -48395.42369030
  -exchange      EXHF   =       555.27048271
  -V(xc)+E(xc)   XCENC  =       625.48847823
  PAW double counting   =     27175.98474952   -27263.06266559
  entropy T*S    EENTRO =        -0.04076033
  eigenvalues    EBANDS =     -3210.08401784
  atomic energy  EATOM  =     10004.52798163
  ---------------------------------------------------
  free energy    TOTEN  =      -607.35075752 eV

  energy without entropy =     -607.30999719  energy(sigma->0) =     -607.33037735
  exchange ACFDT corr.  =        -0.04634388  see jH, gK, PRB 81, 115126


--------------------------------------------------------------------------------------------------------




--------------------------------------- Iteration      1(   6)  ---------------------------------------


    POTLOK:  cpu time    1.4084: real time    1.4083
    SETDIJ:  cpu time    2.0874: real time    2.0874
    TRIAL :  cpu time  521.9642: real time  521.9815
    CORREC:  cpu time    0.0023: real time    0.0026
    CHARGE:  cpu time    1.6903: real time    1.6903
    --------------------------------------------
      LOOP:  cpu time  527.1552: real time  527.1726

 eigenvalue-minimisations  :     0
 total energy-change (2. order) :-0.1220129E+00  (-0.1168221E+00)
 number of electron     244.9999994 magnetization       4.2170092
 augmentation part       15.0409766 magnetization       3.3667550

 DIPCOR: dipole corrections for dipol
 direction  3 min pos     1,
 dipolmoment           0.000001     -0.000000     -0.001037 electrons x Angstroem
 Tr[quadrupol]     -6571.845650

 energy correction for charged system         0.000000 eV
 dipol+quadrupol energy correction            0.000000 eV
 added-field ion interaction          0.000000 eV  (added to PSCEN)


 Free energy of the ion-electron system (eV)
  ---------------------------------------------------
  alpha Z        PSCENC =        99.29575954
  Ewald energy   TEWEN  =     39800.69407855
  -Hartree energ DENC   =    -48398.30479029
  -exchange      EXHF   =       555.62863167
  -V(xc)+E(xc)   XCENC  =       625.62542159
  PAW double counting   =     27242.64032459   -27329.63148069
  entropy T*S    EENTRO =        -0.03931958
  eigenvalues    EBANDS =     -3207.90793672
  atomic energy  EATOM  =     10004.52798163
  ---------------------------------------------------
  free energy    TOTEN  =      -607.47277046 eV

  energy without entropy =     -607.43345088  energy(sigma->0) =     -607.45311067
  exchange ACFDT corr.  =        -0.04400225  see jH, gK, PRB 81, 115126


--------------------------------------------------------------------------------------------------------




--------------------------------------- Iteration      1(   7)  ---------------------------------------


    POTLOK:  cpu time    1.4018: real time    1.4019
    SETDIJ:  cpu time    2.0878: real time    2.0877
    TRIAL :  cpu time  521.6279: real time  521.6432
    CORREC:  cpu time    0.0019: real time    0.0019
    CHARGE:  cpu time    1.6947: real time    1.6948
    --------------------------------------------
      LOOP:  cpu time  526.8168: real time  526.8321

 eigenvalue-minimisations  :     0
 total energy-change (2. order) :-0.9762327E-01  (-0.8591568E-01)
 number of electron     244.9999994 magnetization       4.3115179
 augmentation part       15.0449557 magnetization       3.3956262

 DIPCOR: dipole corrections for dipol
 direction  3 min pos     1,
 dipolmoment           0.000001     -0.000000     -0.001160 electrons x Angstroem
 Tr[quadrupol]     -6571.908217

 energy correction for charged system         0.000000 eV
 dipol+quadrupol energy correction            0.000000 eV
 added-field ion interaction          0.000000 eV  (added to PSCEN)


 Free energy of the ion-electron system (eV)
  ---------------------------------------------------
  alpha Z        PSCENC =        99.29575955
  Ewald energy   TEWEN  =     39800.69407855
  -Hartree energ DENC   =    -48403.07964235
  -exchange      EXHF   =       555.94471822
  -V(xc)+E(xc)   XCENC  =       625.78734377
  PAW double counting   =     27284.21104840   -27371.63061129
  entropy T*S    EENTRO =        -0.03783292
  eigenvalues    EBANDS =     -3203.28175062
  atomic energy  EATOM  =     10004.52798163
  ---------------------------------------------------
  free energy    TOTEN  =      -607.57039372 eV

  energy without entropy =     -607.53256080  energy(sigma->0) =     -607.55147726
  exchange ACFDT corr.  =        -0.04117786  see jH, gK, PRB 81, 115126


--------------------------------------------------------------------------------------------------------




--------------------------------------- Iteration      1(   8)  ---------------------------------------


    POTLOK:  cpu time    1.4039: real time    1.4038
    SETDIJ:  cpu time    2.0835: real time    2.0836
    TRIAL :  cpu time  522.0090: real time  522.0325
    CORREC:  cpu time    0.0023: real time    0.0023
    CHARGE:  cpu time    1.6847: real time    1.6847
    --------------------------------------------
      LOOP:  cpu time  527.1859: real time  527.2093

 eigenvalue-minimisations  :     0
 total energy-change (2. order) :-0.7648626E-01  (-0.6917031E-01)
 number of electron     244.9999994 magnetization       4.4069272
 augmentation part       15.0452025 magnetization       3.4222345

 DIPCOR: dipole corrections for dipol
 direction  3 min pos     1,
 dipolmoment           0.000001     -0.000000     -0.001217 electrons x Angstroem
 Tr[quadrupol]     -6571.941213

 energy correction for charged system         0.000000 eV
 dipol+quadrupol energy correction            0.000000 eV
 added-field ion interaction          0.000000 eV  (added to PSCEN)


 Free energy of the ion-electron system (eV)
  ---------------------------------------------------
  alpha Z        PSCENC =        99.29575955
  Ewald energy   TEWEN  =     39800.69407855
  -Hartree energ DENC   =    -48405.12342789
  -exchange      EXHF   =       556.17127081
  -V(xc)+E(xc)   XCENC  =       625.88341681
  PAW double counting   =     27306.81897749   -27394.29624233
  entropy T*S    EENTRO =        -0.03605847
  eigenvalues    EBANDS =     -3201.58086168
  atomic energy  EATOM  =     10004.52798163
  ---------------------------------------------------
  free energy    TOTEN  =      -607.64687999 eV

  energy without entropy =     -607.61082152  energy(sigma->0) =     -607.62885075
  exchange ACFDT corr.  =        -0.03860388  see jH, gK, PRB 81, 115126


--------------------------------------------------------------------------------------------------------




--------------------------------------- Iteration      1(   9)  ---------------------------------------


    POTLOK:  cpu time    1.3985: real time    1.3985
    SETDIJ:  cpu time    2.0808: real time    2.0808
    TRIAL :  cpu time  521.1027: real time  521.1269
    CORREC:  cpu time    0.0023: real time    0.0025
    CHARGE:  cpu time    1.6854: real time    1.6855
    --------------------------------------------
      LOOP:  cpu time  526.2718: real time  526.2962

 eigenvalue-minimisations  :     0
 total energy-change (2. order) :-0.6180390E-01  (-0.5633684E-01)
 number of electron     244.9999994 magnetization       4.4938406
 augmentation part       15.0479881 magnetization       3.4448367

 DIPCOR: dipole corrections for dipol
 direction  3 min pos     1,
 dipolmoment           0.000001     -0.000000     -0.001261 electrons x Angstroem
 Tr[quadrupol]     -6571.953217

 energy correction for charged system         0.000000 eV
 dipol+quadrupol energy correction            0.000000 eV
 added-field ion interaction          0.000000 eV  (added to PSCEN)


 Free energy of the ion-electron system (eV)
  ---------------------------------------------------
  alpha Z        PSCENC =        99.29575956
  Ewald energy   TEWEN  =     39800.69407855
  -Hartree energ DENC   =    -48405.54290790
  -exchange      EXHF   =       556.32996650
  -V(xc)+E(xc)   XCENC  =       625.93418592
  PAW double counting   =     27318.39124614   -27405.83000900
  entropy T*S    EENTRO =        -0.03397893
  eigenvalues    EBANDS =     -3201.47292681
  atomic energy  EATOM  =     10004.52798163
  ---------------------------------------------------
  free energy    TOTEN  =      -607.70868389 eV

  energy without entropy =     -607.67470497  energy(sigma->0) =     -607.69169443
  exchange ACFDT corr.  =        -0.03562813  see jH, gK, PRB 81, 115126


--------------------------------------------------------------------------------------------------------




--------------------------------------- Iteration      1(  10)  ---------------------------------------


    POTLOK:  cpu time    1.3929: real time    1.3929
    SETDIJ:  cpu time    2.0821: real time    2.0821
    TRIAL :  cpu time  521.7168: real time  521.7311
    CORREC:  cpu time    0.0022: real time    0.0024
    CHARGE:  cpu time    1.6846: real time    1.6846
    --------------------------------------------
      LOOP:  cpu time  526.8808: real time  526.8951

 eigenvalue-minimisations  :     0
 total energy-change (2. order) :-0.5136082E-01  (-0.4684940E-01)
 number of electron     244.9999994 magnetization       4.5781551
 augmentation part       15.0499799 magnetization       3.4659732

 DIPCOR: dipole corrections for dipol
 direction  3 min pos     1,
 dipolmoment           0.000001     -0.000000     -0.001320 electrons x Angstroem
 Tr[quadrupol]     -6571.957748

 energy correction for charged system         0.000000 eV
 dipol+quadrupol energy correction            0.000000 eV
 added-field ion interaction          0.000000 eV  (added to PSCEN)


 Free energy of the ion-electron system (eV)
  ---------------------------------------------------
  alpha Z        PSCENC =        99.29575956
  Ewald energy   TEWEN  =     39800.69407855
  -Hartree energ DENC   =    -48405.75727819
  -exchange      EXHF   =       556.44867610
  -V(xc)+E(xc)   XCENC  =       625.96935246
  PAW double counting   =     27324.44380994   -27411.98994927
  entropy T*S    EENTRO =        -0.03146622
  eigenvalues    EBANDS =     -3201.35849656
  atomic energy  EATOM  =     10004.52798163
  ---------------------------------------------------
  free energy    TOTEN  =      -607.76004471 eV

  energy without entropy =     -607.72857850  energy(sigma->0) =     -607.74431161
  exchange ACFDT corr.  =        -0.03227952  see jH, gK, PRB 81, 115126


--------------------------------------------------------------------------------------------------------




--------------------------------------- Iteration      1(  11)  ---------------------------------------


    POTLOK:  cpu time    1.3941: real time    1.3941
    SETDIJ:  cpu time    2.0840: real time    2.0841
    TRIAL :  cpu time  521.5030: real time  521.5180
    CORREC:  cpu time    0.0022: real time    0.0024
    CHARGE:  cpu time    1.6871: real time    1.6871
    --------------------------------------------
      LOOP:  cpu time  526.6725: real time  526.6878

 eigenvalue-minimisations  :     0
 total energy-change (2. order) :-0.4290626E-01  (-0.3940726E-01)
 number of electron     244.9999994 magnetization       4.6605402
 augmentation part       15.0502710 magnetization       3.4862934

 DIPCOR: dipole corrections for dipol
 direction  3 min pos     1,
 dipolmoment           0.000001     -0.000000     -0.001384 electrons x Angstroem
 Tr[quadrupol]     -6571.959731

 energy correction for charged system         0.000000 eV
 dipol+quadrupol energy correction            0.000000 eV
 added-field ion interaction          0.000000 eV  (added to PSCEN)


 Free energy of the ion-electron system (eV)
  ---------------------------------------------------
  alpha Z        PSCENC =        99.29575957
  Ewald energy   TEWEN  =     39800.69407855
  -Hartree energ DENC   =    -48405.75395673
  -exchange      EXHF   =       556.54399225
  -V(xc)+E(xc)   XCENC  =       625.99397706
  PAW double counting   =     27327.53443800   -27415.18755255
  entropy T*S    EENTRO =        -0.02835208
  eigenvalues    EBANDS =     -3201.42020253
  atomic energy  EATOM  =     10004.52798163
  ---------------------------------------------------
  free energy    TOTEN  =      -607.80295097 eV

  energy without entropy =     -607.77459889  energy(sigma->0) =     -607.78877493
  exchange ACFDT corr.  =        -0.02854827  see jH, gK, PRB 81, 115126


--------------------------------------------------------------------------------------------------------




--------------------------------------- Iteration      1(  12)  ---------------------------------------


    POTLOK:  cpu time    1.3882: real time    1.3882
    SETDIJ:  cpu time    2.0803: real time    2.0803
    TRIAL :  cpu time  521.9684: real time  521.9944
    CORREC:  cpu time    0.0022: real time    0.0024
    CHARGE:  cpu time    1.6869: real time    1.6870
    --------------------------------------------
      LOOP:  cpu time  527.1285: real time  527.1547

 eigenvalue-minimisations  :     0
 total energy-change (2. order) :-0.3626490E-01  (-0.3314048E-01)
 number of electron     244.9999994 magnetization       4.7358481
 augmentation part       15.0507671 magnetization       3.5043302

 DIPCOR: dipole corrections for dipol
 direction  3 min pos     1,
 dipolmoment           0.000001     -0.000000     -0.001435 electrons x Angstroem
 Tr[quadrupol]     -6571.961559

 energy correction for charged system         0.000000 eV
 dipol+quadrupol energy correction            0.000000 eV
 added-field ion interaction          0.000000 eV  (added to PSCEN)


 Free energy of the ion-electron system (eV)
  ---------------------------------------------------
  alpha Z        PSCENC =        99.29575957
  Ewald energy   TEWEN  =     39800.69407855
  -Hartree energ DENC   =    -48405.58494401
  -exchange      EXHF   =       556.62609616
  -V(xc)+E(xc)   XCENC  =       626.01198494
  PAW double counting   =     27329.39646044   -27417.08938695
  entropy T*S    EENTRO =        -0.02471492
  eigenvalues    EBANDS =     -3201.68889411
  atomic energy  EATOM  =     10004.52798163
  ---------------------------------------------------
  free energy    TOTEN  =      -607.83921587 eV

  energy without entropy =     -607.81450096  energy(sigma->0) =     -607.82685842
  exchange ACFDT corr.  =        -0.02435752  see jH, gK, PRB 81, 115126


--------------------------------------------------------------------------------------------------------




--------------------------------------- Iteration      1(  13)  ---------------------------------------


    POTLOK:  cpu time    1.3879: real time    1.3879
    SETDIJ:  cpu time    2.0788: real time    2.0787
    TRIAL :  cpu time  521.6463: real time  521.6618
    CORREC:  cpu time    0.0022: real time    0.0024
    CHARGE:  cpu time    1.6891: real time    1.6891
    --------------------------------------------
      LOOP:  cpu time  526.8066: real time  526.8223

 eigenvalue-minimisations  :     0
 total energy-change (2. order) :-0.3047895E-01  (-0.2758779E-01)
 number of electron     244.9999994 magnetization       4.8007211
 augmentation part       15.0520929 magnetization       3.5192521

 DIPCOR: dipole corrections for dipol
 direction  3 min pos     1,
 dipolmoment           0.000001     -0.000000     -0.001470 electrons x Angstroem
 Tr[quadrupol]     -6571.964550

 energy correction for charged system         0.000000 eV
 dipol+quadrupol energy correction            0.000000 eV
 added-field ion interaction          0.000000 eV  (added to PSCEN)


 Free energy of the ion-electron system (eV)
  ---------------------------------------------------
  alpha Z        PSCENC =        99.29575957
  Ewald energy   TEWEN  =     39800.69407855
  -Hartree energ DENC   =    -48405.52466007
  -exchange      EXHF   =       556.69891545
  -V(xc)+E(xc)   XCENC  =       626.02862924
  PAW double counting   =     27331.12931221   -27418.85687663
  entropy T*S    EENTRO =        -0.02079529
  eigenvalues    EBANDS =     -3201.83811986
  atomic energy  EATOM  =     10004.52798163
  ---------------------------------------------------
  free energy    TOTEN  =      -607.86969483 eV

  energy without entropy =     -607.84889953  energy(sigma->0) =     -607.85929718
  exchange ACFDT corr.  =        -0.01994807  see jH, gK, PRB 81, 115126


--------------------------------------------------------------------------------------------------------




--------------------------------------- Iteration      1(  14)  ---------------------------------------


    POTLOK:  cpu time    1.3856: real time    1.3856
    SETDIJ:  cpu time    2.0772: real time    2.0773
    TRIAL :  cpu time  521.1566: real time  521.1769
    CORREC:  cpu time    0.0022: real time    0.0024
    CHARGE:  cpu time    1.6880: real time    1.6880
    --------------------------------------------
      LOOP:  cpu time  526.3123: real time  526.3329

 eigenvalue-minimisations  :     0
 total energy-change (2. order) :-0.2534977E-01  (-0.2270513E-01)
 number of electron     244.9999994 magnetization       4.8543439
 augmentation part       15.0535133 magnetization       3.5312638

 DIPCOR: dipole corrections for dipol
 direction  3 min pos     1,
 dipolmoment           0.000001     -0.000000     -0.001480 electrons x Angstroem
 Tr[quadrupol]     -6571.968336

 energy correction for charged system         0.000000 eV
 dipol+quadrupol energy correction            0.000000 eV
 added-field ion interaction          0.000000 eV  (added to PSCEN)


 Free energy of the ion-electron system (eV)
  ---------------------------------------------------
  alpha Z        PSCENC =        99.29575957
  Ewald energy   TEWEN  =     39800.69407855
  -Hartree energ DENC   =    -48405.63204309
  -exchange      EXHF   =       556.76274578
  -V(xc)+E(xc)   XCENC  =       626.04484481
  PAW double counting   =     27333.11953727   -27420.90640746
  entropy T*S    EENTRO =        -0.01685633
  eigenvalues    EBANDS =     -3201.78074636
  atomic energy  EATOM  =     10004.52798163
  ---------------------------------------------------
  free energy    TOTEN  =      -607.89504460 eV

  energy without entropy =     -607.87818827  energy(sigma->0) =     -607.88661643
  exchange ACFDT corr.  =        -0.01567666  see jH, gK, PRB 81, 115126


--------------------------------------------------------------------------------------------------------




--------------------------------------- Iteration      1(  15)  ---------------------------------------


    POTLOK:  cpu time    1.3839: real time    1.3840
    SETDIJ:  cpu time    2.0811: real time    2.0810
    TRIAL :  cpu time  521.2259: real time  521.2353
    CORREC:  cpu time    0.0022: real time    0.0024
    CHARGE:  cpu time    1.6818: real time    1.6818
    --------------------------------------------
      LOOP:  cpu time  526.3779: real time  526.3875

 eigenvalue-minimisations  :     0
 total energy-change (2. order) :-0.2077748E-01  (-0.1839120E-01)
 number of electron     244.9999994 magnetization       4.8966476
 augmentation part       15.0545913 magnetization       3.5407324

 DIPCOR: dipole corrections for dipol
 direction  3 min pos     1,
 dipolmoment           0.000001     -0.000000     -0.001494 electrons x Angstroem
 Tr[quadrupol]     -6571.971912

 energy correction for charged system         0.000000 eV
 dipol+quadrupol energy correction            0.000000 eV
 added-field ion interaction          0.000000 eV  (added to PSCEN)


 Free energy of the ion-electron system (eV)
  ---------------------------------------------------
  alpha Z        PSCENC =        99.29575958
  Ewald energy   TEWEN  =     39800.69407855
  -Hartree energ DENC   =    -48405.78079806
  -exchange      EXHF   =       556.81747240
  -V(xc)+E(xc)   XCENC  =       626.05875878
  PAW double counting   =     27335.29859643   -27423.14348868
  entropy T*S    EENTRO =        -0.01317546
  eigenvalues    EBANDS =     -3201.66732637
  atomic energy  EATOM  =     10004.52798163
  ---------------------------------------------------
  free energy    TOTEN  =      -607.91582208 eV

  energy without entropy =     -607.90264661  energy(sigma->0) =     -607.90923434
  exchange ACFDT corr.  =        -0.01181674  see jH, gK, PRB 81, 115126


--------------------------------------------------------------------------------------------------------




--------------------------------------- Iteration      1(  16)  ---------------------------------------


    POTLOK:  cpu time    1.3818: real time    1.3818
    SETDIJ:  cpu time    2.0760: real time    2.0759
    TRIAL :  cpu time  521.0223: real time  521.0460
    CORREC:  cpu time    0.0021: real time    0.0023
    CHARGE:  cpu time    1.6815: real time    1.6816
    --------------------------------------------
      LOOP:  cpu time  526.1661: real time  526.1899

 eigenvalue-minimisations  :     0
 total energy-change (2. order) :-0.1678554E-01  (-0.1472634E-01)
 number of electron     244.9999994 magnetization       4.9282500
 augmentation part       15.0554705 magnetization       3.5478959

 DIPCOR: dipole corrections for dipol
 direction  3 min pos     1,
 dipolmoment           0.000001     -0.000000     -0.001500 electrons x Angstroem
 Tr[quadrupol]     -6571.974872

 energy correction for charged system         0.000000 eV
 dipol+quadrupol energy correction            0.000000 eV
 added-field ion interaction          0.000000 eV  (added to PSCEN)


 Free energy of the ion-electron system (eV)
  ---------------------------------------------------
  alpha Z        PSCENC =        99.29575958
  Ewald energy   TEWEN  =     39800.69407855
  -Hartree energ DENC   =    -48405.89609533
  -exchange      EXHF   =       556.86394040
  -V(xc)+E(xc)   XCENC  =       626.06968166
  PAW double counting   =     27337.48245430   -27425.36460127
  entropy T*S    EENTRO =        -0.00999330
  eigenvalues    EBANDS =     -3201.59263167
  atomic energy  EATOM  =     10004.52798163
  ---------------------------------------------------
  free energy    TOTEN  =      -607.93260762 eV

  energy without entropy =     -607.92261432  energy(sigma->0) =     -607.92761097
  exchange ACFDT corr.  =        -0.00856854  see jH, gK, PRB 81, 115126


--------------------------------------------------------------------------------------------------------




--------------------------------------- Iteration      1(  17)  ---------------------------------------


    POTLOK:  cpu time    1.3791: real time    1.3790
    SETDIJ:  cpu time    2.0798: real time    2.0798
    TRIAL :  cpu time  520.9412: real time  520.9488
    CORREC:  cpu time    0.0022: real time    0.0024
    CHARGE:  cpu time    1.6776: real time    1.6775
    --------------------------------------------
      LOOP:  cpu time  526.0822: real time  526.0899

 eigenvalue-minimisations  :     0
 total energy-change (2. order) :-0.1344951E-01  (-0.1169257E-01)
 number of electron     244.9999994 magnetization       4.9507329
 augmentation part       15.0562756 magnetization       3.5531896

 DIPCOR: dipole corrections for dipol
 direction  3 min pos     1,
 dipolmoment           0.000001     -0.000000     -0.001487 electrons x Angstroem
 Tr[quadrupol]     -6571.977451

 energy correction for charged system         0.000000 eV
 dipol+quadrupol energy correction            0.000000 eV
 added-field ion interaction          0.000000 eV  (added to PSCEN)


 Free energy of the ion-electron system (eV)
  ---------------------------------------------------
  alpha Z        PSCENC =        99.29575957
  Ewald energy   TEWEN  =     39800.69407855
  -Hartree energ DENC   =    -48406.00083788
  -exchange      EXHF   =       556.90363981
  -V(xc)+E(xc)   XCENC  =       626.07865555
  PAW double counting   =     27339.48289637   -27427.38863485
  entropy T*S    EENTRO =        -0.00742843
  eigenvalues    EBANDS =     -3201.52960256
  atomic energy  EATOM  =     10004.52798163
  ---------------------------------------------------
  free energy    TOTEN  =      -607.94605713 eV

  energy without entropy =     -607.93862870  energy(sigma->0) =     -607.94234291
  exchange ACFDT corr.  =        -0.00603317  see jH, gK, PRB 81, 115126


--------------------------------------------------------------------------------------------------------




--------------------------------------- Iteration      1(  18)  ---------------------------------------


    POTLOK:  cpu time    1.3773: real time    1.3773
    SETDIJ:  cpu time    2.0793: real time    2.0793
    TRIAL :  cpu time  520.9873: real time  521.0072
    CORREC:  cpu time    0.0022: real time    0.0024
    CHARGE:  cpu time    1.6788: real time    1.6788
    --------------------------------------------
      LOOP:  cpu time  526.1273: real time  526.1474

 eigenvalue-minimisations  :     0
 total energy-change (2. order) :-0.1073037E-01  (-0.9308193E-02)
 number of electron     244.9999994 magnetization       4.9661630
 augmentation part       15.0570246 magnetization       3.5571097

 DIPCOR: dipole corrections for dipol
 direction  3 min pos     1,
 dipolmoment           0.000001     -0.000000     -0.001499 electrons x Angstroem
 Tr[quadrupol]     -6571.979613

 energy correction for charged system         0.000000 eV
 dipol+quadrupol energy correction            0.000000 eV
 added-field ion interaction          0.000000 eV  (added to PSCEN)


 Free energy of the ion-electron system (eV)
  ---------------------------------------------------
  alpha Z        PSCENC =        99.29575958
  Ewald energy   TEWEN  =     39800.69407855
  -Hartree energ DENC   =    -48406.10215101
  -exchange      EXHF   =       556.93733265
  -V(xc)+E(xc)   XCENC  =       626.08626964
  PAW double counting   =     27341.17284599   -27429.09849408
[...]
  augment   163.81675   169.34913   173.56431    -4.03297    -0.06942    -0.03321
  Kinetic  3609.99717  3623.00473  4107.68063     0.29973    -0.03475     0.04149
  Fock     -338.14505  -341.04809  -314.70266     1.97179     0.00742    -0.04421
  -------------------------------------------------------------------------------------
  Total     -21.06991   -44.63606    -0.35697     1.09996    -0.00523     0.01121
  in kB     -10.62601   -22.51093    -0.18003     0.55473    -0.00264     0.00566
  external pressure =      -11.11 kB  Pullay stress =        0.00 kB


 VOLUME and BASIS-vectors are now :
 -----------------------------------------------------------------------------
  energy-cutoff  :      500.00
  volume of cell :     3176.90
      direct lattice vectors                 reciprocal lattice vectors
    12.653500000  0.000000000  0.000000000     0.079029518 -0.000231176  0.000052571
     0.036675752 12.537946359  0.000000000     0.000000000  0.079757878 -0.000006559
    -0.013315833  0.001646644 20.024695505     0.000000000  0.000000000  0.049938337

  length of vectors
    12.653500000 12.538000000 20.024700000     0.079029873  0.079757879  0.049938337


 FORCES acting on ions:
    Electron-Ion                     Ewald-Force                    Non-Local-Force
 -----------------------------------------------------------------------------------------------
   0.244E+01 -.268E+00 0.340E+00   -.244E+01 0.205E+00 -.341E+00   -.139E+00 0.381E-01 0.197E-02
   0.188E+01 0.187E+01 0.303E+00   -.186E+01 -.188E+01 -.304E+00   0.427E-01 0.841E-01 0.969E-03
   0.965E+01 -.104E+01 0.200E+00   -.950E+01 0.116E+01 -.199E+00   -.241E-01 -.920E-01 -.130E-02
   0.502E+01 0.555E+01 0.323E+00   -.468E+01 -.554E+01 -.321E+00   -.294E+00 0.696E-01 -.277E-03
   0.625E+01 0.143E+02 0.238E+00   -.606E+01 -.145E+02 -.241E+00   -.180E+00 0.730E-01 0.352E-02
   0.160E+02 -.160E+01 0.289E+00   -.164E+02 0.180E+01 -.289E+00   0.326E+00 -.994E-01 0.147E-02
   0.166E+02 0.340E+01 0.332E+00   -.168E+02 -.354E+01 -.332E+00   0.180E+00 0.263E-01 0.490E-03
   -.531E+01 0.411E+02 -.507E+00   0.869E+01 -.439E+02 0.512E+00   -.301E+01 0.290E+01 -.436E-02
   0.139E+02 -.168E+01 0.872E-01   -.139E+02 0.127E+01 -.865E-01   0.138E+00 0.156E+00 0.357E-03
   0.518E+02 -.104E+02 -.150E-01   -.551E+02 0.111E+02 0.103E-01   0.319E+01 -.410E+00 0.569E-02
   0.125E+02 0.277E+01 0.149E+00   -.129E+02 -.264E+01 -.149E+00   0.358E+00 0.629E-01 0.194E-03
   0.494E+02 0.126E+02 0.117E+00   -.527E+02 -.133E+02 -.112E+00   0.355E+01 0.455E+00 -.379E-02
   -.839E+01 -.390E+02 0.158E+00   0.107E+02 0.419E+02 -.162E+00   -.228E+01 -.279E+01 0.197E-02
   0.267E+01 -.159E+02 0.144E+00   -.238E+01 0.162E+02 -.144E+00   -.194E+00 -.385E+00 -.343E-03
   -.321E+00 -.166E+01 0.852E-01   0.239E+00 0.186E+01 -.857E-01   -.456E-02 -.192E+00 -.391E-03
   0.166E+02 -.538E+01 0.104E+00   -.167E+02 0.545E+01 -.105E+00   0.115E+00 -.133E+00 0.939E-04
   0.490E+01 -.327E+01 0.273E+00   -.457E+01 0.342E+01 -.271E+00   -.214E+00 -.162E+00 -.179E-02
   -.556E+01 0.904E+00 0.570E+00   0.524E+01 -.111E+01 -.569E+00   0.202E+00 0.137E+00 0.293E-03
   -.230E+01 0.473E+01 0.297E+00   0.252E+01 -.459E+01 -.299E+00   -.246E+00 -.127E+00 0.173E-02
   0.183E+01 0.103E+01 0.512E+00   -.179E+01 -.978E+00 -.512E+00   0.833E-01 -.457E-02 0.947E-03
   -.224E+01 0.126E+02 0.513E+00   0.188E+01 -.129E+02 -.517E+00   0.225E+00 0.446E+00 0.569E-02
   0.106E+02 0.290E+02 0.381E-01   -.127E+02 -.321E+02 -.447E-01   0.211E+01 0.283E+01 0.611E-02
   0.214E+01 0.122E+02 -.160E+00   -.303E+01 -.109E+02 0.164E+00   0.927E+00 -.100E+01 -.245E-02
   0.515E+01 -.348E+02 -.499E-01   -.872E+01 0.379E+02 0.419E-01   0.315E+01 -.317E+01 0.642E-02
   -.104E+02 -.188E+02 0.258E-02   0.112E+02 0.175E+02 -.203E-02   -.990E+00 0.126E+01 0.149E-04
   -.745E+01 -.120E+02 0.238E+00   0.732E+01 0.123E+02 -.240E+00   0.211E+00 -.159E+00 0.203E-02
   -.642E+01 -.598E+01 0.416E+00   0.610E+01 0.599E+01 -.415E+00   0.308E+00 -.148E+00 0.121E-02
   -.309E+01 -.282E+01 0.464E+00   0.308E+01 0.272E+01 -.465E+00   -.118E+00 0.586E-01 0.183E-02
   -.264E+00 -.661E+01 0.342E+00   -.952E-01 0.633E+01 -.342E+00   0.303E+00 0.281E+00 0.202E-03
   -.321E+01 -.629E+00 0.518E+00   0.317E+01 0.780E+00 -.520E+00   0.172E+00 -.552E-01 0.151E-02
   -.755E+01 -.467E-02 0.140E+00   0.746E+01 0.133E+00 -.140E+00   -.254E-01 -.157E-01 -.111E-02
   -.150E+02 0.309E+01 0.314E+00   0.151E+02 -.316E+01 -.312E+00   -.107E+00 0.126E+00 -.135E-02
   0.138E+01 0.813E+00 0.274E+00   -.127E+01 -.101E+01 -.275E+00   -.197E-02 0.201E+00 0.429E-03
   0.776E+01 -.272E+01 0.260E+00   -.774E+01 0.285E+01 -.261E+00   -.508E-01 -.111E+00 0.392E-03
   -.518E+01 -.365E+01 0.318E+00   0.545E+01 0.384E+01 -.319E+00   -.283E+00 -.236E+00 0.136E-02
   -.425E+02 -.160E+02 -.798E-01   0.458E+02 0.166E+02 0.738E-01   -.344E+01 -.457E+00 0.796E-02
   -.946E+01 -.453E+01 0.236E+00   0.988E+01 0.448E+01 -.238E+00   -.376E+00 -.780E-01 0.122E-02
   0.738E+01 -.429E+01 0.295E+00   -.750E+01 0.478E+01 -.294E+00   0.171E+00 -.364E+00 0.538E-03
   0.154E+01 -.422E+01 0.132E+00   -.149E+01 0.456E+01 -.131E+00   0.240E+00 -.161E+00 -.349E-03
   -.466E+02 0.161E+02 -.118E+00   0.505E+02 -.167E+02 0.115E+00   -.339E+01 0.427E+00 0.256E-02
   -.755E+01 0.291E+01 -.130E+00   0.755E+01 -.251E+01 0.133E+00   -.218E+00 -.108E+00 -.185E-02
   0.228E+01 0.498E+01 0.191E+00   -.224E+01 -.531E+01 -.190E+00   -.347E+00 0.168E+00 0.195E-03
   -.491E+01 0.548E+01 0.253E+00   0.510E+01 -.598E+01 -.253E+00   -.236E+00 0.346E+00 0.169E-02
   -.151E+02 -.263E+01 0.258E+00   0.152E+02 0.278E+01 -.257E+00   -.154E+00 -.134E-01 0.454E-04
   -.140E+02 0.254E+01 0.161E+00   0.145E+02 -.279E+01 -.162E+00   -.419E+00 0.566E-01 0.706E-03
   0.705E+01 0.255E+01 0.201E+00   -.726E+01 -.275E+01 -.201E+00   0.278E+00 0.226E+00 0.668E-03
   -.610E+01 0.238E+01 0.152E+00   0.611E+01 -.248E+01 -.151E+00   0.362E-01 0.121E+00 -.883E-03
   -.926E+01 0.280E+00 0.350E+00   0.911E+01 -.430E+00 -.349E+00   0.432E-01 0.749E-01 -.862E-03
   -.123E+01 -.143E+01 0.301E+00   0.120E+01 0.146E+01 -.302E+00   -.614E-01 -.913E-01 0.121E-02
   0.863E+01 -.572E+00 0.741E-01   -.853E+01 0.415E+00 -.747E-01   0.342E-02 0.188E-01 -.543E-03
   -.144E+02 -.490E+01 -.110E+01   0.165E+02 0.936E+01 0.113E+01   -.313E+01 -.483E+01 -.305E-01
   -.909E+01 -.713E+00 -.305E+00   0.581E+01 -.452E+01 0.295E+00   0.411E+01 0.567E+01 0.525E-02
   0.280E+02 -.211E+02 -.129E+01   -.174E+02 0.378E+02 0.138E+01   -.102E+02 -.159E+02 -.878E-01
   0.177E+02 0.295E+02 0.386E+00   -.594E+01 -.477E+02 -.388E+00   -.111E+02 0.172E+02 0.406E-02
   0.370E+00 -.491E+02 -.896E+00   -.126E+02 0.684E+02 0.971E+00   0.117E+02 -.181E+02 -.737E-01
   -.155E+02 0.425E+02 -.251E+00   0.484E+01 -.597E+02 0.269E+00   0.986E+01 0.161E+02 -.168E-01
   0.120E+02 -.381E+01 -.378E+00   -.146E+02 0.696E+01 0.385E+00   -.328E+00 -.287E+01 -.214E-01
   -.474E+02 0.260E+02 -.598E+01   0.486E+02 -.291E+02 0.589E+01   0.183E+01 0.296E+01 0.102E+00
 -----------------------------------------------------------------------------------------------
   -.251E+01 -.281E+00 0.854E-01   -.227E-12 -.242E-12 0.622E-14   0.234E+01 0.336E+00 -.772E-01
 
 
 POSITION                                       TOTAL-FORCE (eV/Angst)
 -----------------------------------------------------------------------------------
      2.83879     12.52369     10.01166        -0.146307     -0.023285      0.000656
      0.68859      1.24228     10.01176         0.061427      0.077828      0.000349
      1.42587     12.53096     10.01184         0.136566      0.023053     -0.000387
      3.50861      1.21927     10.01230         0.027532      0.079347      0.000949
      2.80299      2.45031     10.01326         0.000469     -0.068782      0.000784
      0.71629      3.75091     10.01268        -0.081559      0.095241      0.001610
      1.39068      2.48346     10.01232         0.048991     -0.115186      0.001424
      3.51912      3.67251     10.01642         0.213301      0.223038      0.000337
      0.80365      6.25245     10.01329         0.201639     -0.252627      0.000996
      1.49637      4.96978     10.01432         0.017826      0.229708      0.001380
      0.75772      8.76779     10.01239        -0.051736      0.196940     -0.000040
      1.51479      7.53576     10.01299         0.487268     -0.227571      0.000789
      3.52101      8.82200     10.01288        -0.055062      0.003673     -0.001205
      2.83432     10.05271     10.01228         0.087644     -0.082978     -0.000790
      0.73085     11.28153     10.01210        -0.099870     -0.005946     -0.000998
      1.42657     10.03370     10.01227         0.014226     -0.064151     -0.000444
      3.53941     11.29079     10.01169         0.108575     -0.015715      0.000046
      7.06746     12.52078     10.01095        -0.114067     -0.066025      0.000959
      4.92180      1.22136     10.01260        -0.040306      0.002814     -0.000087
      5.65637     12.52015     10.01124         0.136588      0.049157      0.000923
      7.73574      1.22090     10.01186        -0.114901      0.170915      0.002643
      7.05176      2.45261     10.01449         0.125160     -0.136144     -0.000142
      5.61549      2.46553     10.01517         0.086661      0.199860      0.001114
      7.04289      7.59954     10.01472        -0.247419     -0.292825     -0.001274
      4.95253      8.80357     10.01347        -0.177553     -0.049772      0.000545
      7.76030      8.82265     10.01264         0.082825      0.158056     -0.000139
      7.06006     10.05509     10.01152        -0.006832     -0.152519      0.001319
      4.95080     11.28744     10.01123        -0.145054     -0.033401      0.001186
      5.64697     10.04627     10.01185        -0.034670      0.012216      0.001187
      7.76627     11.28696     10.01086         0.143349      0.093142      0.000553
     11.28149     12.53341     10.01182        -0.132396      0.113259     -0.001041
      9.14464      1.24154     10.01189        -0.004558      0.062205      0.000231
      9.87520     12.53060     10.01151         0.124016      0.017680     -0.000474
     11.92989      1.25438     10.01173        -0.020619      0.018135      0.000111
     11.23675      2.51561     10.01198        -0.041526     -0.058089      0.000807
      9.05811      3.74047     10.01461        -0.319911      0.057822      0.002365
      9.81585      2.50688     10.01260         0.031331     -0.128034      0.000172
     11.94139      3.77030     10.01233         0.058986      0.102792      0.001283
     11.22415      5.02134     10.01303         0.310002      0.166444      0.000453
      9.08484      6.30975     10.01461         0.226047     -0.120328     -0.001232
      9.77134      5.02315     10.01432        -0.226342      0.289783      0.000392
     12.00508      6.25466     10.01274        -0.329639     -0.146725      0.000996
     11.28829      7.50737     10.01237        -0.057685     -0.138138      0.001559
      9.17578      8.78937     10.01224        -0.056785      0.143646      0.000829
      9.86133      7.52831     10.01293         0.022237     -0.193385      0.000300
     11.99015      8.76059     10.01212         0.090652      0.033962      0.000597
     11.29311     10.01954     10.01193         0.036981      0.037273     -0.000396
      9.17989     11.28085     10.01120        -0.114009     -0.070098      0.000117
      9.87975     10.03181     10.01158        -0.081558     -0.068816      0.000608
     11.97799     11.27890     10.01203         0.111301     -0.139129     -0.001162
      4.93569      3.70853     10.01854        -1.176344     -0.631922     -0.006195
      5.61020      7.54204     10.01538         1.051157      0.742285     -0.004275
      2.86469      4.88868     10.01727        -0.427780     -0.520246      0.000078
      2.88896      7.60676     10.01309        -0.286025      0.368408      0.002475
      7.68545      3.66606     10.01693         0.427009     -0.394453     -0.005303
      7.72370      6.39967     10.01594         0.010851      0.326910     -0.000797
      4.28746      6.17197     10.01622        -2.118131      0.295343     -0.011928
      6.21753      5.14460     10.02405         2.228026     -0.194643      0.005184
 -----------------------------------------------------------------------------------
    total drift:                               -0.003120     -0.001706      0.000485


--------------------------------------------------------------------------------------------------------



  FREE ENERGIE OF THE ION-ELECTRON SYSTEM (eV)
  ---------------------------------------------------
  free  energy   TOTEN  =      -608.06614117 eV

  energy  without entropy=     -608.06594307  energy(sigma->0) =     -608.06604212
 


--------------------------------------------------------------------------------------------------------


    POTLOK:  cpu time    3.4452: real time    3.4454


--------------------------------------------------------------------------------------------------------


 stress matrix after NEB project (eV)
    -21.06991      1.09848      0.01121
      1.09996    -44.63606     -0.00536
      0.01135     -0.00523     -0.35697
  FORCES: max atom, RMS     2.236518    0.527040
  FORCE total and by dimension    4.013817    2.228026
  Stress total and by dimension   49.384850   44.636064
 writing wavefunctions
     LOOP+:  cpu time75526.0458: real time75531.5294
    4ORBIT:  cpu time    0.0000: real time    0.0000
 


 total charge     
 
# of ion       s       p       d       tot
------------------------------------------
    1        0.872   1.790   0.000   2.663
    2        0.868   1.783   0.000   2.651
    3        0.868   1.776   0.000   2.644
    4        0.872   1.789   0.000   2.661
    5        0.874   1.801   0.000   2.676
    6        0.862   1.758   0.000   2.620
    7        0.869   1.772   0.000   2.641
    8        0.874   1.735   0.000   2.609
    9        0.845   1.733   0.000   2.578
   10        0.854   1.704   0.000   2.558
   11        0.864   1.766   0.000   2.630
   12        0.852   1.695   0.000   2.548
   13        0.871   1.758   0.000   2.629
   14        0.874   1.806   0.000   2.680
   15        0.869   1.786   0.000   2.655
   16        0.871   1.775   0.000   2.646
   17        0.870   1.793   0.000   2.664
   18        0.870   1.796   0.000   2.666
   19        0.870   1.790   0.000   2.660
   20        0.872   1.789   0.000   2.660
   21        0.874   1.805   0.000   2.679
   22        0.869   1.759   0.000   2.628
   23        0.874   1.764   0.000   2.638
   24        0.871   1.726   0.000   2.597
   25        0.874   1.767   0.000   2.641
   26        0.874   1.799   0.000   2.673
   27        0.873   1.792   0.000   2.664
   28        0.871   1.790   0.000   2.661
   29        0.871   1.788   0.000   2.659
   30        0.872   1.790   0.000   2.663
   31        0.869   1.776   0.000   2.644
   32        0.870   1.774   0.000   2.644
   33        0.869   1.785   0.000   2.655
   34        0.867   1.769   0.000   2.635
   35        0.863   1.760   0.000   2.623
   36        0.853   1.695   0.000   2.548
   37        0.864   1.765   0.000   2.629
   38        0.861   1.751   0.000   2.612
   39        0.852   1.724   0.000   2.576
   40        0.854   1.713   0.000   2.567
   41        0.845   1.730   0.000   2.575
   42        0.853   1.721   0.000   2.574
   43        0.861   1.754   0.000   2.615
   44        0.868   1.769   0.000   2.637
   45        0.863   1.760   0.000   2.623
   46        0.864   1.761   0.000   2.624
   47        0.866   1.768   0.000   2.634
   48        0.868   1.776   0.000   2.644
   49        0.867   1.781   0.000   2.648
   50        0.869   1.775   0.000   2.644
   51        0.862   1.706   0.000   2.567
   52        0.862   1.686   0.000   2.549
   53        1.231   2.694   0.000   3.925
   54        1.235   2.654   0.000   3.890
   55        1.239   2.658   0.000   3.897
   56        1.234   2.702   0.000   3.936
   57        0.488   0.552   7.274   8.314
   58        0.481   0.540   6.076   7.097
--------------------------------------------------
tot         50.941 103.475  13.349 167.766
 


 magnetization (x)
 
# of ion       s       p       d       tot
------------------------------------------
    1       -0.000  -0.005   0.000  -0.005
    2       -0.000  -0.000   0.000  -0.000
    3        0.000   0.004   0.000   0.004
    4        0.001   0.012   0.000   0.013
    5       -0.001  -0.005   0.000  -0.006
    6       -0.001  -0.005   0.000  -0.006
    7        0.000   0.006   0.000   0.007
    8        0.001   0.014   0.000   0.015
    9        0.000   0.008   0.000   0.008
   10       -0.000   0.013   0.000   0.013
   11       -0.000  -0.003   0.000  -0.003
   12        0.001   0.008   0.000   0.009
   13       -0.001  -0.007   0.000  -0.007
   14       -0.000   0.001   0.000   0.001
   15       -0.000  -0.001   0.000  -0.001
   16        0.000   0.002   0.000   0.002
   17        0.000   0.005   0.000   0.006
   18       -0.000  -0.005   0.000  -0.006
   19       -0.001  -0.006   0.000  -0.007
   20        0.000   0.005   0.000   0.006
   21        0.000   0.006   0.000   0.007
   22       -0.001  -0.013   0.000  -0.015
   23        0.002   0.020   0.000   0.022
   24        0.000   0.019   0.000   0.019
   25        0.002   0.009   0.000   0.010
   26       -0.001  -0.001   0.000  -0.002
   27        0.000   0.007   0.000   0.008
   28       -0.000  -0.003   0.000  -0.003
   29        0.000   0.005   0.000   0.005
   30       -0.000   0.000   0.000   0.000
   31       -0.000  -0.000   0.000  -0.001
   32       -0.000  -0.001   0.000  -0.001
   33        0.000   0.005   0.000   0.005
   34        0.000   0.006   0.000   0.006
   35       -0.000   0.001   0.000   0.001
   36        0.000  -0.001   0.000  -0.001
   37        0.001   0.003   0.000   0.004
   38        0.000   0.007   0.000   0.008
   39       -0.000  -0.002   0.000  -0.003
   40       -0.001  -0.002   0.000  -0.002
   41        0.002   0.026   0.000   0.027
   42        0.000   0.007   0.000   0.008
   43       -0.000  -0.002   0.000  -0.003
   44       -0.000   0.002   0.000   0.002
   45        0.000   0.002   0.000   0.002
   46        0.001   0.008   0.000   0.008
   47       -0.000  -0.000   0.000  -0.000
   48       -0.000   0.001   0.000   0.001
   49        0.000   0.005   0.000   0.005
   50        0.000   0.004   0.000   0.005
   51       -0.014  -0.070   0.000  -0.084
   52       -0.001  -0.025   0.000  -0.026
   53       -0.002   0.004   0.000   0.002
   54       -0.001  -0.009   0.000  -0.010
   55        0.007   0.035   0.000   0.042
   56        0.002   0.032   0.000   0.034
   57        0.003   0.014   1.411   1.428
   58        0.067   0.021   3.104   3.192
--------------------------------------------------
tot          0.065   0.162   4.514   4.742
 

 total amount of memory used by VASP MPI-rank0   180715. kBytes
=======================================================================

   base      :      30000. kBytes
   nonl-proj :       5335. kBytes
   fftplans  :      14250. kBytes
   grid      :      36827. kBytes
   one-center:         62. kBytes
   HF        :         23. kBytes
   nonlr-proj:      16614. kBytes
   wavefun   :      77604. kBytes
 
  
  
 General timing and accounting informations for this job:
 ========================================================
  
                  Total CPU time used (sec):    75617.758
                            User time (sec):    75537.923
                          System time (sec):       79.836
                         Elapsed time (sec):    75628.242
  
                   Maximum memory used (kb):      436232.
                   Average memory used (kb):           0.
  
                          Minor page faults:       511521
                          Major page faults:            0
                 Voluntary context switches:         1153
