 vasp.5.4.4.18Apr17-6-g9f103f2a35 (build Feb 25 2019 10:51:38) complex          
  
 executed on             LinuxIFC date 2021.03.06  04:00:37
 running on   80 total cores
 distrk:  each k-point on   40 cores,    2 groups
 distr:  one band on NCORES_PER_BAND=  40 cores,    1 groups


--------------------------------------------------------------------------------------------------------


 INCAR:
 POTCAR:    PAW_PBE C 08Apr2002                   
 POTCAR:    PAW_PBE N 08Apr2002                   
 POTCAR:    PAW_PBE Ni 02Aug2007                  
 POTCAR:    PAW_PBE Fe 06Sep2000                  

 ----------------------------------------------------------------------------- 
|                                                                             |
|           W    W    AA    RRRRR   N    N  II  N    N   GGGG   !!!           |
|           W    W   A  A   R    R  NN   N  II  NN   N  G    G  !!!           |
|           W    W  A    A  R    R  N N  N  II  N N  N  G       !!!           |
|           W WW W  AAAAAA  RRRRR   N  N N  II  N  N N  G  GGG   !            |
|           WW  WW  A    A  R   R   N   NN  II  N   NN  G    G                |
|           W    W  A    A  R    R  N    N  II  N    N   GGGG   !!!           |
|                                                                             |
|      For optimal performance we recommend to set                            |
|        NCORE= 4 - approx SQRT( number of cores)                             |
|      NCORE specifies how many cores store one orbital (NPAR=cpu/NCORE).     |
|      This setting can  greatly improve the performance of VASP for DFT.     |
|      The default,   NCORE=1            might be grossly inefficient         |
|      on modern multi-core architectures or massively parallel machines.     |
|      Do your own testing !!!!                                               |
|      Unfortunately you need to use the default for GW and RPA calculations. |
|      (for HF NCORE is supported but not extensively tested yet)             |
|                                                                             |
 ----------------------------------------------------------------------------- 


 ----------------------------------------------------------------------------- 
|                                                                             |
|           W    W    AA    RRRRR   N    N  II  N    N   GGGG   !!!           |
|           W    W   A  A   R    R  NN   N  II  NN   N  G    G  !!!           |
|           W    W  A    A  R    R  N N  N  II  N N  N  G       !!!           |
|           W WW W  AAAAAA  RRRRR   N  N N  II  N  N N  G  GGG   !            |
|           WW  WW  A    A  R   R   N   NN  II  N   NN  G    G                |
|           W    W  A    A  R    R  N    N  II  N    N   GGGG   !!!           |
|                                                                             |
|      You have enabled k-point parallelism (KPAR>1).                         |
|      This developmental code was originally  written by Paul Kent at ORNL,  |
|      and carefully double checked in Vienna.                                |
|      GW as well as linear response parallelism added by Martijn Marsman     |
|      and Georg Kresse.                                                      |
|      Carefully verify results versus KPAR=1.                                |
|      Report problems to Paul Kent and Vienna.                               |
|                                                                             |
 ----------------------------------------------------------------------------- 

 POTCAR:    PAW_PBE C 08Apr2002                   
   VRHFIN =C: s2p2                                                              
   LEXCH  = PE                                                                  
   EATOM  =   147.1560 eV,   10.8157 Ry                                         
                                                                                
   TITEL  = PAW_PBE C 08Apr2002                                                 
   LULTRA =        F    use ultrasoft PP ?                                      
   IUNSCR =        1    unscreen: 0-lin 1-nonlin 2-no                           
   RPACOR =    1.200    partial core radius                                     
   POMASS =   12.011; ZVAL   =    4.000    mass and valenz                      
   RCORE  =    1.500    outmost cutoff radius                                   
   RWIGS  =    1.630; RWIGS  =    0.863    wigner-seitz radius (au A)           
   ENMAX  =  400.000; ENMIN  =  300.000 eV                                      
   ICORE  =        2    local potential                                         
   LCOR   =        T    correct aug charges                                     
   LPAW   =        T    paw PP                                                  
   EAUG   =  644.873                                                            
   DEXC   =    0.000                                                            
   RMAX   =    1.529    core radius for proj-oper                               
   RAUG   =    1.300    factor for augmentation sphere                          
   RDEP   =    1.501    radius for radial grids                                 
   RDEPT  =    1.300    core radius for aug-charge                              
                                                                                
   Atomic configuration                                                         
    4 entries                                                                   
     n  l   j            E        occ.                                          
     1  0  0.50      -273.3789   2.0000                                         
     2  0  0.50       -13.7508   2.0000                                         
     2  1  0.50        -5.2854   2.0000                                         
     3  2  1.50        -5.4423   0.0000                                         
   Description                                                                  
     l       E           TYP  RCUT    TYP  RCUT                                 
     0    -13.7508458     23  1.200                                             
     0     -8.2022199     23  1.200                                             
     1     -5.2854383     23  1.500                                             
     1     34.0145650     23  1.500                                             
     2     -5.4423304      7  1.500                                             
  local pseudopotential read in
  partial core-charges read in
  partial kinetic energy density read in
  atomic valenz-charges read in
  non local Contribution for L=           0  read in
    real space projection operators read in
  non local Contribution for L=           0  read in
    real space projection operators read in
  non local Contribution for L=           1  read in
    real space projection operators read in
  non local Contribution for L=           1  read in
    real space projection operators read in
    PAW grid and wavefunctions read in
 
   number of l-projection  operators is LMAX  =           4
   number of lm-projection operators is LMMAX =           8
 
 POTCAR:    PAW_PBE N 08Apr2002                   
   VRHFIN =N: s2p3                                                              
   LEXCH  = PE                                                                  
   EATOM  =   264.5486 eV,   19.4438 Ry                                         
                                                                                
   TITEL  = PAW_PBE N 08Apr2002                                                 
   LULTRA =        F    use ultrasoft PP ?                                      
   IUNSCR =        1    unscreen: 0-lin 1-nonlin 2-no                           
   RPACOR =    1.200    partial core radius                                     
   POMASS =   14.001; ZVAL   =    5.000    mass and valenz                      
   RCORE  =    1.500    outmost cutoff radius                                   
   RWIGS  =    1.400; RWIGS  =    0.741    wigner-seitz radius (au A)           
   ENMAX  =  400.000; ENMIN  =  300.000 eV                                      
   ICORE  =        2    local potential                                         
   LCOR   =        T    correct aug charges                                     
   LPAW   =        T    paw PP                                                  
   EAUG   =  627.112                                                            
   DEXC   =    0.000                                                            
   RMAX   =    1.529    core radius for proj-oper                               
   RAUG   =    1.300    factor for augmentation sphere                          
   RDEP   =    1.514    radius for radial grids                                 
   RDEPT  =    1.338    core radius for aug-charge                              
                                                                                
   Atomic configuration                                                         
    4 entries                                                                   
     n  l   j            E        occ.                                          
     1  0  0.50      -384.7179   2.0000                                         
     2  0  0.50       -18.5828   2.0000                                         
     2  1  0.50        -7.0898   3.0000                                         
     3  2  1.50        -6.8029   0.0000                                         
   Description                                                                  
     l       E           TYP  RCUT    TYP  RCUT                                 
     0    -18.5828119     23  1.200                                             
     0    -13.5018863     23  1.200                                             
     1     -7.0897853     23  1.500                                             
     1      9.5240782     23  1.500                                             
     2     -6.8029130      7  1.500                                             
  local pseudopotential read in
  partial core-charges read in
  partial kinetic energy density read in
  atomic valenz-charges read in
  non local Contribution for L=           0  read in
    real space projection operators read in
  non local Contribution for L=           0  read in
    real space projection operators read in
  non local Contribution for L=           1  read in
    real space projection operators read in
  non local Contribution for L=           1  read in
    real space projection operators read in
    PAW grid and wavefunctions read in
 
   number of l-projection  operators is LMAX  =           4
   number of lm-projection operators is LMMAX =           8
 
 POTCAR:    PAW_PBE Ni 02Aug2007                  
   VRHFIN =Ni:                                                                  
   LEXCH  = PE                                                                  
   EATOM  =  1077.6739 eV,   79.2068 Ry                                         
                                                                                
   TITEL  = PAW_PBE Ni 02Aug2007                                                
   LULTRA =        F    use ultrasoft PP ?                                      
   IUNSCR =        1    unscreen: 0-lin 1-nonlin 2-no                           
   RPACOR =    2.000    partial core radius                                     
   POMASS =   58.690; ZVAL   =   10.000    mass and valenz                      
   RCORE  =    2.300    outmost cutoff radius                                   
   RWIGS  =    2.430; RWIGS  =    1.286    wigner-seitz radius (au A)           
   ENMAX  =  269.532; ENMIN  =  202.149 eV                                      
   RCLOC  =    1.201    cutoff for local pot                                    
   LCOR   =        T    correct aug charges                                     
   LPAW   =        T    paw PP                                                  
   EAUG   =  544.565                                                            
   DEXC   =    0.000                                                            
   RMAX   =    2.357    core radius for proj-oper                               
   RAUG   =    1.300    factor for augmentation sphere                          
   RDEP   =    2.390    radius for radial grids                                 
   RDEPT  =    1.838    core radius for aug-charge                              
                                                                                
   Atomic configuration                                                         
    9 entries                                                                   
     n  l   j            E        occ.                                          
     1  0  0.50     -8206.4253   2.0000                                         
     2  0  0.50      -976.1748   2.0000                                         
     2  1  1.50      -839.0571   6.0000                                         
     3  0  0.50      -105.9991   2.0000                                         
     3  1  1.50       -66.4603   6.0000                                         
     3  2  2.50        -4.6458   9.0000                                         
     4  0  0.50        -4.4926   1.0000                                         
     4  1  1.50        -4.0817   0.0000                                         
     4  3  2.50        -1.3606   0.0000                                         
   Description                                                                  
     l       E           TYP  RCUT    TYP  RCUT                                 
     2     -4.6457903     23  2.300                                             
     2     -6.0063729     23  2.300                                             
     0     -4.4925590     23  2.300                                             
     0      5.0102601     23  2.300                                             
     1     -2.7211652     23  2.300                                             
     1     16.5183231     23  2.300                                             
  local pseudopotential read in
  partial core-charges read in
  partial kinetic energy density read in
  atomic valenz-charges read in
  non local Contribution for L=           2  read in
    real space projection operators read in
  non local Contribution for L=           2  read in
    real space projection operators read in
  non local Contribution for L=           0  read in
    real space projection operators read in
  non local Contribution for L=           0  read in
    real space projection operators read in
  non local Contribution for L=           1  read in
    real space projection operators read in
  non local Contribution for L=           1  read in
    real space projection operators read in
    PAW grid and wavefunctions read in
 
   number of l-projection  operators is LMAX  =           6
   number of lm-projection operators is LMMAX =          18
 
 POTCAR:    PAW_PBE Fe 06Sep2000                  
   VRHFIN =Fe:  d7 s1                                                           
   LEXCH  = PE                                                                  
   EATOM  =   594.3153 eV,   43.6809 Ry                                         
                                                                                
   TITEL  = PAW_PBE Fe 06Sep2000                                                
   LULTRA =        F    use ultrasoft PP ?                                      
   IUNSCR =        1    unscreen: 0-lin 1-nonlin 2-no                           
   RPACOR =    2.000    partial core radius                                     
   POMASS =   55.847; ZVAL   =    8.000    mass and valenz                      
   RCORE  =    2.300    outmost cutoff radius                                   
   RWIGS  =    2.460; RWIGS  =    1.302    wigner-seitz radius (au A)           
   ENMAX  =  267.882; ENMIN  =  200.911 eV                                      
   RCLOC  =    1.701    cutoff for local pot                                    
   LCOR   =        T    correct aug charges                                     
   LPAW   =        T    paw PP                                                  
   EAUG   =  511.368                                                            
   DEXC   =    0.000                                                            
   RMAX   =    2.356    core radius for proj-oper                               
   RAUG   =    1.300    factor for augmentation sphere                          
   RDEP   =    2.442    radius for radial grids                                 
   RDEPT  =    1.890    core radius for aug-charge                              
                                                                                
   Atomic configuration                                                         
    9 entries                                                                   
     n  l   j            E        occ.                                          
     1  0  0.50     -6993.8440   2.0000                                         
     2  0  0.50      -814.6047   2.0000                                         
     2  1  1.50      -693.3689   6.0000                                         
     3  0  0.50       -89.4732   2.0000                                         
     3  1  1.50       -55.6373   6.0000                                         
     3  2  2.50        -3.8151   7.0000                                         
     4  0  0.50        -4.2551   1.0000                                         
     4  1  1.50        -3.4015   0.0000                                         
     4  3  2.50        -1.3606   0.0000                                         
   Description                                                                  
     l       E           TYP  RCUT    TYP  RCUT                                 
     2     -3.8151135     23  2.300                                             
     2     -5.1756961     23  2.300                                             
     0     -4.2550963     23  2.300                                             
     0      7.2035603     23  2.300                                             
     1     -2.7211652     23  2.300                                             
     1     18.4316424     23  2.300                                             
  local pseudopotential read in
  partial core-charges read in
  partial kinetic energy density read in
  atomic valenz-charges read in
  non local Contribution for L=           2  read in
    real space projection operators read in
  non local Contribution for L=           2  read in
    real space projection operators read in
  non local Contribution for L=           0  read in
    real space projection operators read in
  non local Contribution for L=           0  read in
    real space projection operators read in
  non local Contribution for L=           1  read in
    real space projection operators read in
  non local Contribution for L=           1  read in
    real space projection operators read in
    PAW grid and wavefunctions read in
 
   number of l-projection  operators is LMAX  =           6
   number of lm-projection operators is LMMAX =          18
 

 ----------------------------------------------------------------------------- 
|                                                                             |
|  ADVICE TO THIS USER RUNNING 'VASP/VAMP'   (HEAR YOUR MASTER'S VOICE ...):  |
|                                                                             |
|      You have a (more or less) 'large supercell' and for larger cells       |
|      it might be more efficient to use real space projection opertators     |
|      So try LREAL= Auto  in the INCAR   file.                               |
|      Mind:          For very  accurate calculation you might also keep the  |
|      reciprocal projection scheme          (i.e. LREAL=.FALSE.)             |
|                                                                             |
 ----------------------------------------------------------------------------- 

  PAW_PBE C 08Apr2002                   :
 energy of atom  1       EATOM= -147.1560
 kinetic energy error for atom=    0.0076 (will be added to EATOM!!)
  PAW_PBE N 08Apr2002                   :
 energy of atom  2       EATOM= -264.5486
 kinetic energy error for atom=    0.0138 (will be added to EATOM!!)
  PAW_PBE Ni 02Aug2007                  :
 energy of atom  3       EATOM=-1077.6739
 kinetic energy error for atom=    0.0030 (will be added to EATOM!!)
  PAW_PBE Fe 06Sep2000                  :
 energy of atom  4       EATOM= -594.3153
 kinetic energy error for atom=    0.0026 (will be added to EATOM!!)
 
 
 POSCAR:  C  N Ni Fe                             
  positions in cartesian coordinates
  No initial velocities read in
 exchange correlation table for  LEXCH =        8
   RHO(1)=    0.500       N(1)  =     2000
   RHO(2)=  100.500       N(2)  =     4000

 VTST: version 3.2, (02/03/18)

 CHAIN: initializing optimizer
 
 OPT: Using VASP Conjugate-Gradient optimizer
 CHAIN: Read ICHAIN            0
 
 POSCAR:  C  N Ni Fe                             
  positions in cartesian coordinates
  No initial velocities read in
 


--------------------------------------------------------------------------------------------------------


 ion  position               nearest neighbor table
   1  0.222  0.999  0.500-   3 1.41   4 1.41  17 1.42
   2  0.055  0.100  0.500-  34 1.42   7 1.43   3 1.43
   3  0.110  1.000  0.500-   1 1.41  15 1.43   2 1.43
   4  0.277  0.097  0.500-  19 1.41   1 1.41   5 1.42
   5  0.223  0.196  0.500-   7 1.42   4 1.42   8 1.42
   6  0.058  0.300  0.500-   7 1.44  38 1.44  10 1.45
   7  0.111  0.199  0.500-   5 1.42   2 1.43   6 1.44
   8  0.282  0.292  0.500-  51 1.37  53 1.38   5 1.42
   9  0.064  0.498  0.500-  10 1.45  12 1.46  42 1.47
  10  0.121  0.397  0.500-  51 1.41   6 1.45   9 1.45
  11  0.058  0.699  0.500-  46 1.42  16 1.43  12 1.45
  12  0.119  0.601  0.500-  52 1.37  11 1.45   9 1.46
  13  0.278  0.703  0.500-  52 1.37  14 1.41  25 1.43
  14  0.223  0.802  0.500-  13 1.41  16 1.41  17 1.42
  15  0.056  0.900  0.500-  50 1.41  16 1.43   3 1.43
  16  0.111  0.800  0.500-  14 1.41  15 1.43  11 1.43
  17  0.278  0.900  0.500-  28 1.41  14 1.42   1 1.42
  18  0.556  0.998  0.500-  20 1.41  21 1.42  30 1.42
  19  0.389  0.096  0.500-  23 1.41   4 1.41  20 1.42
  20  0.445  0.998  0.500-  18 1.41  19 1.42  28 1.42
  21  0.611  0.097  0.500-  22 1.41  32 1.42  18 1.42
  22  0.556  0.195  0.500-  54 1.38  21 1.41  23 1.42
  23  0.443  0.194  0.500-  53 1.38  19 1.41  22 1.42
  24  0.552  0.607  0.500-  55 1.37  56 1.38  26 1.42
  25  0.390  0.704  0.500-  56 1.39  29 1.41  13 1.43
  26  0.611  0.703  0.500-  27 1.42  44 1.42  24 1.42
  27  0.556  0.802  0.500-  29 1.41  26 1.42  30 1.42
  28  0.389  0.900  0.500-  17 1.41  29 1.42  20 1.42
  29  0.445  0.802  0.500-  25 1.41  27 1.41  28 1.42
  30  0.612  0.900  0.500-  48 1.41  27 1.42  18 1.42
  31  0.889  1.000  0.500-  33 1.41  34 1.44  50 1.44
  32  0.723  0.099  0.500-  21 1.42  33 1.43  37 1.44
  33  0.778  1.000  0.500-  31 1.41  32 1.43  48 1.43
  34  0.943  0.101  0.500-   2 1.42  31 1.44  35 1.44
  35  0.888  0.201  0.500-  37 1.43  34 1.44  38 1.44
  36  0.715  0.299  0.500-  54 1.38  37 1.45  41 1.46
  37  0.775  0.200  0.500-  35 1.43  32 1.44  36 1.45
  38  0.944  0.302  0.500-  39 1.44   6 1.44  35 1.44
  39  0.886  0.401  0.500-  38 1.44  42 1.45  41 1.47
  40  0.714  0.503  0.500-  55 1.41  45 1.44  41 1.45
  41  0.770  0.401  0.500-  40 1.45  36 1.46  39 1.47
  42  0.948  0.498  0.500-  43 1.44  39 1.45   9 1.47
  43  0.890  0.598  0.500-  45 1.44  46 1.44  42 1.44
  44  0.723  0.700  0.500-  26 1.42  49 1.43  45 1.44
  45  0.776  0.599  0.500-  44 1.44  43 1.44  40 1.44
  46  0.946  0.698  0.500-  11 1.42  47 1.44  43 1.44
  47  0.890  0.799  0.500-  49 1.42  50 1.44  46 1.44
  48  0.723  0.899  0.500-  30 1.41  49 1.43  33 1.43
  49  0.778  0.799  0.500-  47 1.42  44 1.43  48 1.43
  50  0.944  0.899  0.500-  15 1.41  47 1.44  31 1.44
  51  0.232  0.390  0.500-   8 1.37  10 1.41  57 1.90
  52  0.227  0.607  0.500-  12 1.37  13 1.37  57 1.94
  53  0.390  0.291  0.501-   8 1.38  23 1.38  58 1.93
  54  0.606  0.292  0.500-  22 1.38  36 1.38  58 1.99
  55  0.603  0.510  0.501-  24 1.37  40 1.41  58 1.92
  56  0.443  0.606  0.500-  24 1.38  25 1.39  57 1.91
  57  0.337  0.499  0.500-  51 1.90  56 1.91  52 1.94  58 2.31
  58  0.494  0.404  0.501-  55 1.92  53 1.93  54 1.99  57 2.31
 
  LATTYP: Found a triclinic cell.
 ALAT       =    34.4743924350
 B/A-ratio  =     0.3636219627
 C/A-ratio  =     0.5806232879
 COS(alpha) =     0.0000626774
 COS(beta)  =     0.5808981133
 COS(gamma) =     0.7264536231
  
  Lattice vectors:
  
 A1 = (  12.6402789525, -25.0566027459, -20.0218315995)
 A2 = (  -0.0134536753, -12.5356390052,  -0.0006417368)
 A3 = (   0.0063068183,  -0.0002366492, -20.0166340882)


Analysis of symmetry for initial positions (statically):
=====================================================================
 Subroutine PRICEL returns:
 Original cell was already a primitive cell.
 

 Routine SETGRP: Setting up the symmetry group for a 
 triclinic supercell.


 Subroutine GETGRP returns: Found  1 space group operations
 (whereof  1 operations were pure point group operations)
 out of a pool of  2 trial point group operations.


The static configuration has the point symmetry C_1 .


Analysis of symmetry for dynamics (positions and initial velocities):
=====================================================================
 Subroutine PRICEL returns:
 Original cell was already a primitive cell.
 

 Routine SETGRP: Setting up the symmetry group for a 
 triclinic supercell.


 Subroutine GETGRP returns: Found  1 space group operations
 (whereof  1 operations were pure point group operations)
 out of a pool of  2 trial point group operations.


The dynamic configuration has the point symmetry C_1 .


Analysis of structural, dynamic, and magnetic symmetry:
=====================================================================
 Subroutine PRICEL returns:
 Original cell was already a primitive cell.
 

 Routine SETGRP: Setting up the symmetry group for a 
 triclinic supercell.


 Subroutine GETGRP returns: Found  1 space group operations
 (whereof  1 operations were pure point group operations)
 out of a pool of  2 trial point group operations.


The magnetic configuration has the point symmetry C_1 .


 Subroutine INISYM returns: Found  1 space group operations
 (whereof  1 operations are pure point group operations),
 and found     1 'primitive' translations

 
 
 KPOINTS: KPOINTS created by Atomic Simulation Env

Automatic generation of k-mesh.
Space group operators:
 irot       det(A)        alpha          n_x          n_y          n_z        tau_x        tau_y        tau_z
    1     1.000000     0.000000     1.000000     0.000000     0.000000     0.000000     0.000000     0.000000
 
 Subroutine IBZKPT returns following result:
 ===========================================
 
 Found      2 irreducible k-points:
 
 Following reciprocal coordinates:
            Coordinates               Weight
  0.250000  0.250000  0.000000      2.000000
 -0.250000  0.250000  0.000000      2.000000
 
 Following cartesian coordinates:
            Coordinates               Weight
  0.019722  0.019922  0.000006      2.000000
 -0.019769  0.019964 -0.000006      2.000000
 
 
 Subroutine IBZKPT_HF returns following result:
 ==============================================
 
 Found      4 k-points in 1st BZ
 the following      4 k-points will be used (e.g. in the exchange kernel)
 Following reciprocal coordinates:   # in IRBZ
  0.250000  0.250000  0.000000    0.25000000   1 t-inv F
 -0.250000  0.250000  0.000000    0.25000000   2 t-inv F
 -0.250000 -0.250000  0.000000    0.25000000   1 t-inv T
  0.250000 -0.250000 -0.000000    0.25000000   2 t-inv T


--------------------------------------------------------------------------------------------------------




 Dimension of arrays:
   k-points           NKPTS =      2   k-points in BZ     NKDIM =      4   number of bands    NBANDS=    156
   number of dos      NEDOS =    301   number of ions     NIONS =     58
   non local maximal  LDIM  =      6   non local SUM 2l+1 LMDIM =     18
   total plane-waves  NPLWV = ******
   max r-space proj   IRMAX =      1   max aug-charges    IRDMAX=  15698
   dimension x,y,z NGX =    96 NGY =   96 NGZ =  150
   dimension x,y,z NGXF=   192 NGYF=  192 NGZF=  300
   support grid    NGXF=   192 NGYF=  192 NGZF=  300
   ions per type =              50   6   1   1
   NGX,Y,Z   is equivalent  to a cutoff of  12.61, 12.73, 12.46 a.u.
   NGXF,Y,Z  is equivalent  to a cutoff of  25.21, 25.46, 24.92 a.u.

 SYSTEM =  unknown system                          
 POSCAR =   C  N Ni Fe                             

 Startparameter for this run:
   NWRITE =      2    write-flag & timer
   PREC   = accura    normal or accurate (medium, high low for compatibility)
   ISTART =      1    job   : 0-new  1-cont  2-samecut
   ICHARG =      0    charge: 1-file 2-atom 10-const
   ISPIN  =      2    spin polarized calculation?
   LNONCOLLINEAR =      F non collinear calculations
   LSORBIT =      F    spin-orbit coupling
   INIWAV =      1    electr: 0-lowe 1-rand  2-diag
   LASPH  =      T    aspherical Exc in radial PAW
   METAGGA=      F    non-selfconsistent MetaGGA calc.

 Electronic Relaxation 1
   ENCUT  =  500.0 eV  36.75 Ry    6.06 a.u.  23.08 22.86 36.49*2*pi/ulx,y,z
   ENINI  =  500.0     initial cutoff
   ENAUG  =  644.9 eV  augmentation charge cutoff
   NELM   =    250;   NELMIN=  2; NELMDL=  0     # of ELM steps 
   EDIFF  = 0.1E-03   stopping-criterion for ELM
   LREAL  =      F    real-space projection
   NLSPLINE    = F    spline interpolate recip. space projectors
   LCOMPAT=      F    compatible to vasp.4.4
   GGA_COMPAT  = T    GGA compatible to vasp.4.4-vasp.4.6
   LMAXPAW     = -100 max onsite density
   LMAXMIX     =    2 max onsite mixed and CHGCAR
   VOSKOWN=      0    Vosko Wilk Nusair interpolation
   ROPT   =    0.00000   0.00000   0.00000   0.00000
 Ionic relaxation
   EDIFFG = -.3E-01   stopping-criterion for IOM
   NSW    =      0    number of steps for IOM
   NBLOCK =      1;   KBLOCK =      1    inner block; outer block 
   IBRION =     -1    ionic relax: 0-MD 1-quasi-New 2-CG
   NFREE  =      1    steps in history (QN), initial steepest desc. (CG)
   ISIF   =      2    stress and relaxation
   IWAVPR =     10    prediction:  0-non 1-charg 2-wave 3-comb
   ISYM   =      3    0-nonsym 1-usesym 2-fastsym
   LCORR  =      T    Harris-Foulkes like correction to forces

   POTIM  = 0.5000    time-step for ionic-motion
   TEIN   =    0.0    initial temperature
   TEBEG  =    0.0;   TEEND  =   0.0 temperature during run
   SMASS  =  -3.00    Nose mass-parameter (am)
   estimated Nose-frequenzy (Omega)   =  0.10E-29 period in steps =****** mass=  -0.366E-26a.u.
   SCALEE = 1.0000    scale energy and forces
   NPACO  =    256;   APACO  = 16.0  distance and # of slots for P.C.
   PSTRESS=    0.0 pullay stress

  Mass of Ions in am
   POMASS =  12.01 14.00 58.69 55.85
  Ionic Valenz
   ZVAL   =   4.00  5.00 10.00  8.00
  Atomic Wigner-Seitz radii
   RWIGS  =  -1.00 -1.00 -1.00 -1.00
  virtual crystal weights 
   VCA    =   1.00  1.00  1.00  1.00
   NELECT =     248.0000    total number of electrons
   NUPDOWN=      -1.0000    fix difference up-down

 DOS related values:
   EMIN   =  10.00;   EMAX   =-10.00  energy-range for DOS
   EFERMI =   0.00
   ISMEAR =     0;   SIGMA  =   0.10  broadening in eV -4-tet -1-fermi 0-gaus

 Electronic relaxation 2 (details)
   IALGO  =     53    algorithm
   LDIAG  =      T    sub-space diagonalisation (order eigenvalues)
   LSUBROT=      F    optimize rotation matrix (better conditioning)
   TURBO    =      0    0=normal 1=particle mesh
   IRESTART =      0    0=no restart 2=restart with 2 vectors
   NREBOOT  =      0    no. of reboots
   NMIN     =      0    reboot dimension
   EREF     =   0.00    reference energy to select bands
   IMIX   =      4    mixing-type and parameters
     AMIX     =   0.40;   BMIX     =  1.00
     AMIX_MAG =   1.60;   BMIX_MAG =  1.00
     AMIN     =   0.10
     WC   =   100.;   INIMIX=   1;  MIXPRE=   1;  MAXMIX= -45

 Intra band minimization:
   WEIMIN = 0.0000     energy-eigenvalue tresh-hold
   EBREAK =  0.16E-06  absolut break condition
   DEPER  =   0.30     relativ break condition  

   TIME   =   0.20     timestep for ELM

  volume/ion in A,a.u.               =      54.77       369.63
  Fermi-wavevector in a.u.,A,eV,Ry     =   0.699668  1.322180  6.660525  0.489535
  Thomas-Fermi vector in A             =   1.783610
 
 Write flags
   LWAVE        =      T    write WAVECAR
   LDOWNSAMPLE  =      F    k-point downsampling of WAVECAR
   LCHARG       =      T    write CHGCAR
   LVTOT        =      F    write LOCPOT, total local potential
   LVHAR        =      T    write LOCPOT, Hartree potential only
   LELF         =      F    write electronic localiz. function (ELF)
   LORBIT       =     11    0 simple, 1 ext, 2 COOP (PROOUT), +10 PAW based schemes


 Dipole corrections
   LMONO  =      F    monopole corrections only (constant potential shift)
   LDIPOL =      T    correct potential (dipole corrections)
   IDIPOL =      3    1-x, 2-y, 3-z, 4-all directions 
   EPSILON=  1.0000000 bulk dielectric constant

 Exchange correlation treatment:
   GGA     =    PE    GGA type
   LEXCH   =     8    internal setting for exchange type
   VOSKOWN=      0    Vosko Wilk Nusair interpolation
   EXXOEP  =     0    0=HF, 1=EXX-LHF (local Hartree Fock) 2=EXX OEP
   LHFCALC =     T    Hartree Fock is set to
   LSYMGRAD=     F    symmetrize gradient (conserves proper symmetry)
   PRECFOCK=normal    Normal, Fast or Accurate (Low or Medium for compatibility)
   LRHFCALC=     F    long range Hartree Fock
   LRSCOR  =     F    long range correlation only (use DFT for short range part)
   LTHOMAS =     F    Thomas Fermi screening in HF
   LMODELHF=     F    short range full HF, long range fraction AEXX
   ENCUT4O =  -1.0   cutoff for four orbital integrals eV
   LMAXFOCK=     4    L truncation for augmentation on plane wave grid
   LMAXFOCKAE=  -1    L truncation for all-electron charge restoration on plane wave grid
   NMAXFOCKAE=   1    number of basis functions for all-electron charge restoration
   LFOCKAEDFT=     F  apply the AE augmentation even for DFT
   NKREDX  =     1    reduce k-point grid by
   NKREDY  =     1    reduce k-point grid by
   NKREDZ  =     1    reduce k-point grid by
   SHIFTRED=     F    shift reduced grid of Gamma
   HFKIDENT=     F    idential grid for each k-point
   ODDONLY =     F    use only odd q-grid points
   EVENONLY=     F    use only even q-grid points
   HFALPHA =   -1.0000 decay constant for conv. correction
   MCALPHA =    0.0000 extent of test-charge in conv. correction in multipole expansion
   AEXX    =    0.2500 exact exchange contribution
   HFSCREEN=    0.2000 screening length (either q_TF or 0.3 A-1)
   HFSCREENC=   0.2000 screening length for correlation (either q_TF or 0.3 A-1)
   HFRCUT  =    0.0000 spherical cutoff for potential kernel
   ALDAX   =    0.7500 LDA exchange part
   AGGAX   =    0.7500 GGA exchange part
   ALDAC   =    1.0000 LDA correlation
   AGGAC   =    1.0000 GGA correlation
   ENCUTFOCK=  -1.0 apply spherical cutoff to Coloumb kernel
   NBANDSGWLOW=     1    first orbital included in HF term
   NBLOCK_FOCK=    64    blocking factor in FOCK_ACC
 Linear response parameters
   LEPSILON=     F    determine dielectric tensor
   LRPA    =     F    only Hartree local field effects (RPA)
   LNABLA  =     F    use nabla operator in PAW spheres
   LVEL    =     F    velocity operator in full k-point grid
   LINTERFAST=   F  fast interpolation
   KINTER  =     0    interpolate to denser k-point grid
   CSHIFT  =0.1000    complex shift for real part using Kramers Kronig
   OMEGAMAX=  -1.0    maximum frequency
   DEG_THRESHOLD= 0.2000000E-02 threshold for treating states as degnerate
   RTIME   =   -0.100 relaxation time in fs
  (WPLASMAI=    0.000 imaginary part of plasma frequency in eV, 0.658/RTIME)
   DFIELD  = 0.0000000 0.0000000 0.0000000 field for delta impulse in time
 
 Orbital magnetization related:
   ORBITALMAG=     F  switch on orbital magnetization
   LCHIMAG   =     F  perturbation theory with respect to B field
   DQ        =  0.001000  dq finite difference perturbation B field
   LLRAUG    =     F  two centre corrections for induced B field



--------------------------------------------------------------------------------------------------------


 Static calculation
 charge density and potential will be updated during run
 spin polarized calculation
 Conjugate gradient for all bands (Freysoldt, et al. PRB 79, 241103 (2009))
 perform sub-space diagonalisation
    before iterative eigenvector-optimisation
 modified Broyden-mixing scheme, WC =      100.0
 initial mixing is a Kerker type mixing with AMIX =  0.4000 and BMIX =      1.0000
 Hartree-type preconditioning will be used
 using additional bands           32
 reciprocal scheme for non local part
 use partial core corrections
 no Harris-corrections to forces 
 use gradient corrections 
 use of overlap-Matrix (Vanderbilt PP)
 Gauss-broadening in eV      SIGMA  =   0.10


--------------------------------------------------------------------------------------------------------


  energy-cutoff  :      500.00
  volume of cell :     3176.88
      direct lattice vectors                 reciprocal lattice vectors
    12.660879485  0.014911914 -0.003914038     0.078983562 -0.000084769  0.000024887
     0.013453675 12.535639005  0.000641737    -0.000093956  0.079772660 -0.000000973
    -0.006306818  0.000236649 20.016634088     0.000015447 -0.000002574  0.049958454

  length of vectors
    12.660888871 12.535646241 20.016635083     0.078983612  0.079772715  0.049958457


 
 old parameters found on file WAVECAR:
  energy-cutoff  :      500.00
  volume of cell :     3176.88
      direct lattice vectors                 reciprocal lattice vectors
    12.810000000  0.000000000  0.000000000     0.078064012  0.000000000  0.000000000
     0.000000000 12.400000000  0.000000000     0.000000000  0.080645161  0.000000000
     0.000000000  0.000000000 20.000000000     0.000000000  0.000000000  0.050000000

  length of vectors

 
 k-points in units of 2pi/SCALE and weight: KPOINTS created by Atomic Simulation Env
   0.01972240  0.01992197  0.00000598       0.500
  -0.01976938  0.01996436 -0.00000646       0.500
 
 k-points in reciprocal lattice and weights: KPOINTS created by Atomic Simulation Env
   0.25000000  0.25000000  0.00000000       0.500
  -0.25000000  0.25000000  0.00000000       0.500
 
 position of ions in fractional coordinates (direct lattice) 
   0.22159603  0.99882776  0.49994058
   0.05520149  0.09980632  0.49995613
   0.11008116  0.99970102  0.49995932
   0.27729981  0.09653907  0.50001737
   0.22302076  0.19560681  0.50007687
   0.05816460  0.30044494  0.49997479
   0.11113274  0.19897282  0.49996816
   0.28153365  0.29224367  0.50024374
   0.06430886  0.49805270  0.50004016
   0.12103645  0.39698569  0.50000153
   0.05809944  0.69911539  0.49995418
   0.11875366  0.60092753  0.50006977
   0.27760560  0.70342620  0.50015777
   0.22269245  0.80166587  0.50003416
   0.05560536  0.89967440  0.49998421
   0.11098621  0.80008452  0.49999282
   0.27755177  0.90029699  0.49996343
   0.55607525  0.99844713  0.49992461
   0.38896345  0.09610893  0.50003727
   0.44490504  0.99804886  0.49991664
   0.61091144  0.09720034  0.49993272
   0.55559112  0.19499299  0.50000142
   0.44310084  0.19421977  0.50026678
   0.55204548  0.60687342  0.50013065
   0.39032150  0.70350666  0.50011095
   0.61064069  0.70346196  0.49993035
   0.55622521  0.80222014  0.49990076
   0.38873576  0.90013234  0.49994073
   0.44452129  0.80187003  0.49998292
   0.61199385  0.90005045  0.49992286
   0.88933249  0.99994991  0.50000614
   0.72266865  0.09916566  0.49996215
   0.77797407  0.99963702  0.49999293
   0.94323386  0.10060807  0.49998512
   0.88821733  0.20132603  0.50000653
   0.71474977  0.29852967  0.49998404
   0.77547956  0.20041110  0.50001327
   0.94414168  0.30163980  0.49998489
   0.88619750  0.40083440  0.49999856
   0.71429271  0.50274740  0.50013850
   0.76980326  0.40117631  0.50005464
   0.94797411  0.49835788  0.49998050
   0.89016263  0.59777773  0.49992209
   0.72268861  0.70025603  0.49995679
   0.77638690  0.59910406  0.49994763
   0.94558293  0.69820020  0.49993612
   0.89037954  0.79875830  0.49998775
   0.72346847  0.89944193  0.49997954
   0.77840995  0.79942050  0.49998288
   0.94426122  0.89941936  0.50000450
   0.23238241  0.38976753  0.49996522
   0.22683379  0.60673359  0.50030893
   0.39038906  0.29103925  0.50060468
   0.60593791  0.29241408  0.49987431
   0.60326223  0.51018992  0.50061136
   0.44286030  0.60642822  0.50006027
   0.33689155  0.49851001  0.49965629
   0.49362653  0.40427134  0.50126072
 
 position of ions in cartesian coordinates  (Angst):
   2.81588548 12.52436695 10.00690137
   0.69708903  1.25207750 10.00728692
   1.40402081 12.53365099 10.00771337
   3.50900474  1.21443237 10.00764137
   2.82311668  2.45550034 10.00910835
   0.73730382  3.76725502 10.00777761
   1.40656199  2.49602694 10.00737248
   3.56524038  3.66777774 10.01228143
   0.81775370  6.24448617 10.00918885
   1.53461542  4.97839247 10.00812860
   0.74184261  8.76484287 10.00762118
   1.50845666  7.53489979 10.00963434
   3.52104027  8.82215496 10.01083993
   2.82711405 10.05283306 10.00864363
   0.71296342 11.27894097 10.00836066
   1.41279377 10.03134409 10.00825241
   3.52300866 11.29005525 10.00707654
   7.05068152 12.52458325 10.00527220
   4.92275879  1.21070535 10.00760241
   5.64316364 12.51793293 10.00554747
   7.73283078  1.22769650 10.00464151
   7.03374217  2.45276494 10.00629597
   5.60950417  2.44139478 10.01204740
   6.99439171  7.61589650 10.00916095
   4.94812417  8.82484429 10.00946169
   7.73755942  8.82756931 10.00498431
   7.04994042 10.06475471 10.00466833
   4.93069365 11.28964917 10.00618679
   5.63566533 10.05870026 10.00674989
   7.75733643 11.29195179 10.00495525
  11.27003107 12.54839112 10.00560076
   9.14780161  1.25399954 10.00479459
   9.86013142 12.54280816 10.00577200
  11.94037041  1.27537019 10.00439183
  11.24516767  2.53711374 10.00510037
   9.05022374  3.75303677 10.00539156
   9.81779603  2.52396346 10.00567604
  11.95456891  3.79544490 10.00451269
  11.22227900  5.03804852 10.00507675
   9.04718342  6.31302974 10.00861612
   9.74862986  5.04059896 10.00665524
  12.00573742  6.26148893 10.00453614
  11.27513111  7.50691811 10.00365698
   9.15614127  8.78905182 10.00507287
   9.83464800  7.52184791 10.00461442
  11.97815189  8.76660436 10.00378536
  11.28058092 10.02634128 10.00509953
   9.16869467 11.28598591 10.00565308
   9.86295643 10.03297269 10.00544066
  11.96412460 11.28899548 10.00528839
   2.94425631  4.88956862 10.00696137
   2.87692274  7.60929423 10.01400234
   4.94342710  3.65430284 10.01907952
   7.67248830  3.67475137 10.00361710
   7.64153706  6.40467093 10.01852067
   5.61200582  7.60868747 10.00817929
   4.26889888  6.25428346 10.00043850
   6.25202360  5.07527911 10.03187981
 


--------------------------------------------------------------------------------------------------------


 k-point  1 :   0.2500 0.2500 0.0000  plane waves:   80665
 k-point  2 :  -0.2500 0.2500 0.0000  plane waves:   80663

 maximum and minimum number of plane-waves per node :      2048     1982

 maximum number of plane-waves:     80665
 maximum index in each direction: 
   IXMAX=   23   IYMAX=   22   IZMAX=   36
   IXMIN=  -23   IYMIN=  -23   IZMIN=  -36


 parallel 3D FFT for wavefunctions:
    minimum data exchange during FFTs selected (reduces bandwidth)
 parallel 3D FFT for charge:
    minimum data exchange during FFTs selected (reduces bandwidth)


 FFT grid for exact exchange (Hartree Fock) 
  NGX = 70; NGY = 70; NGZ =112

 
 Radii for the augmentation spheres in the non-local exchange
 for species   1 augmentation radius   0.874 (default was   0.699)
       energy cutoff for augmentation   2000.0
 for species   2 augmentation radius   0.886 (default was   0.709)
       energy cutoff for augmentation   2000.0
 for species   3 augmentation radius   1.224 (default was   0.979)
       energy cutoff for augmentation   2000.0
 for species   4 augmentation radius   1.263 (default was   1.010)
       energy cutoff for augmentation   2000.0

 real space projection operators:
  total allocation   :       2432.22 KBytes
  max/ min on nodes  :         88.30         42.81

 Maximum index for augmentation-charges in exchange           70
  SETUP_FOCK is finished

 total amount of memory used by VASP MPI-rank0   141407. kBytes
=======================================================================

   base      :      30000. kBytes
   nonl-proj :       4276. kBytes
   fftplans  :      11851. kBytes
   grid      :      31266. kBytes
   one-center:         62. kBytes
   HF        :         23. kBytes
   nonlr-proj:       1571. kBytes
   wavefun   :      62358. kBytes
 
     INWAV:  cpu time    4.1172: real time    4.1289
 Broyden mixing: mesh for mixing (old mesh)
   NGX = 47   NGY = 45   NGZ = 73
  (NGX  =192   NGY  =192   NGZ  =300)
  gives a total of 154395 points

 charge density for first step will be calculated from the start-wavefunctions


--------------------------------------------------------------------------------------------------------


 Maximum index for augmentation-charges          337 (set IRDMAX)


--------------------------------------------------------------------------------------------------------


 initial charge from wavefunction
 First call to EWALD:  gamma=   0.121
 Maximum number of real-space cells 3x 3x 2
 Maximum number of reciprocal cells 2x 2x 4

    FEWALD:  cpu time    0.0029: real time    0.0029


--------------------------------------- Iteration      1(   1)  ---------------------------------------


    POTLOK:  cpu time    0.9018: real time    0.9047
    SETDIJ:  cpu time    0.9984: real time    1.0012
    TRIAL :  cpu time  163.5459: real time  164.7297
    CORREC:  cpu time    0.0008: real time    0.0008
    CHARGE:  cpu time    0.7577: real time    0.7598
    --------------------------------------------
      LOOP:  cpu time  166.2255: real time  167.4195

 eigenvalue-minimisations  :     0
 total energy-change (2. order) :-0.6052209E+03  (-0.4654669E+00)
 number of electron     247.9999993 magnetization       2.4839907
 augmentation part       16.4592034 magnetization       1.9152298

 DIPCOR: dipole corrections for dipol
 direction  3 min pos     1,
 dipolmoment           0.000003     -0.000000     -0.008537 electrons x Angstroem
 Tr[quadrupol]     -6746.086083

 energy correction for charged system         0.000000 eV
 dipol+quadrupol energy correction            0.000002 eV
 added-field ion interaction          0.000000 eV  (added to PSCEN)


 Free energy of the ion-electron system (eV)
  ---------------------------------------------------
  alpha Z        PSCENC =       100.97742183
  Ewald energy   TEWEN  =     40724.12382440
  -Hartree energ DENC   =    -49813.44815303
  -exchange      EXHF   =       568.66809366
  -V(xc)+E(xc)   XCENC  =       647.69886239
  PAW double counting   =     27061.66013956   -27163.17817265
  entropy T*S    EENTRO =        -0.03605953
  eigenvalues    EBANDS =     -3234.86165376
  atomic energy  EATOM  =     10503.17556706
  ---------------------------------------------------
  free energy    TOTEN  =      -605.22089339 eV

  energy without entropy =     -605.18483386  energy(sigma->0) =     -605.20286363
  exchange ACFDT corr.  =        -0.07791754  see jH, gK, PRB 81, 115126


--------------------------------------------------------------------------------------------------------




--------------------------------------- Iteration      1(   2)  ---------------------------------------


    POTLOK:  cpu time    0.9155: real time    0.9189
    SETDIJ:  cpu time    0.9628: real time    0.9655
    TRIAL :  cpu time  164.7040: real time  165.1952
    CORREC:  cpu time    0.0008: real time    0.0008
    CHARGE:  cpu time    0.7556: real time    0.7577
    --------------------------------------------
      LOOP:  cpu time  167.3418: real time  167.8429

 eigenvalue-minimisations  :     0
 total energy-change (2. order) :-0.3565194E+00  (-0.3909805E+00)
 number of electron     247.9999993 magnetization       2.4961802
 augmentation part       16.4110435 magnetization       1.9566108

 DIPCOR: dipole corrections for dipol
 direction  3 min pos     1,
 dipolmoment           0.000003     -0.000000     -0.009585 electrons x Angstroem
 Tr[quadrupol]     -6745.952239

 energy correction for charged system         0.000000 eV
 dipol+quadrupol energy correction            0.000003 eV
 added-field ion interaction          0.000000 eV  (added to PSCEN)


 Free energy of the ion-electron system (eV)
  ---------------------------------------------------
  alpha Z        PSCENC =       100.97742238
  Ewald energy   TEWEN  =     40724.12382440
  -Hartree energ DENC   =    -49807.03986643
  -exchange      EXHF   =       568.62799183
  -V(xc)+E(xc)   XCENC  =       647.45366906
  PAW double counting   =     27194.09702792   -27296.58511937
  entropy T*S    EENTRO =        -0.03646800
  eigenvalues    EBANDS =     -3240.37187006
  atomic energy  EATOM  =     10503.17556706
  ---------------------------------------------------
  free energy    TOTEN  =      -605.57741275 eV

  energy without entropy =     -605.54094476  energy(sigma->0) =     -605.55917876
  exchange ACFDT corr.  =        -0.11589615  see jH, gK, PRB 81, 115126


--------------------------------------------------------------------------------------------------------




--------------------------------------- Iteration      1(   3)  ---------------------------------------


    POTLOK:  cpu time    0.9274: real time    0.9301
    SETDIJ:  cpu time    0.9862: real time    0.9887
    TRIAL :  cpu time  163.2701: real time  163.7561
    CORREC:  cpu time    0.0009: real time    0.0009
    CHARGE:  cpu time    0.7536: real time    0.7557
    --------------------------------------------
      LOOP:  cpu time  165.9400: real time  166.4371

 eigenvalue-minimisations  :     0
 total energy-change (2. order) :-0.3077692E+00  (-0.2371661E+00)
 number of electron     247.9999993 magnetization       2.5188860
 augmentation part       16.3762845 magnetization       1.9982858

 DIPCOR: dipole corrections for dipol
 direction  3 min pos     1,
 dipolmoment           0.000003     -0.000000     -0.009972 electrons x Angstroem
 Tr[quadrupol]     -6745.771738

 energy correction for charged system         0.000000 eV
 dipol+quadrupol energy correction            0.000003 eV
 added-field ion interaction          0.000000 eV  (added to PSCEN)


 Free energy of the ion-electron system (eV)
  ---------------------------------------------------
  alpha Z        PSCENC =       100.97742259
  Ewald energy   TEWEN  =     40724.12382440
  -Hartree energ DENC   =    -49789.23721981
  -exchange      EXHF   =       568.51688796
  -V(xc)+E(xc)   XCENC  =       647.03034980
  PAW double counting   =     27346.33167646   -27447.67517023
  entropy T*S    EENTRO =        -0.03722205
  eigenvalues    EBANDS =     -3259.09205216
  atomic energy  EATOM  =     10503.17556706
  ---------------------------------------------------
  free energy    TOTEN  =      -605.88518192 eV

  energy without entropy =     -605.84795986  energy(sigma->0) =     -605.86657089
  exchange ACFDT corr.  =        -0.07131881  see jH, gK, PRB 81, 115126


--------------------------------------------------------------------------------------------------------




--------------------------------------- Iteration      1(   4)  ---------------------------------------


    POTLOK:  cpu time    0.9316: real time    0.9355
    SETDIJ:  cpu time    0.9699: real time    0.9725
    TRIAL :  cpu time  164.1994: real time  164.6959
    CORREC:  cpu time    0.0009: real time    0.0009
    CHARGE:  cpu time    0.7529: real time    0.7551
    --------------------------------------------
      LOOP:  cpu time  166.8567: real time  167.3663

 eigenvalue-minimisations  :     0
 total energy-change (2. order) :-0.1846449E+00  (-0.1609394E+00)
 number of electron     247.9999992 magnetization       2.5376947
 augmentation part       16.3897839 magnetization       2.0280872

 DIPCOR: dipole corrections for dipol
 direction  3 min pos     1,
 dipolmoment           0.000003     -0.000000     -0.009646 electrons x Angstroem
 Tr[quadrupol]     -6745.692216

 energy correction for charged system         0.000000 eV
 dipol+quadrupol energy correction            0.000003 eV
 added-field ion interaction          0.000000 eV  (added to PSCEN)


 Free energy of the ion-electron system (eV)
  ---------------------------------------------------
  alpha Z        PSCENC =       100.97742241
  Ewald energy   TEWEN  =     40724.12382440
  -Hartree energ DENC   =    -49778.99411942
  -exchange      EXHF   =       568.61417337
  -V(xc)+E(xc)   XCENC  =       646.82978864
  PAW double counting   =     27479.34651196   -27579.76913489
  entropy T*S    EENTRO =        -0.03806105
  eigenvalues    EBANDS =     -3270.33663830
  atomic energy  EATOM  =     10503.17556706
  ---------------------------------------------------
  free energy    TOTEN  =      -606.06982682 eV

  energy without entropy =     -606.03176577  energy(sigma->0) =     -606.05079630
  exchange ACFDT corr.  =        -0.09661239  see jH, gK, PRB 81, 115126


--------------------------------------------------------------------------------------------------------




--------------------------------------- Iteration      1(   5)  ---------------------------------------


    POTLOK:  cpu time    0.9400: real time    0.9450
    SETDIJ:  cpu time    0.9677: real time    0.9702
    TRIAL :  cpu time  163.7146: real time  164.2006
    CORREC:  cpu time    0.0008: real time    0.0008
    CHARGE:  cpu time    0.7548: real time    0.7568
    --------------------------------------------
      LOOP:  cpu time  166.3824: real time  166.8813

 eigenvalue-minimisations  :     0
 total energy-change (2. order) :-0.1366053E+00  (-0.1255622E+00)
 number of electron     247.9999992 magnetization       2.5622221
 augmentation part       16.4059899 magnetization       2.0533149

 DIPCOR: dipole corrections for dipol
 direction  3 min pos     1,
 dipolmoment           0.000003     -0.000000     -0.009129 electrons x Angstroem
 Tr[quadrupol]     -6745.724711

 energy correction for charged system         0.000000 eV
 dipol+quadrupol energy correction            0.000002 eV
 added-field ion interaction          0.000000 eV  (added to PSCEN)


 Free energy of the ion-electron system (eV)
  ---------------------------------------------------
  alpha Z        PSCENC =       100.97742213
  Ewald energy   TEWEN  =     40724.12382440
  -Hartree energ DENC   =    -49781.01827886
  -exchange      EXHF   =       568.94918915
  -V(xc)+E(xc)   XCENC  =       646.93889887
  PAW double counting   =     27582.71398139   -27683.50283940
  entropy T*S    EENTRO =        -0.03900998
  eigenvalues    EBANDS =     -3268.52613581
  atomic energy  EATOM  =     10503.17556706
  ---------------------------------------------------
  free energy    TOTEN  =      -606.20643210 eV

  energy without entropy =     -606.16742212  energy(sigma->0) =     -606.18692711
  exchange ACFDT corr.  =        -0.08531431  see jH, gK, PRB 81, 115126


--------------------------------------------------------------------------------------------------------




--------------------------------------- Iteration      1(   6)  ---------------------------------------


    POTLOK:  cpu time    0.9401: real time    0.9452
    SETDIJ:  cpu time    0.9720: real time    0.9746
    TRIAL :  cpu time  163.5994: real time  164.0877
    CORREC:  cpu time    0.0008: real time    0.0008
    CHARGE:  cpu time    0.7544: real time    0.7565
    --------------------------------------------
      LOOP:  cpu time  166.2681: real time  166.7698

 eigenvalue-minimisations  :     0
 total energy-change (2. order) :-0.1108728E+00  (-0.1079472E+00)
 number of electron     247.9999992 magnetization       2.5889974
 augmentation part       16.4082681 magnetization       2.0756046

 DIPCOR: dipole corrections for dipol
 direction  3 min pos     1,
 dipolmoment           0.000003     -0.000000     -0.008570 electrons x Angstroem
 Tr[quadrupol]     -6745.786873

 energy correction for charged system         0.000000 eV
 dipol+quadrupol energy correction            0.000002 eV
 added-field ion interaction          0.000000 eV  (added to PSCEN)


 Free energy of the ion-electron system (eV)
  ---------------------------------------------------
  alpha Z        PSCENC =       100.97742185
  Ewald energy   TEWEN  =     40724.12382440
  -Hartree energ DENC   =    -49785.78366594
  -exchange      EXHF   =       569.32107549
  -V(xc)+E(xc)   XCENC  =       647.13104783
  PAW double counting   =     27651.95324464   -27753.17401432
  entropy T*S    EENTRO =        -0.03987765
  eigenvalues    EBANDS =     -3264.00279593
  atomic energy  EATOM  =     10503.17556706
  ---------------------------------------------------
  free energy    TOTEN  =      -606.31730489 eV

  energy without entropy =     -606.27742724  energy(sigma->0) =     -606.29736607
  exchange ACFDT corr.  =        -0.07388135  see jH, gK, PRB 81, 115126


--------------------------------------------------------------------------------------------------------




--------------------------------------- Iteration      1(   7)  ---------------------------------------


    POTLOK:  cpu time    0.9327: real time    0.9356
    SETDIJ:  cpu time    0.9665: real time    0.9690
    TRIAL :  cpu time  163.4585: real time  163.9501
    CORREC:  cpu time    0.0008: real time    0.0008
    CHARGE:  cpu time    0.7583: real time    0.7603
    --------------------------------------------
      LOOP:  cpu time  166.1195: real time  166.6226

 eigenvalue-minimisations  :     0
 total energy-change (2. order) :-0.9802698E-01  (-0.9501946E-01)
 number of electron     247.9999992 magnetization       2.6131696
 augmentation part       16.4072713 magnetization       2.0941849

 DIPCOR: dipole corrections for dipol
 direction  3 min pos     1,
 dipolmoment           0.000003     -0.000000     -0.008015 electrons x Angstroem
 Tr[quadrupol]     -6745.832020

 energy correction for charged system         0.000000 eV
 dipol+quadrupol energy correction            0.000002 eV
 added-field ion interaction          0.000000 eV  (added to PSCEN)


 Free energy of the ion-electron system (eV)
  ---------------------------------------------------
  alpha Z        PSCENC =       100.97742159
  Ewald energy   TEWEN  =     40724.12382440
  -Hartree energ DENC   =    -49788.49725441
  -exchange      EXHF   =       569.62210964
  -V(xc)+E(xc)   XCENC  =       647.27727229
  PAW double counting   =     27693.13043522   -27794.37160742
  entropy T*S    EENTRO =        -0.04058160
  eigenvalues    EBANDS =     -3261.81322258
  atomic energy  EATOM  =     10503.17556706
  ---------------------------------------------------
  free energy    TOTEN  =      -606.41533187 eV

  energy without entropy =     -606.37475027  energy(sigma->0) =     -606.39504107
  exchange ACFDT corr.  =        -0.06337445  see jH, gK, PRB 81, 115126


--------------------------------------------------------------------------------------------------------




--------------------------------------- Iteration      1(   8)  ---------------------------------------


    POTLOK:  cpu time    0.9227: real time    0.9278
    SETDIJ:  cpu time    0.9651: real time    0.9676
    TRIAL :  cpu time  163.0550: real time  163.5409
    CORREC:  cpu time    0.0009: real time    0.0010
    CHARGE:  cpu time    0.7553: real time    0.7573
    --------------------------------------------
      LOOP:  cpu time  165.7006: real time  166.2002

 eigenvalue-minimisations  :     0
 total energy-change (2. order) :-0.8649030E-01  (-0.8346704E-01)
 number of electron     247.9999992 magnetization       2.6332479
 augmentation part       16.4108681 magnetization       2.1092918

 DIPCOR: dipole corrections for dipol
 direction  3 min pos     1,
 dipolmoment           0.000002     -0.000000     -0.007566 electrons x Angstroem
 Tr[quadrupol]     -6745.856104

 energy correction for charged system         0.000000 eV
 dipol+quadrupol energy correction            0.000002 eV
 added-field ion interaction          0.000000 eV  (added to PSCEN)


 Free energy of the ion-electron system (eV)
  ---------------------------------------------------
  alpha Z        PSCENC =       100.97742139
  Ewald energy   TEWEN  =     40724.12382440
  -Hartree energ DENC   =    -49789.79048145
  -exchange      EXHF   =       569.85576375
  -V(xc)+E(xc)   XCENC  =       647.38147936
  PAW double counting   =     27716.83613661   -27818.03182922
  entropy T*S    EENTRO =        -0.04111722
  eigenvalues    EBANDS =     -3260.98912246
  atomic energy  EATOM  =     10503.17556706
  ---------------------------------------------------
  free energy    TOTEN  =      -606.50182217 eV

  energy without entropy =     -606.46070495  energy(sigma->0) =     -606.48126356
  exchange ACFDT corr.  =        -0.05483411  see jH, gK, PRB 81, 115126


--------------------------------------------------------------------------------------------------------




--------------------------------------- Iteration      1(   9)  ---------------------------------------


    POTLOK:  cpu time    0.9194: real time    0.9224
    SETDIJ:  cpu time    0.9781: real time    0.9808
    TRIAL :  cpu time  163.4434: real time  163.9313
    CORREC:  cpu time    0.0008: real time    0.0008
    CHARGE:  cpu time    0.7548: real time    0.7567
    --------------------------------------------
      LOOP:  cpu time  166.0985: real time  166.5973

 eigenvalue-minimisations  :     0
 total energy-change (2. order) :-0.7618553E-01  (-0.7224654E-01)
 number of electron     247.9999992 magnetization       2.6500078
 augmentation part       16.4160626 magnetization       2.1218545

 DIPCOR: dipole corrections for dipol
 direction  3 min pos     1,
 dipolmoment           0.000002     -0.000000     -0.007225 electrons x Angstroem
 Tr[quadrupol]     -6745.867889

 energy correction for charged system         0.000000 eV
 dipol+quadrupol energy correction            0.000001 eV
 added-field ion interaction          0.000000 eV  (added to PSCEN)


 Free energy of the ion-electron system (eV)
  ---------------------------------------------------
  alpha Z        PSCENC =       100.97742124
  Ewald energy   TEWEN  =     40724.12382440
  -Hartree energ DENC   =    -49790.80113425
  -exchange      EXHF   =       570.04553643
  -V(xc)+E(xc)   XCENC  =       647.46745137
  PAW double counting   =     27731.26289257   -27832.58153447
  entropy T*S    EENTRO =        -0.04149013
  eigenvalues    EBANDS =     -3260.20691483
  atomic energy  EATOM  =     10503.17556706
  ---------------------------------------------------
  free energy    TOTEN  =      -606.57800770 eV

  energy without entropy =     -606.53651756  energy(sigma->0) =     -606.55726263
  exchange ACFDT corr.  =        -0.04861209  see jH, gK, PRB 81, 115126


--------------------------------------------------------------------------------------------------------




--------------------------------------- Iteration      1(  10)  ---------------------------------------


    POTLOK:  cpu time    0.9176: real time    0.9203
    SETDIJ:  cpu time    0.9688: real time    0.9713
    TRIAL :  cpu time  163.5078: real time  163.9943
    CORREC:  cpu time    0.0008: real time    0.0008
    CHARGE:  cpu time    0.7526: real time    0.7548
    --------------------------------------------
      LOOP:  cpu time  166.1492: real time  166.6463

 eigenvalue-minimisations  :     0
 total energy-change (2. order) :-0.6570978E-01  (-0.6116766E-01)
 number of electron     247.9999992 magnetization       2.6645404
 augmentation part       16.4194608 magnetization       2.1323911

 DIPCOR: dipole corrections for dipol
 direction  3 min pos     1,
 dipolmoment           0.000002     -0.000000     -0.006929 electrons x Angstroem
 Tr[quadrupol]     -6745.873084

 energy correction for charged system         0.000000 eV
 dipol+quadrupol energy correction            0.000001 eV
 added-field ion interaction          0.000000 eV  (added to PSCEN)


 Free energy of the ion-electron system (eV)
  ---------------------------------------------------
  alpha Z        PSCENC =       100.97742112
  Ewald energy   TEWEN  =     40724.12382440
  -Hartree energ DENC   =    -49791.46625072
  -exchange      EXHF   =       570.19919676
  -V(xc)+E(xc)   XCENC  =       647.53525560
  PAW double counting   =     27740.37351924   -27841.86364933
  entropy T*S    EENTRO =        -0.04171852
  eigenvalues    EBANDS =     -3259.65711148
  atomic energy  EATOM  =     10503.17556706
  ---------------------------------------------------
  free energy    TOTEN  =      -606.64371748 eV

  energy without entropy =     -606.60199896  energy(sigma->0) =     -606.62285822
  exchange ACFDT corr.  =        -0.04444399  see jH, gK, PRB 81, 115126


--------------------------------------------------------------------------------------------------------




--------------------------------------- Iteration      1(  11)  ---------------------------------------


    POTLOK:  cpu time    0.9171: real time    0.9209
    SETDIJ:  cpu time    0.9744: real time    0.9781
    TRIAL :  cpu time  162.9871: real time  163.4776
    CORREC:  cpu time    0.0009: real time    0.0009
    CHARGE:  cpu time    0.7524: real time    0.7545
    --------------------------------------------
      LOOP:  cpu time  165.6336: real time  166.1377

 eigenvalue-minimisations  :     0
 total energy-change (2. order) :-0.5564155E-01  (-0.5117496E-01)
 number of electron     247.9999992 magnetization       2.6770125
 augmentation part       16.4212761 magnetization       2.1407861

 DIPCOR: dipole corrections for dipol
 direction  3 min pos     1,
 dipolmoment           0.000002     -0.000000     -0.006663 electrons x Angstroem
 Tr[quadrupol]     -6745.875377

 energy correction for charged system         0.000000 eV
 dipol+quadrupol energy correction            0.000001 eV
 added-field ion interaction          0.000000 eV  (added to PSCEN)


 Free energy of the ion-electron system (eV)
  ---------------------------------------------------
  alpha Z        PSCENC =       100.97742102
  Ewald energy   TEWEN  =     40724.12382440
  -Hartree energ DENC   =    -49791.70144518
  -exchange      EXHF   =       570.32458292
  -V(xc)+E(xc)   XCENC  =       647.58618747
  PAW double counting   =     27746.27989813   -27847.87372564
  entropy T*S    EENTRO =        -0.04183075
  eigenvalues    EBANDS =     -3259.54995068
  atomic energy  EATOM  =     10503.17556706
  ---------------------------------------------------
  free energy    TOTEN  =      -606.69935903 eV

  energy without entropy =     -606.65752828  energy(sigma->0) =     -606.67844365
  exchange ACFDT corr.  =        -0.03602854  see jH, gK, PRB 81, 115126


--------------------------------------------------------------------------------------------------------




--------------------------------------- Iteration      1(  12)  ---------------------------------------


    POTLOK:  cpu time    0.9137: real time    0.9164
    SETDIJ:  cpu time    0.9663: real time    0.9689
    TRIAL :  cpu time  163.3269: real time  163.8141
    CORREC:  cpu time    0.0007: real time    0.0007
    CHARGE:  cpu time    0.7502: real time    0.7524
    --------------------------------------------
      LOOP:  cpu time  165.9591: real time  166.4573

 eigenvalue-minimisations  :     0
 total energy-change (2. order) :-0.4664397E-01  (-0.4245689E-01)
 number of electron     247.9999992 magnetization       2.6869630
 augmentation part       16.4233112 magnetization       2.1469454

 DIPCOR: dipole corrections for dipol
 direction  3 min pos     1,
 dipolmoment           0.000002     -0.000000     -0.006436 electrons x Angstroem
 Tr[quadrupol]     -6745.877323

 energy correction for charged system         0.000000 eV
 dipol+quadrupol energy correction            0.000001 eV
 added-field ion interaction          0.000000 eV  (added to PSCEN)


 Free energy of the ion-electron system (eV)
  ---------------------------------------------------
  alpha Z        PSCENC =       100.97742093
  Ewald energy   TEWEN  =     40724.12382440
  -Hartree energ DENC   =    -49791.76760286
  -exchange      EXHF   =       570.43186142
  -V(xc)+E(xc)   XCENC  =       647.62871614
  PAW double counting   =     27750.52723533   -27852.16624310
  entropy T*S    EENTRO =        -0.04185789
  eigenvalues    EBANDS =     -3259.63495158
  atomic energy  EATOM  =     10503.17556706
  ---------------------------------------------------
  free energy    TOTEN  =      -606.74600300 eV

  energy without entropy =     -606.70414510  energy(sigma->0) =     -606.72507405
  exchange ACFDT corr.  =        -0.03461284  see jH, gK, PRB 81, 115126


--------------------------------------------------------------------------------------------------------




--------------------------------------- Iteration      1(  13)  ---------------------------------------


    POTLOK:  cpu time    0.9150: real time    0.9176
    SETDIJ:  cpu time    0.9694: real time    0.9718
    TRIAL :  cpu time  163.4743: real time  163.9610
    CORREC:  cpu time    0.0015: real time    0.0015
    CHARGE:  cpu time    0.7521: real time    0.7542
    --------------------------------------------
      LOOP:  cpu time  166.1134: real time  166.6108

 eigenvalue-minimisations  :     0
 total energy-change (2. order) :-0.3895185E-01  (-0.3533353E-01)
 number of electron     247.9999992 magnetization       2.6941667
 augmentation part       16.4259713 magnetization       2.1512033

 DIPCOR: dipole corrections for dipol
 direction  3 min pos     1,
 dipolmoment           0.000002     -0.000000     -0.006274 electrons x Angstroem
 Tr[quadrupol]     -6745.880098

 energy correction for charged system         0.000000 eV
 dipol+quadrupol energy correction            0.000001 eV
 added-field ion interaction          0.000000 eV  (added to PSCEN)


 Free energy of the ion-electron system (eV)
  ---------------------------------------------------
  alpha Z        PSCENC =       100.97742088
  Ewald energy   TEWEN  =     40724.12382440
  -Hartree energ DENC   =    -49791.95118499
  -exchange      EXHF   =       570.52836491
  -V(xc)+E(xc)   XCENC  =       647.67040934
  PAW double counting   =     27754.26471417   -27855.94930892
  entropy T*S    EENTRO =        -0.04182712
  eigenvalues    EBANDS =     -3259.58290381
  atomic energy  EATOM  =     10503.17556706
  ---------------------------------------------------
  free energy    TOTEN  =      -606.78495485 eV

  energy without entropy =     -606.74312772  energy(sigma->0) =     -606.76404129
  exchange ACFDT corr.  =        -0.03369694  see jH, gK, PRB 81, 115126


--------------------------------------------------------------------------------------------------------




--------------------------------------- Iteration      1(  14)  ---------------------------------------


    POTLOK:  cpu time    0.9126: real time    0.9160
    SETDIJ:  cpu time    0.9790: real time    0.9828
    TRIAL :  cpu time  163.3235: real time  163.8088
    CORREC:  cpu time    0.0014: real time    0.0014
    CHARGE:  cpu time    0.7562: real time    0.7582
    --------------------------------------------
      LOOP:  cpu time  165.9740: real time  166.4720

 eigenvalue-minimisations  :     0
 total energy-change (2. order) :-0.3271191E-01  (-0.2972489E-01)
 number of electron     247.9999992 magnetization       2.6989061
 augmentation part       16.4286099 magnetization       2.1539911

 DIPCOR: dipole corrections for dipol
 direction  3 min pos     1,
 dipolmoment           0.000002     -0.000000     -0.006173 electrons x Angstroem
 Tr[quadrupol]     -6745.883154

 energy correction for charged system         0.000000 eV
 dipol+quadrupol energy correction            0.000001 eV
 added-field ion interaction          0.000000 eV  (added to PSCEN)


 Free energy of the ion-electron system (eV)
  ---------------------------------------------------
  alpha Z        PSCENC =       100.97742084
  Ewald energy   TEWEN  =     40724.12382440
  -Hartree energ DENC   =    -49792.24398732
  -exchange      EXHF   =       570.61527044
  -V(xc)+E(xc)   XCENC  =       647.71130660
  PAW double counting   =     27758.00502584   -27859.74724778
  entropy T*S    EENTRO =        -0.04175922
  eigenvalues    EBANDS =     -3259.39301972
  atomic energy  EATOM  =     10503.17556706
  ---------------------------------------------------
  free energy    TOTEN  =      -606.81766676 eV

  energy without entropy =     -606.77590754  energy(sigma->0) =     -606.79678715
  exchange ACFDT corr.  =        -0.03891069  see jH, gK, PRB 81, 115126


--------------------------------------------------------------------------------------------------------




--------------------------------------- Iteration      1(  15)  ---------------------------------------


    POTLOK:  cpu time    0.9139: real time    0.9170
    SETDIJ:  cpu time    0.9687: real time    0.9712
    TRIAL :  cpu time  162.8602: real time  163.3499
    CORREC:  cpu time    0.0008: real time    0.0008
    CHARGE:  cpu time    0.7474: real time    0.7509
    --------------------------------------------
      LOOP:  cpu time  165.4931: real time  165.9961

 eigenvalue-minimisations  :     0
 total energy-change (2. order) :-0.2778857E-01  (-0.2542823E-01)
 number of electron     247.9999992 magnetization       2.7017078
 augmentation part       16.4308144 magnetization       2.1556824

 DIPCOR: dipole corrections for dipol
 direction  3 min pos     1,
 dipolmoment           0.000002     -0.000000     -0.006114 electrons x Angstroem
 Tr[quadrupol]     -6745.885669

 energy correction for charged system         0.000000 eV
 dipol+quadrupol energy correction            0.000001 eV
 added-field ion interaction          0.000000 eV  (added to PSCEN)


 Free energy of the ion-electron system (eV)
  ---------------------------------------------------
  alpha Z        PSCENC =       100.97742082
  Ewald energy   TEWEN  =     40724.12382440
  -Hartree energ DENC   =    -49792.51343216
  -exchange      EXHF   =       570.69191776
  -V(xc)+E(xc)   XCENC  =       647.74866938
  PAW double counting   =     27761.79983861   -27863.59218618
  entropy T*S    EENTRO =        -0.04166945
  eigenvalues    EBANDS =     -3259.21531580
  atomic energy  EATOM  =     10503.17556706
  ---------------------------------------------------
  free energy    TOTEN  =      -606.84545533 eV

  energy without entropy =     -606.80378588  energy(sigma->0) =     -606.82462060
  exchange ACFDT corr.  =        -0.03862711  see jH, gK, PRB 81, 115126


--------------------------------------------------------------------------------------------------------




--------------------------------------- Iteration      1(  16)  ---------------------------------------


    POTLOK:  cpu time    0.9137: real time    0.9167
    SETDIJ:  cpu time    0.9880: real time    0.9905
    TRIAL :  cpu time  163.2220: real time  163.7075
    CORREC:  cpu time    0.0008: real time    0.0008
    CHARGE:  cpu time    0.7498: real time    0.7518
    --------------------------------------------
      LOOP:  cpu time  165.8764: real time  166.3730

 eigenvalue-minimisations  :     0
 total energy-change (2. order) :-0.2398402E-01  (-0.2210561E-01)
 number of electron     247.9999992 magnetization       2.7030474
 augmentation part       16.4327348 magnetization       2.1566162

 DIPCOR: dipole corrections for dipol
 direction  3 min pos     1,
 dipolmoment           0.000002     -0.000000     -0.006090 electrons x Angstroem
 Tr[quadrupol]     -6745.887505

 energy correction for charged system         0.000000 eV
 dipol+quadrupol energy correction            0.000001 eV
 added-field ion interaction          0.000000 eV  (added to PSCEN)


 Free energy of the ion-electron system (eV)
  ---------------------------------------------------
  alpha Z        PSCENC =       100.97742081
  Ewald energy   TEWEN  =     40724.12382440
  -Hartree energ DENC   =    -49792.71215102
  -exchange      EXHF   =       570.75942168
  -V(xc)+E(xc)   XCENC  =       647.78199302
  PAW double counting   =     27765.51972647   -27867.34629154
  entropy T*S    EENTRO =        -0.04156856
  eigenvalues    EBANDS =     -3259.10728079
  atomic energy  EATOM  =     10503.17556706
  ---------------------------------------------------
  free energy    TOTEN  =      -606.86943935 eV

  energy without entropy =     -606.82787080  energy(sigma->0) =     -606.84865507
  exchange ACFDT corr.  =        -0.03845380  see jH, gK, PRB 81, 115126


--------------------------------------------------------------------------------------------------------




--------------------------------------- Iteration      1(  17)  ---------------------------------------


    POTLOK:  cpu time    0.9105: real time    0.9138
    SETDIJ:  cpu time    0.9739: real time    0.9764
    TRIAL :  cpu time  163.2307: real time  163.7178
    CORREC:  cpu time    0.0008: real time    0.0008
    CHARGE:  cpu time    0.7490: real time    0.7511
    --------------------------------------------
      LOOP:  cpu time  165.8664: real time  166.3648

 eigenvalue-minimisations  :     0
 total energy-change (2. order) :-0.2100777E-01  (-0.1950351E-01)
 number of electron     247.9999992 magnetization       2.7032330
 augmentation part       16.4345831 magnetization       2.1570425

 DIPCOR: dipole corrections for dipol
 direction  3 min pos     1,
 dipolmoment           0.000002     -0.000000     -0.006089 electrons x Angstroem
 Tr[quadrupol]     -6745.888956

 energy correction for charged system         0.000000 eV
 dipol+quadrupol energy correction            0.000001 eV
 added-field ion interaction          0.000000 eV  (added to PSCEN)


 Free energy of the ion-electron system (eV)
  ---------------------------------------------------
  alpha Z        PSCENC =       100.97742081
  Ewald energy   TEWEN  =     40724.12382440
  -Hartree energ DENC   =    -49792.88494077
  -exchange      EXHF   =       570.82019885
  -V(xc)+E(xc)   XCENC  =       647.81293345
  PAW double counting   =     27769.00992508   -27870.86456142
  entropy T*S    EENTRO =        -0.04146286
  eigenvalues    EBANDS =     -3259.01924602
  atomic energy  EATOM  =     10503.17556706
  ---------------------------------------------------
  free energy    TOTEN  =      -606.89044712 eV

  energy without entropy =     -606.84898427  energy(sigma->0) =     -606.86971569
  exchange ACFDT corr.  =        -0.03833749  see jH, gK, PRB 81, 115126


--------------------------------------------------------------------------------------------------------




[...]
  Kinetic  3653.31985  3690.08240  4216.64404     5.26378     0.62341    -0.33497
  Fock     -360.51697  -364.46127  -345.92952     3.07589    -0.49067     0.30526
  -------------------------------------------------------------------------------------
  Total     -38.65821   -43.09915    -0.44215    -1.08281    -0.07787     0.03161
  in kB     -19.49627   -21.73594    -0.22299    -0.54609    -0.03927     0.01594
  external pressure =      -13.82 kB  Pullay stress =        0.00 kB


 VOLUME and BASIS-vectors are now :
 -----------------------------------------------------------------------------
  energy-cutoff  :      500.00
  volume of cell :     3176.88
      direct lattice vectors                 reciprocal lattice vectors
    12.660879485  0.014911914 -0.003914038     0.078983562 -0.000084769  0.000024887
     0.013453675 12.535639005  0.000641737    -0.000093956  0.079772660 -0.000000973
    -0.006306818  0.000236649 20.016634088     0.000015447 -0.000002574  0.049958454

  length of vectors
    12.660888871 12.535646241 20.016635083     0.078983612  0.079772715  0.049958457


 FORCES acting on ions:
    Electron-Ion                     Ewald-Force                    Non-Local-Force
 -----------------------------------------------------------------------------------------------
   0.776E+01 0.275E+01 0.621E+00   -.785E+01 -.294E+01 -.625E+00   0.137E+00 0.321E+00 0.735E-02
   0.611E+01 0.101E+01 0.389E+00   -.625E+01 -.110E+01 -.390E+00   0.178E+00 0.679E-01 0.655E-03
   0.148E+02 -.477E+00 0.301E+00   -.149E+02 0.538E+00 -.298E+00   0.109E+00 -.733E-02 -.343E-02
   0.121E+02 0.121E+02 0.266E+00   -.124E+02 -.126E+02 -.256E+00   0.117E+00 0.384E+00 -.428E-02
   0.211E+02 0.189E+02 -.243E-01   -.218E+02 -.197E+02 0.232E-01   0.633E+00 0.707E+00 0.209E-02
   0.241E+02 -.110E+01 0.347E+00   -.245E+02 0.150E+01 -.348E+00   0.464E+00 -.282E+00 0.509E-02
   0.237E+02 0.578E+01 0.511E+00   -.242E+02 -.567E+01 -.516E+00   0.583E+00 -.103E+00 0.659E-02
   0.321E+02 0.471E+02 -.938E+00   -.349E+02 -.497E+02 0.915E+00   0.237E+01 0.292E+01 0.116E-01
   0.271E+02 0.120E+01 -.138E+00   -.271E+02 -.132E+01 0.149E+00   -.291E-01 0.567E-01 -.193E-01
   0.531E+02 -.594E+01 0.172E+00   -.567E+02 0.637E+01 -.168E+00   0.351E+01 -.592E+00 -.772E-02
   0.192E+02 0.478E+00 0.611E+00   -.195E+02 -.629E+00 -.609E+00   0.321E+00 0.184E+00 0.107E-01
   0.642E+02 0.855E+01 -.125E-01   -.675E+02 -.904E+01 -.105E-01   0.345E+01 0.570E+00 0.339E-01
   0.606E+01 -.541E+02 -.752E+00   -.501E+01 0.567E+02 0.740E+00   -.121E+01 -.267E+01 0.179E-01
   0.116E+02 -.201E+02 0.729E-02   -.114E+02 0.205E+02 -.546E-02   -.819E-01 -.385E+00 0.950E-03
   0.301E+01 -.263E+01 0.123E+00   -.316E+01 0.271E+01 -.126E+00   0.100E+00 -.101E+00 0.293E-03
   0.208E+02 -.801E+01 0.169E+00   -.211E+02 0.806E+01 -.167E+00   0.270E+00 -.737E-01 -.232E-02
   0.101E+02 -.760E+01 0.372E+00   -.989E+01 0.769E+01 -.369E+00   -.903E-01 -.158E+00 -.296E-02
   -.109E+02 0.365E+01 0.533E+00   0.107E+02 -.378E+01 -.528E+00   0.112E+00 0.192E+00 -.599E-02
   0.109E+01 0.186E+02 0.355E+00   -.918E+00 -.192E+02 -.359E+00   0.167E-01 0.757E+00 0.770E-02
   0.742E-01 0.447E+01 0.847E+00   0.215E+00 -.481E+01 -.854E+00   -.220E+00 0.285E+00 0.970E-02
   -.113E+02 0.145E+02 0.735E+00   0.112E+02 -.151E+02 -.734E+00   0.111E-01 0.507E+00 0.168E-02
   -.585E+01 0.367E+02 0.851E+00   0.474E+01 -.397E+02 -.861E+00   0.115E+01 0.301E+01 0.139E-01
   -.133E+02 0.419E+02 -.832E+00   0.151E+02 -.454E+02 0.800E+00   -.162E+01 0.329E+01 0.441E-02
   -.388E+02 -.361E+02 0.528E+00   0.408E+02 0.397E+02 -.569E+00   -.212E+01 -.349E+01 0.480E-01
   0.484E+01 -.550E+02 -.600E+00   -.669E+01 0.581E+02 0.607E+00   0.187E+01 -.302E+01 -.143E-01
   -.236E+02 -.161E+02 0.110E+01   0.243E+02 0.171E+02 -.110E+01   -.666E+00 -.875E+00 0.609E-02
   -.140E+02 -.141E+02 0.900E+00   0.141E+02 0.146E+02 -.907E+00   -.427E-01 -.449E+00 0.852E-02
   -.201E+01 -.718E+01 0.514E+00   0.167E+01 0.745E+01 -.511E+00   0.238E+00 -.192E+00 -.113E-02
   -.405E+01 -.218E+02 0.268E+00   0.378E+01 0.222E+02 -.266E+00   0.130E+00 -.553E+00 -.857E-03
   -.822E+01 -.376E+01 0.494E+00   0.838E+01 0.399E+01 -.495E+00   -.123E+00 -.316E+00 -.849E-03
   -.798E+01 -.332E+00 -.688E-01   0.798E+01 0.404E+00 0.693E-01   -.282E-01 -.220E-01 -.879E-03
   -.187E+02 0.359E+01 0.371E+00   0.190E+02 -.368E+01 -.377E+00   -.350E+00 0.875E-01 0.625E-02
   -.171E+01 0.117E+01 0.629E-02   0.187E+01 -.128E+01 -.655E-02   -.138E+00 0.113E+00 -.833E-03
   0.787E+01 -.250E+01 0.138E+00   -.798E+01 0.263E+01 -.139E+00   0.983E-01 -.143E+00 0.229E-02
   -.549E+01 -.390E+01 0.590E-02   0.576E+01 0.422E+01 -.391E-02   -.255E+00 -.298E+00 -.231E-02
   -.506E+02 -.129E+02 0.572E+00   0.539E+02 0.132E+02 -.588E+00   -.355E+01 -.509E+00 0.165E-01
   -.146E+02 -.295E+01 -.318E-01   0.151E+02 0.308E+01 0.343E-01   -.380E+00 -.143E+00 -.954E-02
   0.575E+01 -.266E+01 0.243E+00   -.598E+01 0.302E+01 -.242E+00   0.140E+00 -.332E+00 0.133E-02
   0.526E+01 -.251E+01 0.229E+00   -.522E+01 0.261E+01 -.229E+00   0.907E-01 -.111E+00 -.491E-04
   -.438E+02 0.139E+02 0.316E+00   0.481E+02 -.144E+02 -.332E+00   -.402E+01 0.499E+00 0.237E-01
   -.176E+02 0.216E+01 0.141E+00   0.177E+02 -.203E+01 -.144E+00   -.196E+00 0.941E-02 -.228E-02
   0.136E+00 0.410E+01 0.274E+00   0.577E-01 -.427E+01 -.273E+00   -.245E+00 0.152E+00 -.196E-03
   -.280E+01 0.442E+01 0.713E+00   0.314E+01 -.477E+01 -.714E+00   -.273E+00 0.336E+00 0.292E-02
   -.220E+02 -.374E+01 0.495E+00   0.225E+02 0.374E+01 -.480E+00   -.589E+00 0.550E-01 -.130E-01
   -.207E+02 0.248E+01 0.902E+00   0.213E+02 -.275E+01 -.898E+00   -.621E+00 0.128E+00 0.312E-02
   0.903E+01 0.297E+01 0.500E+00   -.926E+01 -.323E+01 -.501E+00   0.191E+00 0.260E+00 -.300E-03
   -.584E+01 0.148E+01 0.236E-01   0.599E+01 -.161E+01 -.240E-01   -.124E+00 0.120E+00 -.337E-02
   -.146E+02 -.125E+01 0.420E-01   0.146E+02 0.123E+01 -.423E-01   -.122E+00 0.863E-02 -.326E-02
   -.520E+01 -.150E+01 0.702E-01   0.536E+01 0.157E+01 -.712E-01   -.205E+00 -.106E+00 -.232E-02
   0.959E+01 -.106E+01 -.764E-01   -.954E+01 0.997E+00 0.751E-01   -.123E-02 0.227E-01 -.992E-03
   0.639E+02 -.692E+01 0.115E+01   -.542E+02 0.249E+02 -.120E+01   -.911E+01 -.174E+02 0.618E-01
   0.518E+02 0.707E+01 -.338E+01   -.402E+02 -.262E+02 0.351E+01   -.109E+02 0.181E+02 -.170E+00
   -.148E+02 -.280E+00 -.406E+01   0.231E+02 0.157E+02 0.421E+01   -.862E+01 -.147E+02 -.103E+00
   -.238E+02 -.352E+02 0.346E+01   0.131E+02 0.538E+02 -.376E+01   0.111E+02 -.179E+02 0.324E+00
   -.464E+02 0.417E+02 -.408E+01   0.383E+02 -.586E+02 0.445E+01   0.797E+01 0.165E+02 -.370E+00
   -.270E+02 -.116E+02 0.408E+00   0.173E+02 -.459E+01 -.430E+00   0.973E+01 0.154E+02 0.165E-01
   0.145E+02 0.286E+02 0.100E+02   -.195E+02 -.269E+02 -.100E+02   0.312E+01 -.991E+00 0.486E-03
   -.559E+02 0.115E+02 -.161E+02   0.582E+02 -.134E+02 0.159E+02   -.182E+01 0.138E+01 0.929E-01
 -----------------------------------------------------------------------------------------------
   -.827E+00 -.394E+00 0.375E-02   0.441E-12 0.568E-13 0.533E-14   0.369E+00 0.618E+00 0.386E-02
 
 
 POSITION                                       TOTAL-FORCE (eV/Angst)
 -----------------------------------------------------------------------------------
      2.81589     12.52437     10.00690         0.043202      0.153412      0.003589
      0.69709      1.25208     10.00729         0.038639     -0.020474     -0.000037
      1.40402     12.53365     10.00771         0.023295      0.051781     -0.000332
      3.50900      1.21443     10.00764        -0.126730     -0.086318      0.006388
      2.82312      2.45550     10.00911        -0.040053     -0.010298      0.001176
      0.73730      3.76726     10.00778         0.072289      0.101398      0.004386
      1.40656      2.49603     10.00737         0.082329      0.007449      0.001905
      3.56524      3.66778     10.01228        -0.279960      0.514508     -0.011074
      0.81775      6.24449     10.00919         0.030435     -0.062052     -0.009536
      1.53462      4.97839     10.00813         0.054073     -0.193426     -0.003781
      0.74184      8.76484     10.00762         0.012924      0.046267      0.013086
      1.50846      7.53490     10.00963         0.415844      0.123123      0.012845
      3.52104      8.82215     10.01084        -0.224913     -0.196609      0.007095
      2.82711     10.05283     10.00864         0.090084      0.033622      0.002973
      0.71296     11.27894     10.00836        -0.056278     -0.019914     -0.001699
      1.41279     10.03134     10.00825         0.002127     -0.021818      0.000255
      3.52301     11.29006     10.00708         0.077344     -0.081601     -0.000525
      7.05068     12.52458     10.00527        -0.061974      0.072934     -0.000976
      4.92276      1.21071     10.00760         0.183908      0.192385      0.004394
      5.64316     12.51793     10.00555         0.062862     -0.034788      0.003999
      7.73283      1.22770     10.00464        -0.062404     -0.073854      0.002759
      7.03374      2.45276     10.00630         0.101188      0.179853      0.004222
      5.60950      2.44139     10.01205         0.144795     -0.104146     -0.027446
      6.99439      7.61590     10.00916        -0.305020     -0.084373      0.008922
      4.94812      8.82484     10.00946         0.125921     -0.013309     -0.008105
      7.73756      8.82757     10.00498         0.001970      0.037982      0.009969
      7.04994     10.06475     10.00467         0.059446      0.016380      0.002574
      4.93069     11.28965     10.00619        -0.092053      0.064022      0.001443
      5.63567     10.05870     10.00675        -0.126479     -0.146575      0.001097
      7.75734     11.29195     10.00496         0.039033     -0.103235     -0.001928
     11.27003     12.54839     10.00560        -0.042848      0.049291     -0.000433
      9.14780      1.25400     10.00479        -0.040659     -0.008055      0.000228
      9.86013     12.54281     10.00577         0.025253      0.012894     -0.001054
     11.94037      1.27537     10.00439         0.006786     -0.023285      0.001362
     11.24517      2.53711     10.00510        -0.009593      0.004421     -0.000342
      9.05022      3.75304     10.00539        -0.453773     -0.247524      0.000479
      9.81780      2.52396     10.00568         0.083955     -0.021714     -0.007468
     11.95457      3.79544     10.00451        -0.075205      0.012713      0.002832
     11.22228      5.03805     10.00508         0.148573     -0.015735      0.000360
      9.04718      6.31303     10.00862         0.099301      0.064792      0.009250
      9.74863      5.04060     10.00666        -0.058248      0.135335     -0.004811
     12.00574      6.26149     10.00454        -0.076078     -0.009274      0.000421
     11.27513      7.50692     10.00366         0.054051     -0.001372      0.001862
      9.15614      8.78905     10.00507        -0.067384      0.060408      0.002068
      9.83465      7.52185     10.00461        -0.048762     -0.133797      0.008041
     11.97815      8.76660     10.00379        -0.024035      0.010074     -0.001355
     11.28058     10.02634     10.00510         0.014477     -0.005556     -0.003844
      9.16869     11.28599     10.00565        -0.093269     -0.001893     -0.003591
      9.86296     10.03297     10.00544        -0.040993     -0.043755     -0.003355
     11.96412     11.28900     10.00529         0.064025     -0.045238     -0.002286
      2.94426      4.88957     10.00696        -0.242246     -0.970323      0.009771
      2.87692      7.60929     10.01400        -0.347597      0.560367     -0.055561
      4.94343      3.65430     10.01908        -1.098303     -0.444899      0.040223
      7.67249      3.67475     10.00362         1.350533     -0.873368      0.058058
      7.64154      6.40467     10.01852         0.614056      1.082636     -0.035462
      5.61201      7.60869     10.00818         0.837824      0.513031     -0.003688
      4.26890      6.25428     10.00044        -1.127464      0.548447      0.037328
      6.25202      5.07528     10.03188         0.261780     -0.550944     -0.076673
 -----------------------------------------------------------------------------------
    total drift:                               -0.001509      0.005572     -0.006746


--------------------------------------------------------------------------------------------------------



  FREE ENERGIE OF THE ION-ELECTRON SYSTEM (eV)
  ---------------------------------------------------
  free  energy   TOTEN  =      -607.14434250 eV

  energy  without entropy=     -607.13551050  energy(sigma->0) =     -607.13992650
 


--------------------------------------------------------------------------------------------------------


    POTLOK:  cpu time    1.9216: real time    1.9280


--------------------------------------------------------------------------------------------------------


 stress matrix after NEB project (eV)
    -38.65821     -1.08266      0.03161
     -1.08281    -43.09915     -0.06778
      0.03468     -0.07787     -0.44215
  FORCES: max atom, RMS     1.609373    0.443930
  FORCE total and by dimension    3.380868    1.350533
  Stress total and by dimension   57.918454   43.099154
 writing wavefunctions
     LOOP+:  cpu time41742.4726: real time41877.0651
 vacuum level on the upper side and lower side of the slab         1.490         1.490
    4ORBIT:  cpu time    0.0000: real time    0.0000
 


 total charge     
 
# of ion       s       p       d       tot
------------------------------------------
    1        0.872   1.796   0.000   2.667
    2        0.866   1.773   0.000   2.639
    3        0.867   1.773   0.000   2.641
    4        0.873   1.791   0.000   2.665
    5        0.870   1.804   0.000   2.674
    6        0.857   1.745   0.000   2.602
    7        0.866   1.764   0.000   2.630
    8        0.859   1.712   0.000   2.571
    9        0.842   1.721   0.000   2.564
   10        0.843   1.680   0.000   2.524
   11        0.863   1.761   0.000   2.624
   12        0.852   1.702   0.000   2.554
   13        0.865   1.766   0.000   2.631
   14        0.873   1.799   0.000   2.672
   15        0.867   1.782   0.000   2.650
   16        0.869   1.769   0.000   2.637
   17        0.870   1.799   0.000   2.669
   18        0.870   1.800   0.000   2.670
   19        0.872   1.806   0.000   2.679
   20        0.872   1.798   0.000   2.670
   21        0.873   1.799   0.000   2.672
   22        0.864   1.768   0.000   2.632
   23        0.865   1.764   0.000   2.628
   24        0.857   1.710   0.000   2.568
   25        0.864   1.757   0.000   2.621
   26        0.870   1.804   0.000   2.674
   27        0.874   1.791   0.000   2.664
   28        0.871   1.798   0.000   2.669
   29        0.872   1.803   0.000   2.674
   30        0.872   1.796   0.000   2.668
   31        0.867   1.769   0.000   2.636
   32        0.868   1.766   0.000   2.635
   33        0.867   1.782   0.000   2.649
   34        0.865   1.763   0.000   2.627
   35        0.861   1.750   0.000   2.611
   36        0.851   1.693   0.000   2.544
   37        0.862   1.758   0.000   2.620
   38        0.856   1.740   0.000   2.597
   39        0.851   1.712   0.000   2.563
   40        0.845   1.688   0.000   2.533
   41        0.842   1.722   0.000   2.564
   42        0.851   1.710   0.000   2.561
   43        0.857   1.742   0.000   2.599
   44        0.866   1.763   0.000   2.629
   45        0.858   1.752   0.000   2.611
   46        0.862   1.754   0.000   2.616
   47        0.865   1.763   0.000   2.628
   48        0.867   1.772   0.000   2.640
   49        0.866   1.774   0.000   2.641
   50        0.866   1.770   0.000   2.637
   51        1.225   2.657   0.000   3.882
   52        1.235   2.668   0.000   3.903
   53        1.226   2.700   0.000   3.926
   54        1.235   2.677   0.000   3.912
   55        1.226   2.693   0.000   3.919
   56        1.224   2.669   0.000   3.893
   57        0.468   0.523   8.466   9.457
   58        0.435   0.527   6.091   7.053
--------------------------------------------------
tot         51.438 105.192  14.557 171.187
 


 magnetization (x)
 
# of ion       s       p       d       tot
------------------------------------------
    1       -0.000  -0.005   0.000  -0.006
    2        0.000  -0.001   0.000  -0.001
    3       -0.000  -0.005   0.000  -0.005
    4       -0.000  -0.009   0.000  -0.009
    5       -0.000  -0.011   0.000  -0.011
    6       -0.000  -0.011   0.000  -0.012
    7        0.000   0.000   0.000   0.001
    8       -0.000  -0.007   0.000  -0.007
    9       -0.001  -0.016   0.000  -0.017
   10        0.001  -0.000   0.000   0.000
   11       -0.001  -0.013   0.000  -0.014
   12       -0.000  -0.002   0.000  -0.002
   13        0.001  -0.002   0.000  -0.001
   14       -0.000  -0.003   0.000  -0.003
   15       -0.001  -0.011   0.000  -0.011
   16        0.000  -0.003   0.000  -0.003
   17       -0.000  -0.004   0.000  -0.004
   18        0.000  -0.002   0.000  -0.002
   19        0.000   0.002   0.000   0.002
   20       -0.000  -0.007   0.000  -0.008
   21        0.000   0.000   0.000   0.001
   22        0.001  -0.003   0.000  -0.002
   23       -0.001  -0.021   0.000  -0.022
   24        0.001   0.000   0.000   0.001
   25       -0.001  -0.019   0.000  -0.020
   26       -0.000  -0.008   0.000  -0.008
   27        0.000  -0.005   0.000  -0.005
   28       -0.000  -0.010   0.000  -0.010
   29        0.001   0.006   0.000   0.007
   30       -0.000  -0.006   0.000  -0.006
   31       -0.000  -0.008   0.000  -0.008
   32       -0.000  -0.007   0.000  -0.007
   33       -0.000  -0.008   0.000  -0.008
   34        0.000  -0.002   0.000  -0.002
   35       -0.000  -0.006   0.000  -0.006
   36        0.000  -0.010   0.000  -0.010
   37        0.000  -0.007   0.000  -0.007
   38       -0.001  -0.014   0.000  -0.015
   39        0.000  -0.000   0.000  -0.000
   40       -0.001  -0.015   0.000  -0.015
   41        0.000  -0.003   0.000  -0.003
   42        0.001   0.004   0.000   0.005
   43       -0.001  -0.019   0.000  -0.020
   44       -0.000  -0.003   0.000  -0.003
   45       -0.000  -0.009   0.000  -0.009
   46        0.000  -0.002   0.000  -0.002
   47       -0.000  -0.007   0.000  -0.008
   48       -0.000  -0.004   0.000  -0.004
   49        0.000   0.001   0.000   0.001
   50       -0.000  -0.004   0.000  -0.005
   51        0.001   0.005   0.000   0.006
   52       -0.013  -0.087   0.000  -0.100
   53       -0.012  -0.053   0.000  -0.065
   54        0.008  -0.012   0.000  -0.003
   55        0.000  -0.004   0.000  -0.004
   56        0.009   0.003   0.000   0.011
   57       -0.024  -0.035  -0.536  -0.595
   58        0.049   0.013   3.294   3.356
--------------------------------------------------
tot          0.014  -0.469   2.758   2.303
 

 total amount of memory used by VASP MPI-rank0   154817. kBytes
=======================================================================

   base      :      30000. kBytes
   nonl-proj :       4276. kBytes
   fftplans  :      11851. kBytes
   grid      :      31266. kBytes
   one-center:         62. kBytes
   HF        :         23. kBytes
   nonlr-proj:      14981. kBytes
   wavefun   :      62358. kBytes
 
  
  
 General timing and accounting informations for this job:
 ========================================================
  
                  Total CPU time used (sec):    41795.578
                            User time (sec):    41664.709
                          System time (sec):      130.868
                         Elapsed time (sec):    41938.075
  
                   Maximum memory used (kb):      398072.
                   Average memory used (kb):           0.
  
                          Minor page faults:      3246830
                          Major page faults:            0
                 Voluntary context switches:       518022
