 vasp.5.4.4.18Apr17-6-g9f103f2a35 (build Feb 25 2019 10:51:38) complex          
  
 executed on             LinuxIFC date 2021.06.16  13:51:49
 running on   48 total cores
 distrk:  each k-point on   24 cores,    2 groups
 distr:  one band on NCORES_PER_BAND=  24 cores,    1 groups


--------------------------------------------------------------------------------------------------------


 INCAR:
 POTCAR:    PAW_PBE C 08Apr2002                   
 POTCAR:    PAW_PBE N 08Apr2002                   
 POTCAR:    PAW_PBE Fe 06Sep2000                  

 ----------------------------------------------------------------------------- 
|                                                                             |
|           W    W    AA    RRRRR   N    N  II  N    N   GGGG   !!!           |
|           W    W   A  A   R    R  NN   N  II  NN   N  G    G  !!!           |
|           W    W  A    A  R    R  N N  N  II  N N  N  G       !!!           |
|           W WW W  AAAAAA  RRRRR   N  N N  II  N  N N  G  GGG   !            |
|           WW  WW  A    A  R   R   N   NN  II  N   NN  G    G                |
|           W    W  A    A  R    R  N    N  II  N    N   GGGG   !!!           |
|                                                                             |
|      For optimal performance we recommend to set                            |
|        NCORE= 4 - approx SQRT( number of cores)                             |
|      NCORE specifies how many cores store one orbital (NPAR=cpu/NCORE).     |
|      This setting can  greatly improve the performance of VASP for DFT.     |
|      The default,   NCORE=1            might be grossly inefficient         |
|      on modern multi-core architectures or massively parallel machines.     |
|      Do your own testing !!!!                                               |
|      Unfortunately you need to use the default for GW and RPA calculations. |
|      (for HF NCORE is supported but not extensively tested yet)             |
|                                                                             |
 ----------------------------------------------------------------------------- 


 ----------------------------------------------------------------------------- 
|                                                                             |
|           W    W    AA    RRRRR   N    N  II  N    N   GGGG   !!!           |
|           W    W   A  A   R    R  NN   N  II  NN   N  G    G  !!!           |
|           W    W  A    A  R    R  N N  N  II  N N  N  G       !!!           |
|           W WW W  AAAAAA  RRRRR   N  N N  II  N  N N  G  GGG   !            |
|           WW  WW  A    A  R   R   N   NN  II  N   NN  G    G                |
|           W    W  A    A  R    R  N    N  II  N    N   GGGG   !!!           |
|                                                                             |
|      You have enabled k-point parallelism (KPAR>1).                         |
|      This developmental code was originally  written by Paul Kent at ORNL,  |
|      and carefully double checked in Vienna.                                |
|      GW as well as linear response parallelism added by Martijn Marsman     |
|      and Georg Kresse.                                                      |
|      Carefully verify results versus KPAR=1.                                |
|      Report problems to Paul Kent and Vienna.                               |
|                                                                             |
 ----------------------------------------------------------------------------- 

 POTCAR:    PAW_PBE C 08Apr2002                   
   VRHFIN =C: s2p2                                                              
   LEXCH  = PE                                                                  
   EATOM  =   147.1560 eV,   10.8157 Ry                                         
                                                                                
   TITEL  = PAW_PBE C 08Apr2002                                                 
   LULTRA =        F    use ultrasoft PP ?                                      
   IUNSCR =        1    unscreen: 0-lin 1-nonlin 2-no                           
   RPACOR =    1.200    partial core radius                                     
   POMASS =   12.011; ZVAL   =    4.000    mass and valenz                      
   RCORE  =    1.500    outmost cutoff radius                                   
   RWIGS  =    1.630; RWIGS  =    0.863    wigner-seitz radius (au A)           
   ENMAX  =  400.000; ENMIN  =  300.000 eV                                      
   ICORE  =        2    local potential                                         
   LCOR   =        T    correct aug charges                                     
   LPAW   =        T    paw PP                                                  
   EAUG   =  644.873                                                            
   DEXC   =    0.000                                                            
   RMAX   =    1.529    core radius for proj-oper                               
   RAUG   =    1.300    factor for augmentation sphere                          
   RDEP   =    1.501    radius for radial grids                                 
   RDEPT  =    1.300    core radius for aug-charge                              
                                                                                
   Atomic configuration                                                         
    4 entries                                                                   
     n  l   j            E        occ.                                          
     1  0  0.50      -273.3789   2.0000                                         
     2  0  0.50       -13.7508   2.0000                                         
     2  1  0.50        -5.2854   2.0000                                         
     3  2  1.50        -5.4423   0.0000                                         
   Description                                                                  
     l       E           TYP  RCUT    TYP  RCUT                                 
     0    -13.7508458     23  1.200                                             
     0     -8.2022199     23  1.200                                             
     1     -5.2854383     23  1.500                                             
     1     34.0145650     23  1.500                                             
     2     -5.4423304      7  1.500                                             
  local pseudopotential read in
  partial core-charges read in
  partial kinetic energy density read in
  atomic valenz-charges read in
  non local Contribution for L=           0  read in
    real space projection operators read in
  non local Contribution for L=           0  read in
    real space projection operators read in
  non local Contribution for L=           1  read in
    real space projection operators read in
  non local Contribution for L=           1  read in
    real space projection operators read in
    PAW grid and wavefunctions read in
 
   number of l-projection  operators is LMAX  =           4
   number of lm-projection operators is LMMAX =           8
 
 POTCAR:    PAW_PBE N 08Apr2002                   
   VRHFIN =N: s2p3                                                              
   LEXCH  = PE                                                                  
   EATOM  =   264.5486 eV,   19.4438 Ry                                         
                                                                                
   TITEL  = PAW_PBE N 08Apr2002                                                 
   LULTRA =        F    use ultrasoft PP ?                                      
   IUNSCR =        1    unscreen: 0-lin 1-nonlin 2-no                           
   RPACOR =    1.200    partial core radius                                     
   POMASS =   14.001; ZVAL   =    5.000    mass and valenz                      
   RCORE  =    1.500    outmost cutoff radius                                   
   RWIGS  =    1.400; RWIGS  =    0.741    wigner-seitz radius (au A)           
   ENMAX  =  400.000; ENMIN  =  300.000 eV                                      
   ICORE  =        2    local potential                                         
   LCOR   =        T    correct aug charges                                     
   LPAW   =        T    paw PP                                                  
   EAUG   =  627.112                                                            
   DEXC   =    0.000                                                            
   RMAX   =    1.529    core radius for proj-oper                               
   RAUG   =    1.300    factor for augmentation sphere                          
   RDEP   =    1.514    radius for radial grids                                 
   RDEPT  =    1.338    core radius for aug-charge                              
                                                                                
   Atomic configuration                                                         
    4 entries                                                                   
     n  l   j            E        occ.                                          
     1  0  0.50      -384.7179   2.0000                                         
     2  0  0.50       -18.5828   2.0000                                         
     2  1  0.50        -7.0898   3.0000                                         
     3  2  1.50        -6.8029   0.0000                                         
   Description                                                                  
     l       E           TYP  RCUT    TYP  RCUT                                 
     0    -18.5828119     23  1.200                                             
     0    -13.5018863     23  1.200                                             
     1     -7.0897853     23  1.500                                             
     1      9.5240782     23  1.500                                             
     2     -6.8029130      7  1.500                                             
  local pseudopotential read in
  partial core-charges read in
  partial kinetic energy density read in
  atomic valenz-charges read in
  non local Contribution for L=           0  read in
    real space projection operators read in
  non local Contribution for L=           0  read in
    real space projection operators read in
  non local Contribution for L=           1  read in
    real space projection operators read in
  non local Contribution for L=           1  read in
    real space projection operators read in
    PAW grid and wavefunctions read in
 
   number of l-projection  operators is LMAX  =           4
   number of lm-projection operators is LMMAX =           8
 
 POTCAR:    PAW_PBE Fe 06Sep2000                  
   VRHFIN =Fe:  d7 s1                                                           
   LEXCH  = PE                                                                  
   EATOM  =   594.3153 eV,   43.6809 Ry                                         
                                                                                
   TITEL  = PAW_PBE Fe 06Sep2000                                                
   LULTRA =        F    use ultrasoft PP ?                                      
   IUNSCR =        1    unscreen: 0-lin 1-nonlin 2-no                           
   RPACOR =    2.000    partial core radius                                     
   POMASS =   55.847; ZVAL   =    8.000    mass and valenz                      
   RCORE  =    2.300    outmost cutoff radius                                   
   RWIGS  =    2.460; RWIGS  =    1.302    wigner-seitz radius (au A)           
   ENMAX  =  267.882; ENMIN  =  200.911 eV                                      
   RCLOC  =    1.701    cutoff for local pot                                    
   LCOR   =        T    correct aug charges                                     
   LPAW   =        T    paw PP                                                  
   EAUG   =  511.368                                                            
   DEXC   =    0.000                                                            
   RMAX   =    2.356    core radius for proj-oper                               
   RAUG   =    1.300    factor for augmentation sphere                          
   RDEP   =    2.442    radius for radial grids                                 
   RDEPT  =    1.890    core radius for aug-charge                              
                                                                                
   Atomic configuration                                                         
    9 entries                                                                   
     n  l   j            E        occ.                                          
     1  0  0.50     -6993.8440   2.0000                                         
     2  0  0.50      -814.6047   2.0000                                         
     2  1  1.50      -693.3689   6.0000                                         
     3  0  0.50       -89.4732   2.0000                                         
     3  1  1.50       -55.6373   6.0000                                         
     3  2  2.50        -3.8151   7.0000                                         
     4  0  0.50        -4.2551   1.0000                                         
     4  1  1.50        -3.4015   0.0000                                         
     4  3  2.50        -1.3606   0.0000                                         
   Description                                                                  
     l       E           TYP  RCUT    TYP  RCUT                                 
     2     -3.8151135     23  2.300                                             
     2     -5.1756961     23  2.300                                             
     0     -4.2550963     23  2.300                                             
     0      7.2035603     23  2.300                                             
     1     -2.7211652     23  2.300                                             
     1     18.4316424     23  2.300                                             
  local pseudopotential read in
  partial core-charges read in
  partial kinetic energy density read in
  atomic valenz-charges read in
  non local Contribution for L=           2  read in
    real space projection operators read in
  non local Contribution for L=           2  read in
    real space projection operators read in
  non local Contribution for L=           0  read in
    real space projection operators read in
  non local Contribution for L=           0  read in
    real space projection operators read in
  non local Contribution for L=           1  read in
    real space projection operators read in
  non local Contribution for L=           1  read in
    real space projection operators read in
    PAW grid and wavefunctions read in
 
   number of l-projection  operators is LMAX  =           6
   number of lm-projection operators is LMMAX =          18
 

 ----------------------------------------------------------------------------- 
|                                                                             |
|  ADVICE TO THIS USER RUNNING 'VASP/VAMP'   (HEAR YOUR MASTER'S VOICE ...):  |
|                                                                             |
|      You have a (more or less) 'large supercell' and for larger cells       |
|      it might be more efficient to use real space projection opertators     |
|      So try LREAL= Auto  in the INCAR   file.                               |
|      Mind:          For very  accurate calculation you might also keep the  |
|      reciprocal projection scheme          (i.e. LREAL=.FALSE.)             |
|                                                                             |
 ----------------------------------------------------------------------------- 

  PAW_PBE C 08Apr2002                   :
 energy of atom  1       EATOM= -147.1560
 kinetic energy error for atom=    0.0076 (will be added to EATOM!!)
  PAW_PBE N 08Apr2002                   :
 energy of atom  2       EATOM= -264.5486
 kinetic energy error for atom=    0.0138 (will be added to EATOM!!)
  PAW_PBE Fe 06Sep2000                  :
 energy of atom  3       EATOM= -594.3153
 kinetic energy error for atom=    0.0026 (will be added to EATOM!!)
 
 
 POSCAR:  C  N Fe                                
  positions in cartesian coordinates
  No initial velocities read in
 exchange correlation table for  LEXCH =        8
   RHO(1)=    0.500       N(1)  =     2000
   RHO(2)=  100.500       N(2)  =     4000

 VTST: version 3.2, (02/03/18)

 CHAIN: initializing optimizer
 
 OPT: Using VASP Conjugate-Gradient optimizer
 CHAIN: Read ICHAIN            0
 
 POSCAR:  C  N Fe                                
  positions in cartesian coordinates
  No initial velocities read in
 


--------------------------------------------------------------------------------------------------------


 ion  position               nearest neighbor table
   1  0.222  0.001  0.500-   3 1.42  19 1.43   4 1.43
   2  0.056  0.102  0.500-   3 1.42  33 1.43   7 1.43
   3  0.110  0.001  0.500-   2 1.42   1 1.42  17 1.43
   4  0.278  0.102  0.500-  21 1.42   1 1.43   5 1.43
   5  0.225  0.204  0.500-   4 1.43   7 1.43   8 1.44
   6  0.057  0.302  0.500-   7 1.42  11 1.42  37 1.44
   7  0.113  0.203  0.500-   6 1.42   2 1.43   5 1.43
   8  0.285  0.304  0.500-  50 1.38   5 1.44   9 1.46
   9  0.228  0.407  0.500-  49 1.36  11 1.45   8 1.46
  10  0.056  0.501  0.500-  14 1.42  11 1.42  40 1.44
  11  0.114  0.402  0.500-   6 1.42  10 1.42   9 1.45
  12  0.225  0.597  0.500-  49 1.36  14 1.44  15 1.45
  13  0.055  0.699  0.500-  18 1.42  14 1.42  44 1.44
  14  0.112  0.600  0.500-  10 1.42  13 1.42  12 1.44
  15  0.281  0.700  0.500-  52 1.37  16 1.43  12 1.45
  16  0.222  0.800  0.500-  19 1.42  18 1.43  15 1.43
  17  0.055  0.900  0.500-   3 1.43  18 1.43  48 1.43
  18  0.110  0.799  0.500-  13 1.42  17 1.43  16 1.43
  19  0.277  0.901  0.500-  27 1.42  16 1.42   1 1.43
  20  0.554  0.999  0.500-  22 1.41  23 1.42  29 1.43
  21  0.389  0.102  0.500-   4 1.42  25 1.42  22 1.43
  22  0.444  0.001  0.500-  20 1.41  27 1.42  21 1.43
  23  0.610  0.100  0.500-  31 1.42  20 1.42  24 1.42
  24  0.557  0.201  0.500-  51 1.37  23 1.42  25 1.44
  25  0.444  0.203  0.500-  50 1.38  21 1.42  24 1.44
  26  0.555  0.797  0.500-  53 1.38  29 1.42  28 1.44
  27  0.388  0.900  0.500-  19 1.42  22 1.42  28 1.42
  28  0.441  0.799  0.500-  52 1.37  27 1.42  26 1.44
  29  0.609  0.898  0.500-  46 1.42  26 1.42  20 1.43
  30  0.888  1.000  0.500-  48 1.42  32 1.42  33 1.43
  31  0.722  0.100  0.500-  23 1.42  36 1.42  32 1.42
  32  0.776  0.999  0.500-  30 1.42  31 1.42  46 1.43
  33  0.944  0.101  0.500-  30 1.43  34 1.43   2 1.43
  34  0.888  0.201  0.500-  37 1.42  33 1.43  36 1.43
  35  0.717  0.300  0.500-  51 1.37  36 1.43  39 1.45
  36  0.776  0.201  0.500-  31 1.42  34 1.43  35 1.43
  37  0.944  0.301  0.500-  34 1.42  38 1.42   6 1.44
  38  0.886  0.400  0.500-  40 1.42  37 1.42  39 1.44
  39  0.773  0.403  0.500-  54 1.36  38 1.44  35 1.45
  40  0.943  0.500  0.500-  38 1.42  41 1.42  10 1.44
  41  0.885  0.599  0.500-  44 1.42  40 1.42  43 1.45
  42  0.713  0.696  0.500-  53 1.38  47 1.44  43 1.46
  43  0.771  0.594  0.500-  54 1.36  41 1.45  42 1.46
  44  0.942  0.698  0.500-  45 1.42  41 1.42  13 1.44
  45  0.886  0.798  0.500-  44 1.42  48 1.43  47 1.43
  46  0.720  0.898  0.500-  29 1.42  32 1.43  47 1.43
  47  0.773  0.796  0.500-  46 1.43  45 1.43  42 1.44
  48  0.942  0.899  0.500-  30 1.42  17 1.43  45 1.43
  49  0.281  0.503  0.500-  12 1.36   9 1.36
  50  0.393  0.303  0.500-   8 1.38  25 1.38  55 2.03
  51  0.610  0.299  0.500-  35 1.37  24 1.37  55 1.99
  52  0.388  0.702  0.500-  15 1.37  28 1.37  56 1.99
  53  0.605  0.698  0.500-  42 1.38  26 1.38  56 2.04
  54  0.718  0.497  0.500-  39 1.36  43 1.36
  55  0.507  0.420  0.498-  51 1.99  56 1.99  50 2.03
  56  0.491  0.580  0.501-  55 1.99  52 1.99  53 2.04
 
  LATTYP: Found a triclinic cell.
 ALAT       =    12.3041000000
 B/A-ratio  =     1.4345753183
 C/A-ratio  =     1.6476052698
 COS(alpha) =     0.0000428570
 COS(beta)  =     0.0001012291
 COS(gamma) =     0.6923426438
  
  Lattice vectors:
  
 A1 = (   0.0806154682, -12.3038359042,   0.0000000000)
 A2 = ( -12.6561845318, -12.3038359042,   0.0000000000)
 A3 = (   0.0007784004,  -0.0020470905, -20.2722998817)


Analysis of symmetry for initial positions (statically):
=====================================================================
 Subroutine PRICEL returns:
 Original cell was already a primitive cell.
 

 Routine SETGRP: Setting up the symmetry group for a 
 triclinic supercell.


 Subroutine GETGRP returns: Found  1 space group operations
 (whereof  1 operations were pure point group operations)
 out of a pool of  2 trial point group operations.


The static configuration has the point symmetry C_1 .


Analysis of symmetry for dynamics (positions and initial velocities):
=====================================================================
 Subroutine PRICEL returns:
 Original cell was already a primitive cell.
 

 Routine SETGRP: Setting up the symmetry group for a 
 triclinic supercell.


 Subroutine GETGRP returns: Found  1 space group operations
 (whereof  1 operations were pure point group operations)
 out of a pool of  2 trial point group operations.


The dynamic configuration has the point symmetry C_1 .


Analysis of structural, dynamic, and magnetic symmetry:
=====================================================================
 Subroutine PRICEL returns:
 Original cell was already a primitive cell.
 

 Routine SETGRP: Setting up the symmetry group for a 
 triclinic supercell.


 Subroutine GETGRP returns: Found  1 space group operations
 (whereof  1 operations were pure point group operations)
 out of a pool of  2 trial point group operations.


The magnetic configuration has the point symmetry C_1 .


 Subroutine INISYM returns: Found  1 space group operations
 (whereof  1 operations are pure point group operations),
 and found     1 'primitive' translations

 
 
 KPOINTS: KPOINTS created by Atomic Simulation Env

Automatic generation of k-mesh.
Space group operators:
 irot       det(A)        alpha          n_x          n_y          n_z        tau_x        tau_y        tau_z
    1     1.000000     0.000000     1.000000     0.000000     0.000000     0.000000     0.000000     0.000000
 
 Subroutine IBZKPT returns following result:
 ===========================================
 
 Found      2 irreducible k-points:
 
 Following reciprocal coordinates:
            Coordinates               Weight
  0.250000  0.250000 -0.000000      2.000000
 -0.250000  0.250000  0.000000      2.000000
 
 Following cartesian coordinates:
            Coordinates               Weight
  0.019628  0.020447 -0.000001      2.000000
 -0.019628  0.020190 -0.000003      2.000000
 
 
 Subroutine IBZKPT_HF returns following result:
 ==============================================
 
 Found      4 k-points in 1st BZ
 the following      4 k-points will be used (e.g. in the exchange kernel)
 Following reciprocal coordinates:   # in IRBZ
  0.250000  0.250000 -0.000000    0.25000000   1 t-inv F
 -0.250000  0.250000  0.000000    0.25000000   2 t-inv F
 -0.250000 -0.250000  0.000000    0.25000000   1 t-inv T
  0.250000 -0.250000 -0.000000    0.25000000   2 t-inv T


--------------------------------------------------------------------------------------------------------




 Dimension of arrays:
   k-points           NKPTS =      2   k-points in BZ     NKDIM =      4   number of bands    NBANDS=    152
   number of dos      NEDOS =    301   number of ions     NIONS =     56
   non local maximal  LDIM  =      6   non local SUM 2l+1 LMDIM =     18
   total plane-waves  NPLWV = ******
   max r-space proj   IRMAX =      1   max aug-charges    IRDMAX=  14730
   dimension x,y,z NGX =    96 NGY =   90 NGZ =  150
   dimension x,y,z NGXF=   192 NGYF=  180 NGZF=  300
   support grid    NGXF=   192 NGYF=  180 NGZF=  300
   ions per type =              48   6   2
   NGX,Y,Z   is equivalent  to a cutoff of  12.53, 12.16, 12.30 a.u.
   NGXF,Y,Z  is equivalent  to a cutoff of  25.06, 24.32, 24.60 a.u.

 SYSTEM =  unknown system                          
 POSCAR =   C  N Fe                                

 Startparameter for this run:
   NWRITE =      2    write-flag & timer
   PREC   = accura    normal or accurate (medium, high low for compatibility)
   ISTART =      1    job   : 0-new  1-cont  2-samecut
   ICHARG =      0    charge: 1-file 2-atom 10-const
   ISPIN  =      2    spin polarized calculation?
   LNONCOLLINEAR =      F non collinear calculations
   LSORBIT =      F    spin-orbit coupling
   INIWAV =      1    electr: 0-lowe 1-rand  2-diag
   LASPH  =      T    aspherical Exc in radial PAW
   METAGGA=      F    non-selfconsistent MetaGGA calc.

 Electronic Relaxation 1
   ENCUT  =  500.0 eV  36.75 Ry    6.06 a.u.  23.22 22.43 36.96*2*pi/ulx,y,z
   ENINI  =  500.0     initial cutoff
   ENAUG  =  644.9 eV  augmentation charge cutoff
   NELM   =    250;   NELMIN=  2; NELMDL=  0     # of ELM steps 
   EDIFF  = 0.1E-03   stopping-criterion for ELM
   LREAL  =      F    real-space projection
   NLSPLINE    = F    spline interpolate recip. space projectors
   LCOMPAT=      F    compatible to vasp.4.4
   GGA_COMPAT  = T    GGA compatible to vasp.4.4-vasp.4.6
   LMAXPAW     = -100 max onsite density
   LMAXMIX     =    2 max onsite mixed and CHGCAR
   VOSKOWN=      0    Vosko Wilk Nusair interpolation
   ROPT   =    0.00000   0.00000   0.00000
 Ionic relaxation
   EDIFFG = -.3E-01   stopping-criterion for IOM
   NSW    =      0    number of steps for IOM
   NBLOCK =      1;   KBLOCK =      1    inner block; outer block 
   IBRION =     -1    ionic relax: 0-MD 1-quasi-New 2-CG
   NFREE  =      1    steps in history (QN), initial steepest desc. (CG)
   ISIF   =      2    stress and relaxation
   IWAVPR =     10    prediction:  0-non 1-charg 2-wave 3-comb
   ISYM   =      3    0-nonsym 1-usesym 2-fastsym
   LCORR  =      T    Harris-Foulkes like correction to forces

   POTIM  = 0.5000    time-step for ionic-motion
   TEIN   =    0.0    initial temperature
   TEBEG  =    0.0;   TEEND  =   0.0 temperature during run
   SMASS  =  -3.00    Nose mass-parameter (am)
   estimated Nose-frequenzy (Omega)   =  0.10E-29 period in steps =****** mass=  -0.371E-26a.u.
   SCALEE = 1.0000    scale energy and forces
   NPACO  =    256;   APACO  = 16.0  distance and # of slots for P.C.
   PSTRESS=    0.0 pullay stress

  Mass of Ions in am
   POMASS =  12.01 14.00 55.85
  Ionic Valenz
   ZVAL   =   4.00  5.00  8.00
  Atomic Wigner-Seitz radii
   RWIGS  =  -1.00 -1.00 -1.00
  virtual crystal weights 
   VCA    =   1.00  1.00  1.00
   NELECT =     238.0000    total number of electrons
   NUPDOWN=      -1.0000    fix difference up-down

 DOS related values:
   EMIN   =  10.00;   EMAX   =-10.00  energy-range for DOS
   EFERMI =   0.00
   ISMEAR =     0;   SIGMA  =   0.10  broadening in eV -4-tet -1-fermi 0-gaus

 Electronic relaxation 2 (details)
   IALGO  =     53    algorithm
   LDIAG  =      T    sub-space diagonalisation (order eigenvalues)
   LSUBROT=      F    optimize rotation matrix (better conditioning)
   TURBO    =      0    0=normal 1=particle mesh
   IRESTART =      0    0=no restart 2=restart with 2 vectors
   NREBOOT  =      0    no. of reboots
   NMIN     =      0    reboot dimension
   EREF     =   0.00    reference energy to select bands
   IMIX   =      4    mixing-type and parameters
     AMIX     =   0.40;   BMIX     =  1.00
     AMIX_MAG =   1.60;   BMIX_MAG =  1.00
     AMIN     =   0.10
     WC   =   100.;   INIMIX=   1;  MIXPRE=   1;  MAXMIX= -45

 Intra band minimization:
   WEIMIN = 0.0000     energy-eigenvalue tresh-hold
   EBREAK =  0.16E-06  absolut break condition
   DEPER  =   0.30     relativ break condition  

   TIME   =   0.20     timestep for ELM

  volume/ion in A,a.u.               =      56.73       382.84
  Fermi-wavevector in a.u.,A,eV,Ry     =   0.690133  1.304161  6.480223  0.476283
  Thomas-Fermi vector in A             =   1.771414
 
 Write flags
   LWAVE        =      T    write WAVECAR
   LDOWNSAMPLE  =      F    k-point downsampling of WAVECAR
   LCHARG       =      T    write CHGCAR
   LVTOT        =      F    write LOCPOT, total local potential
   LVHAR        =      F    write LOCPOT, Hartree potential only
   LELF         =      F    write electronic localiz. function (ELF)
   LORBIT       =     11    0 simple, 1 ext, 2 COOP (PROOUT), +10 PAW based schemes


 Dipole corrections
   LMONO  =      F    monopole corrections only (constant potential shift)
   LDIPOL =      T    correct potential (dipole corrections)
   IDIPOL =      3    1-x, 2-y, 3-z, 4-all directions 
   EPSILON=  1.0000000 bulk dielectric constant

 Exchange correlation treatment:
   GGA     =    PE    GGA type
   LEXCH   =     8    internal setting for exchange type
   VOSKOWN=      0    Vosko Wilk Nusair interpolation
   EXXOEP  =     0    0=HF, 1=EXX-LHF (local Hartree Fock) 2=EXX OEP
   LHFCALC =     T    Hartree Fock is set to
   LSYMGRAD=     F    symmetrize gradient (conserves proper symmetry)
   PRECFOCK=normal    Normal, Fast or Accurate (Low or Medium for compatibility)
   LRHFCALC=     F    long range Hartree Fock
   LRSCOR  =     F    long range correlation only (use DFT for short range part)
   LTHOMAS =     F    Thomas Fermi screening in HF
   LMODELHF=     F    short range full HF, long range fraction AEXX
   ENCUT4O =  -1.0   cutoff for four orbital integrals eV
   LMAXFOCK=     4    L truncation for augmentation on plane wave grid
   LMAXFOCKAE=  -1    L truncation for all-electron charge restoration on plane wave grid
   NMAXFOCKAE=   1    number of basis functions for all-electron charge restoration
   LFOCKAEDFT=     F  apply the AE augmentation even for DFT
   NKREDX  =     1    reduce k-point grid by
   NKREDY  =     1    reduce k-point grid by
   NKREDZ  =     1    reduce k-point grid by
   SHIFTRED=     F    shift reduced grid of Gamma
   HFKIDENT=     F    idential grid for each k-point
   ODDONLY =     F    use only odd q-grid points
   EVENONLY=     F    use only even q-grid points
   HFALPHA =   -1.0000 decay constant for conv. correction
   MCALPHA =    0.0000 extent of test-charge in conv. correction in multipole expansion
   AEXX    =    0.2500 exact exchange contribution
   HFSCREEN=    0.2000 screening length (either q_TF or 0.3 A-1)
   HFSCREENC=   0.2000 screening length for correlation (either q_TF or 0.3 A-1)
   HFRCUT  =    0.0000 spherical cutoff for potential kernel
   ALDAX   =    0.7500 LDA exchange part
   AGGAX   =    0.7500 GGA exchange part
   ALDAC   =    1.0000 LDA correlation
   AGGAC   =    1.0000 GGA correlation
   ENCUTFOCK=  -1.0 apply spherical cutoff to Coloumb kernel
   NBANDSGWLOW=     1    first orbital included in HF term
   NBLOCK_FOCK=    64    blocking factor in FOCK_ACC
 Linear response parameters
   LEPSILON=     F    determine dielectric tensor
   LRPA    =     F    only Hartree local field effects (RPA)
   LNABLA  =     F    use nabla operator in PAW spheres
   LVEL    =     F    velocity operator in full k-point grid
   LINTERFAST=   F  fast interpolation
   KINTER  =     0    interpolate to denser k-point grid
   CSHIFT  =0.1000    complex shift for real part using Kramers Kronig
   OMEGAMAX=  -1.0    maximum frequency
   DEG_THRESHOLD= 0.2000000E-02 threshold for treating states as degnerate
   RTIME   =   -0.100 relaxation time in fs
  (WPLASMAI=    0.000 imaginary part of plasma frequency in eV, 0.658/RTIME)
   DFIELD  = 0.0000000 0.0000000 0.0000000 field for delta impulse in time
 
 Orbital magnetization related:
   ORBITALMAG=     F  switch on orbital magnetization
   LCHIMAG   =     F  perturbation theory with respect to B field
   DQ        =  0.001000  dq finite difference perturbation B field
   LLRAUG    =     F  two centre corrections for induced B field



--------------------------------------------------------------------------------------------------------


 Static calculation
 charge density and potential will be updated during run
 spin polarized calculation
 Conjugate gradient for all bands (Freysoldt, et al. PRB 79, 241103 (2009))
 perform sub-space diagonalisation
    before iterative eigenvector-optimisation
 modified Broyden-mixing scheme, WC =      100.0
 initial mixing is a Kerker type mixing with AMIX =  0.4000 and BMIX =      1.0000
 Hartree-type preconditioning will be used
 using additional bands           33
 reciprocal scheme for non local part
 use partial core corrections
 no Harris-corrections to forces 
 use gradient corrections 
 use of overlap-Matrix (Vanderbilt PP)
 Gauss-broadening in eV      SIGMA  =   0.10


--------------------------------------------------------------------------------------------------------


  energy-cutoff  :      500.00
  volume of cell :     3176.90
      direct lattice vectors                 reciprocal lattice vectors
    12.736800000  0.000000000  0.000000000     0.078512656  0.000514420  0.000002963
    -0.080615468 12.303835904  0.000000000     0.000000000  0.081275466 -0.000008207
    -0.000778400  0.002047091 20.272299882     0.000000000  0.000000000  0.049328394

  length of vectors
    12.736800000 12.304100000 20.272300000     0.078514342  0.081275467  0.049328394


 
 old parameters found on file WAVECAR:
  energy-cutoff  :      500.00
  volume of cell :     3176.90
      direct lattice vectors                 reciprocal lattice vectors
    12.736800000  0.000000000  0.000000000     0.078512656  0.000514420  0.000002963
    -0.080615468 12.303835904  0.000000000     0.000000000  0.081275466 -0.000008207
    -0.000778400  0.002047091 20.272299882     0.000000000  0.000000000  0.049328394

  length of vectors

 
 k-points in units of 2pi/SCALE and weight: KPOINTS created by Atomic Simulation Env
   0.01962816  0.02044747 -0.00000131       0.500
  -0.01962816  0.02019026 -0.00000279       0.500
 
 k-points in reciprocal lattice and weights: KPOINTS created by Atomic Simulation Env
   0.25000000  0.25000000 -0.00000000       0.500
  -0.25000000  0.25000000  0.00000000       0.500
 
 position of ions in fractional coordinates (direct lattice) 
   0.22198708  0.00145967  0.49999623
   0.05601167  0.10157478  0.50007505
   0.11013376  0.00080527  0.50004663
   0.27797699  0.10221132  0.49995950
   0.22520276  0.20417146  0.49996897
   0.05678275  0.30210482  0.49997796
   0.11255249  0.20261163  0.50003042
   0.28506326  0.30416645  0.49984162
   0.22786258  0.40666913  0.49993835
   0.05580613  0.50051970  0.49993001
   0.11381769  0.40195282  0.49992862
   0.22528079  0.59734948  0.49999173
   0.05451897  0.69922332  0.49994533
   0.11197770  0.60027155  0.49993758
   0.28095471  0.70044875  0.49999378
   0.22239032  0.79950094  0.49993654
   0.05455800  0.89981277  0.50001971
   0.11014264  0.79945365  0.49995952
   0.27682316  0.90087224  0.49994867
   0.55448675  0.99949558  0.49992426
   0.38947514  0.10202310  0.49990256
   0.44389755  0.00094902  0.49992604
   0.61012136  0.10000367  0.49991673
   0.55699644  0.20149067  0.49980046
   0.44386210  0.20338345  0.49975742
   0.55451820  0.79703630  0.50007789
   0.38825729  0.90045856  0.49994392
   0.44138092  0.79895187  0.50002326
   0.60890759  0.89842695  0.49996013
   0.88824066  0.99972414  0.50005805
   0.72155768  0.09963069  0.49999107
   0.77638890  0.99905313  0.50002279
   0.94381510  0.10071925  0.50007987
   0.88823346  0.20108066  0.50004193
   0.71741066  0.30005855  0.49985350
   0.77598479  0.20101781  0.49999227
   0.94387662  0.30130851  0.49998388
   0.88642183  0.40025647  0.49991291
   0.77310883  0.40316652  0.49983295
   0.94259770  0.50000689  0.49991258
   0.88458544  0.59857530  0.49992007
   0.71330047  0.69631512  0.50001907
   0.77054376  0.59383912  0.49989304
   0.94161273  0.69842952  0.49994699
   0.88582818  0.79790861  0.49996083
   0.72039893  0.89828279  0.49998438
   0.77317036  0.79632772  0.49995988
   0.94236022  0.89895487  0.50002245
   0.28074109  0.50323275  0.50004517
   0.39344523  0.30267393  0.49957194
   0.61012685  0.29885496  0.49969308
   0.38824628  0.70161542  0.50012712
   0.60490774  0.69776285  0.50027684
   0.71767128  0.49728057  0.49976755
   0.50692409  0.41963314  0.49849057
   0.49124433  0.58047180  0.50148035
 
 position of ions in cartesian coordinates  (Angst):
   2.82689815  0.01898312 10.13607356
   0.70483173  1.25078308 10.13767138
   1.40229750  0.01093151 10.13709520
   3.53190840  1.25861480 10.13532887
   2.85151394  2.51311561 10.13552079
   0.69848699  3.71807163 10.13570321
   1.41683566  2.49392383 10.13676664
   3.60588408  3.74343734 10.13293928
   2.86906719  5.00461366 10.13490021
   0.67005274  6.15933565 10.13473109
   1.41688034  4.94658499 10.13470293
   2.82081159  7.35071351 10.13598234
   0.63763988  8.60415237 10.13504157
   1.37745723  7.38666612 10.13488457
   3.52160771  8.61922996 10.13602382
   2.76769971  9.83795174 10.13486356
   0.62196630 11.07217219 10.13654945
   1.33802728  9.83737001 10.13532935
   3.45282786 11.08520763 10.13510934
   6.98142284 12.29865301 10.13461458
   4.95205325  1.25629884 10.13417452
   5.65336867  0.01269997 10.13465052
   7.76254277  1.23145213 10.13446191
   7.07771998  2.48013131 10.13210490
   5.63659788  2.50341966 10.13123226
   6.99814467  9.80762751 10.13772902
   4.87217538 11.08011784 10.13501315
   5.55698334  9.83119624 10.13662142
   7.68271797 11.05512124 10.13534163
  11.23236123 12.30146545 10.13732672
   9.18191488  1.22686324 10.13596887
   9.80778174 12.29320942 10.13661196
  12.01267543  1.24025680 10.13776902
  11.29665254  2.47508711 10.13699988
   9.11293767  3.69289436 10.13318008
   9.86696878  2.47431366 10.13599322
  11.99728846  3.70827403 10.13582306
  11.25752159  4.92571329 10.13438444
   9.81404200  4.96151797 10.13276352
  11.96498100  6.15302609 10.13437768
  11.21814422  7.36579562 10.13452952
   9.02864240  8.56837050 10.13653663
   9.76600005  7.30752236 10.13398155
  11.93643966  8.59438560 10.13507534
  11.21790345  9.81836001 10.13535578
   9.10277239 11.05334752 10.13583323
   9.78313070  9.79890909 10.13533654
  11.92979472 11.06161675 10.13660497
   3.53478559  6.19271681 10.13706573
   4.98644411  3.72507303 10.12747219
   7.74658238  3.67808534 10.12992795
   4.88806485  8.63358484 10.13872701
   7.64794895  8.58618371 10.14176216
   9.10035803  6.11948160 10.13143761
   6.42237382  5.16411778 10.10555023
   6.20969543  7.14305635 10.16615998
 


--------------------------------------------------------------------------------------------------------


 k-point  1 :   0.2500 0.2500-0.0000  plane waves:   80640
 k-point  2 :  -0.2500 0.2500 0.0000  plane waves:   80632

 maximum and minimum number of plane-waves per node :      3398     3315

 maximum number of plane-waves:     80640
 maximum index in each direction: 
   IXMAX=   23   IYMAX=   22   IZMAX=   36
   IXMIN=  -23   IYMIN=  -22   IZMIN=  -36


 parallel 3D FFT for wavefunctions:
    minimum data exchange during FFTs selected (reduces bandwidth)
 parallel 3D FFT for charge:
    minimum data exchange during FFTs selected (reduces bandwidth)


 FFT grid for exact exchange (Hartree Fock) 
  NGX = 70; NGY = 70; NGZ =112

 
 Radii for the augmentation spheres in the non-local exchange
 for species   1 augmentation radius   0.874 (default was   0.699)
       energy cutoff for augmentation   2000.0
 for species   2 augmentation radius   0.886 (default was   0.709)
       energy cutoff for augmentation   2000.0
 for species   3 augmentation radius   1.263 (default was   1.010)
       energy cutoff for augmentation   2000.0

 real space projection operators:
  total allocation   :       2388.47 KBytes
  max/ min on nodes  :        141.44         36.70

 Maximum index for augmentation-charges in exchange           65
  SETUP_FOCK is finished

 total amount of memory used by VASP MPI-rank0   198132. kBytes
=======================================================================

   base      :      30000. kBytes
   nonl-proj :       5994. kBytes
   fftplans  :      17535. kBytes
   grid      :      42568. kBytes
   one-center:         93. kBytes
   HF        :         46. kBytes
   nonlr-proj:       1504. kBytes
   wavefun   :     100392. kBytes
 
     INWAV:  cpu time    3.2923: real time    5.6951
 Broyden mixing: mesh for mixing (old mesh)
   NGX = 47   NGY = 45   NGZ = 73
  (NGX  =192   NGY  =180   NGZ  =300)
  gives a total of 154395 points

 charge density for first step will be calculated from the start-wavefunctions


--------------------------------------------------------------------------------------------------------


 Maximum index for augmentation-charges          689 (set IRDMAX)


--------------------------------------------------------------------------------------------------------


 initial charge from wavefunction
 First call to EWALD:  gamma=   0.121
 Maximum number of real-space cells 3x 3x 2
 Maximum number of reciprocal cells 2x 2x 4

    FEWALD:  cpu time    0.0025: real time    0.0025


--------------------------------------- Iteration      1(   1)  ---------------------------------------


    POTLOK:  cpu time    2.0432: real time    2.0449
    SETDIJ:  cpu time    2.0764: real time    2.0797
    TRIAL :  cpu time  315.7349: real time  316.0557
    CORREC:  cpu time    0.0010: real time    0.0010
    CHARGE:  cpu time    1.3377: real time    1.3389
    --------------------------------------------
      LOOP:  cpu time  321.2276: real time  321.5556

 eigenvalue-minimisations  :     0
 total energy-change (2. order) :-0.5849939E+03  (-0.4266653E+00)
 number of electron     238.0000028 magnetization       4.0458862
 augmentation part       14.2942387 magnetization       3.3822430

 DIPCOR: dipole corrections for dipol
 direction  3 min pos     1,
 dipolmoment           0.000000     -0.000000     -0.000328 electrons x Angstroem
 Tr[quadrupol]     -6210.558769

 energy correction for charged system         0.000000 eV
 dipol+quadrupol energy correction            0.000000 eV
 added-field ion interaction          0.000000 eV  (added to PSCEN)


 Free energy of the ion-electron system (eV)
  ---------------------------------------------------
  alpha Z        PSCENC =        96.47950256
  Ewald energy   TEWEN  =     38650.92644061
  -Hartree energ DENC   =    -47046.22066027
  -exchange      EXHF   =       541.61356207
  -V(xc)+E(xc)   XCENC  =       605.21305420
  PAW double counting   =     25678.90715280   -25724.18883265
  entropy T*S    EENTRO =        -0.00960968
  eigenvalues    EBANDS =     -3114.99078257
  atomic energy  EATOM  =      9727.27606028
  ---------------------------------------------------
  free energy    TOTEN  =      -584.99385700 eV

  energy without entropy =     -584.98424733  energy(sigma->0) =     -584.98905217
  exchange ACFDT corr.  =        -0.00814871  see jH, gK, PRB 81, 115126


--------------------------------------------------------------------------------------------------------




--------------------------------------- Iteration      1(   2)  ---------------------------------------


    POTLOK:  cpu time    2.0589: real time    2.0612
    SETDIJ:  cpu time    2.0746: real time    2.0755
    TRIAL :  cpu time  317.7332: real time  318.4216
    CORREC:  cpu time    0.0010: real time    0.0010
    CHARGE:  cpu time    1.3434: real time    1.3441
    --------------------------------------------
      LOOP:  cpu time  323.2121: real time  323.9066

 eigenvalue-minimisations  :     0
 total energy-change (2. order) :-0.3581157E+00  (-0.3884093E+00)
 number of electron     238.0000028 magnetization       4.0451938
 augmentation part       14.2684519 magnetization       3.5041883

 DIPCOR: dipole corrections for dipol
 direction  3 min pos     1,
 dipolmoment           0.000000     -0.000000     -0.000637 electrons x Angstroem
 Tr[quadrupol]     -6210.358874

 energy correction for charged system         0.000000 eV
 dipol+quadrupol energy correction            0.000000 eV
 added-field ion interaction          0.000000 eV  (added to PSCEN)


 Free energy of the ion-electron system (eV)
  ---------------------------------------------------
  alpha Z        PSCENC =        96.47950257
  Ewald energy   TEWEN  =     38650.92644061
  -Hartree energ DENC   =    -47027.86742416
  -exchange      EXHF   =       541.45584435
  -V(xc)+E(xc)   XCENC  =       604.82246961
  PAW double counting   =     25795.59267394   -25840.11575589
  entropy T*S    EENTRO =        -0.00942113
  eigenvalues    EBANDS =     -3133.91217429
  atomic energy  EATOM  =      9727.27606028
  ---------------------------------------------------
  free energy    TOTEN  =      -585.35197267 eV

  energy without entropy =     -585.34255153  energy(sigma->0) =     -585.34726210
  exchange ACFDT corr.  =        -0.01067666  see jH, gK, PRB 81, 115126


--------------------------------------------------------------------------------------------------------




--------------------------------------- Iteration      1(   3)  ---------------------------------------


    POTLOK:  cpu time    2.0840: real time    2.0850
    SETDIJ:  cpu time    2.0889: real time    2.0901
    TRIAL :  cpu time  317.4723: real time  317.8467
    CORREC:  cpu time    0.0010: real time    0.0010
    CHARGE:  cpu time    1.3396: real time    1.3404
    --------------------------------------------
      LOOP:  cpu time  322.9874: real time  323.3675

 eigenvalue-minimisations  :     0
 total energy-change (2. order) :-0.3067439E+00  (-0.2341265E+00)
 number of electron     238.0000028 magnetization       4.0406379
 augmentation part       14.2699756 magnetization       3.6083477

 DIPCOR: dipole corrections for dipol
 direction  3 min pos     1,
 dipolmoment           0.000000     -0.000000     -0.000503 electrons x Angstroem
 Tr[quadrupol]     -6210.181977

 energy correction for charged system         0.000000 eV
 dipol+quadrupol energy correction            0.000000 eV
 added-field ion interaction          0.000000 eV  (added to PSCEN)


 Free energy of the ion-electron system (eV)
  ---------------------------------------------------
  alpha Z        PSCENC =        96.47950257
  Ewald energy   TEWEN  =     38650.92644061
  -Hartree energ DENC   =    -47011.88138345
  -exchange      EXHF   =       541.40680231
  -V(xc)+E(xc)   XCENC  =       604.49675312
  PAW double counting   =     25952.39652954   -25996.68085804
  entropy T*S    EENTRO =        -0.00903331
  eigenvalues    EBANDS =     -3150.06914234
  atomic energy  EATOM  =      9727.27606028
  ---------------------------------------------------
  free energy    TOTEN  =      -585.65871654 eV

  energy without entropy =     -585.64968323  energy(sigma->0) =     -585.65419989
  exchange ACFDT corr.  =        -0.00840499  see jH, gK, PRB 81, 115126


--------------------------------------------------------------------------------------------------------




--------------------------------------- Iteration      1(   4)  ---------------------------------------


    POTLOK:  cpu time    2.0961: real time    2.1033
    SETDIJ:  cpu time    2.0642: real time    2.0663
    TRIAL :  cpu time  316.7519: real time  317.0819
    CORREC:  cpu time    0.0009: real time    0.0009
    CHARGE:  cpu time    1.3373: real time    1.3381
    --------------------------------------------
      LOOP:  cpu time  322.2515: real time  322.5944

 eigenvalue-minimisations  :     0
 total energy-change (2. order) :-0.1832218E+00  (-0.1386163E+00)
 number of electron     238.0000028 magnetization       4.0357959
 augmentation part       14.2722981 magnetization       3.6872200

 DIPCOR: dipole corrections for dipol
 direction  3 min pos     1,
 dipolmoment           0.000000     -0.000000     -0.000744 electrons x Angstroem
 Tr[quadrupol]     -6210.117208

 energy correction for charged system         0.000000 eV
 dipol+quadrupol energy correction            0.000000 eV
 added-field ion interaction          0.000000 eV  (added to PSCEN)


 Free energy of the ion-electron system (eV)
  ---------------------------------------------------
  alpha Z        PSCENC =        96.47950258
  Ewald energy   TEWEN  =     38650.92644061
  -Hartree energ DENC   =    -47005.62907887
  -exchange      EXHF   =       541.57596663
  -V(xc)+E(xc)   XCENC  =       604.41692150
  PAW double counting   =     26091.11774058   -26135.57544756
  entropy T*S    EENTRO =        -0.00885569
  eigenvalues    EBANDS =     -3156.42101079
  atomic energy  EATOM  =      9727.27606028
  ---------------------------------------------------
  free energy    TOTEN  =      -585.84193837 eV

  energy without entropy =     -585.83308268  energy(sigma->0) =     -585.83751053
  exchange ACFDT corr.  =        -0.00898691  see jH, gK, PRB 81, 115126


--------------------------------------------------------------------------------------------------------




--------------------------------------- Iteration      1(   5)  ---------------------------------------


    POTLOK:  cpu time    2.0928: real time    2.0949
    SETDIJ:  cpu time    2.0710: real time    2.0736
    TRIAL :  cpu time  316.7497: real time  317.0540
    CORREC:  cpu time    0.0009: real time    0.0009
    CHARGE:  cpu time    1.3345: real time    1.3368
    --------------------------------------------
      LOOP:  cpu time  322.2501: real time  322.5641

 eigenvalue-minimisations  :     0
 total energy-change (2. order) :-0.1139496E+00  (-0.9392024E-01)
 number of electron     238.0000028 magnetization       4.0296731
 augmentation part       14.2719441 magnetization       3.7427865

 DIPCOR: dipole corrections for dipol
 direction  3 min pos     1,
 dipolmoment           0.000000     -0.000000     -0.000636 electrons x Angstroem
 Tr[quadrupol]     -6210.133619

 energy correction for charged system         0.000000 eV
 dipol+quadrupol energy correction            0.000000 eV
 added-field ion interaction          0.000000 eV  (added to PSCEN)


 Free energy of the ion-electron system (eV)
  ---------------------------------------------------
  alpha Z        PSCENC =        96.47950257
  Ewald energy   TEWEN  =     38650.92644061
  -Hartree energ DENC   =    -47006.17257321
  -exchange      EXHF   =       541.88330651
  -V(xc)+E(xc)   XCENC  =       604.51572797
  PAW double counting   =     26191.03821583   -26235.63170544
  entropy T*S    EENTRO =        -0.00870062
  eigenvalues    EBANDS =     -3156.26200745
  atomic energy  EATOM  =      9727.27606028
  ---------------------------------------------------
  free energy    TOTEN  =      -585.95588802 eV

  energy without entropy =     -585.94718740  energy(sigma->0) =     -585.95153771
  exchange ACFDT corr.  =        -0.00717588  see jH, gK, PRB 81, 115126


--------------------------------------------------------------------------------------------------------




--------------------------------------- Iteration      1(   6)  ---------------------------------------


    POTLOK:  cpu time    2.0905: real time    2.0915
    SETDIJ:  cpu time    2.0710: real time    2.0728
    TRIAL :  cpu time  316.6937: real time  317.0206
    CORREC:  cpu time    0.0009: real time    0.0009
    CHARGE:  cpu time    1.3364: real time    1.3375
    --------------------------------------------
      LOOP:  cpu time  322.1935: real time  322.5269

 eigenvalue-minimisations  :     0
 total energy-change (2. order) :-0.7981542E-01  (-0.6640493E-01)
 number of electron     238.0000028 magnetization       4.0219845
 augmentation part       14.2735629 magnetization       3.7806258

 DIPCOR: dipole corrections for dipol
 direction  3 min pos     1,
 dipolmoment           0.000000     -0.000000     -0.000609 electrons x Angstroem
 Tr[quadrupol]     -6210.176537

 energy correction for charged system         0.000000 eV
 dipol+quadrupol energy correction            0.000000 eV
 added-field ion interaction          0.000000 eV  (added to PSCEN)


 Free energy of the ion-electron system (eV)
  ---------------------------------------------------
  alpha Z        PSCENC =        96.47950257
  Ewald energy   TEWEN  =     38650.92644061
  -Hartree energ DENC   =    -47009.11761897
  -exchange      EXHF   =       542.19950212
  -V(xc)+E(xc)   XCENC  =       604.67033660
  PAW double counting   =     26254.27767584   -26298.91961170
  entropy T*S    EENTRO =        -0.00840800
  eigenvalues    EBANDS =     -3153.81929017
  atomic energy  EATOM  =      9727.27606028
  ---------------------------------------------------
  free energy    TOTEN  =      -586.03570344 eV

  energy without entropy =     -586.02729545  energy(sigma->0) =     -586.03149945
  exchange ACFDT corr.  =        -0.00676055  see jH, gK, PRB 81, 115126


--------------------------------------------------------------------------------------------------------




--------------------------------------- Iteration      1(   7)  ---------------------------------------


    POTLOK:  cpu time    2.0838: real time    2.0852
    SETDIJ:  cpu time    2.0739: real time    2.0754
    TRIAL :  cpu time  316.8149: real time  317.1580
    CORREC:  cpu time    0.0009: real time    0.0009
    CHARGE:  cpu time    1.3359: real time    1.3369
    --------------------------------------------
      LOOP:  cpu time  322.3105: real time  322.6602

 eigenvalue-minimisations  :     0
 total energy-change (2. order) :-0.5803054E-01  (-0.4905505E-01)
 number of electron     238.0000028 magnetization       4.0144613
 augmentation part       14.2770350 magnetization       3.8078220

 DIPCOR: dipole corrections for dipol
 direction  3 min pos     1,
 dipolmoment           0.000000     -0.000000     -0.000652 electrons x Angstroem
 Tr[quadrupol]     -6210.213937

 energy correction for charged system         0.000000 eV
 dipol+quadrupol energy correction            0.000000 eV
 added-field ion interaction          0.000000 eV  (added to PSCEN)


 Free energy of the ion-electron system (eV)
  ---------------------------------------------------
  alpha Z        PSCENC =        96.47950257
  Ewald energy   TEWEN  =     38650.92644061
  -Hartree energ DENC   =    -47011.91823590
  -exchange      EXHF   =       542.44906970
  -V(xc)+E(xc)   XCENC  =       604.80516028
  PAW double counting   =     26290.64903794   -26335.34653803
  entropy T*S    EENTRO =        -0.00808515
  eigenvalues    EBANDS =     -3151.40582345
  atomic energy  EATOM  =      9727.27606028
  ---------------------------------------------------
  free energy    TOTEN  =      -586.09373399 eV

  energy without entropy =     -586.08564884  energy(sigma->0) =     -586.08969141
  exchange ACFDT corr.  =        -0.00695613  see jH, gK, PRB 81, 115126


--------------------------------------------------------------------------------------------------------




--------------------------------------- Iteration      1(   8)  ---------------------------------------


    POTLOK:  cpu time    2.0786: real time    2.0795
    SETDIJ:  cpu time    2.0722: real time    2.0752
    TRIAL :  cpu time  316.3222: real time  316.6232
    CORREC:  cpu time    0.0009: real time    0.0009
    CHARGE:  cpu time    1.3466: real time    1.3474
    --------------------------------------------
      LOOP:  cpu time  321.8217: real time  322.1301

 eigenvalue-minimisations  :     0
 total energy-change (2. order) :-0.4388129E-01  (-0.3760911E-01)
 number of electron     238.0000028 magnetization       4.0086876
 augmentation part       14.2797133 magnetization       3.8297725

 DIPCOR: dipole corrections for dipol
 direction  3 min pos     1,
 dipolmoment           0.000000     -0.000000     -0.000630 electrons x Angstroem
 Tr[quadrupol]     -6210.235109

 energy correction for charged system         0.000000 eV
 dipol+quadrupol energy correction            0.000000 eV
 added-field ion interaction          0.000000 eV  (added to PSCEN)


 Free energy of the ion-electron system (eV)
  ---------------------------------------------------
  alpha Z        PSCENC =        96.47950257
  Ewald energy   TEWEN  =     38650.92644061
  -Hartree energ DENC   =    -47013.59080064
  -exchange      EXHF   =       542.61917821
  -V(xc)+E(xc)   XCENC  =       604.89622698
  PAW double counting   =     26309.57291097   -26354.34988975
  entropy T*S    EENTRO =        -0.00787769
  eigenvalues    EBANDS =     -3149.95915935
  atomic energy  EATOM  =      9727.27606028
  ---------------------------------------------------
  free energy    TOTEN  =      -586.13761528 eV

  energy without entropy =     -586.12973759  energy(sigma->0) =     -586.13367643
  exchange ACFDT corr.  =        -0.00663336  see jH, gK, PRB 81, 115126


--------------------------------------------------------------------------------------------------------




--------------------------------------- Iteration      1(   9)  ---------------------------------------


    POTLOK:  cpu time    2.0737: real time    2.0794
    SETDIJ:  cpu time    2.0677: real time    2.0729
    TRIAL :  cpu time  316.0883: real time  316.3840
    CORREC:  cpu time    0.0010: real time    0.0010
    CHARGE:  cpu time    1.3371: real time    1.3378
    --------------------------------------------
      LOOP:  cpu time  321.5693: real time  321.8792

 eigenvalue-minimisations  :     0
 total energy-change (2. order) :-0.3422694E-01  (-0.2981118E-01)
 number of electron     238.0000028 magnetization       4.0049864
 augmentation part       14.2807081 magnetization       3.8491563

 DIPCOR: dipole corrections for dipol
 direction  3 min pos     1,
 dipolmoment           0.000000     -0.000000     -0.000609 electrons x Angstroem
 Tr[quadrupol]     -6210.242182

 energy correction for charged system         0.000000 eV
 dipol+quadrupol energy correction            0.000000 eV
 added-field ion interaction          0.000000 eV  (added to PSCEN)


 Free energy of the ion-electron system (eV)
  ---------------------------------------------------
  alpha Z        PSCENC =        96.47950257
  Ewald energy   TEWEN  =     38650.92644061
  -Hartree energ DENC   =    -47014.16054791
  -exchange      EXHF   =       542.73121138
  -V(xc)+E(xc)   XCENC  =       604.95038145
  PAW double counting   =     26318.12996418   -26362.97604913
  entropy T*S    EENTRO =        -0.00782458
  eigenvalues    EBANDS =     -3149.52092795
  atomic energy  EATOM  =      9727.27606028
  ---------------------------------------------------
  free energy    TOTEN  =      -586.17184221 eV

  energy without entropy =     -586.16401763  energy(sigma->0) =     -586.16792992
  exchange ACFDT corr.  =        -0.00667682  see jH, gK, PRB 81, 115126


--------------------------------------------------------------------------------------------------------




--------------------------------------- Iteration      1(  10)  ---------------------------------------


    POTLOK:  cpu time    2.0672: real time    2.0694
    SETDIJ:  cpu time    2.0733: real time    2.0750
    TRIAL :  cpu time  316.5652: real time  316.8556
    CORREC:  cpu time    0.0009: real time    0.0009
    CHARGE:  cpu time    1.3348: real time    1.3358
    --------------------------------------------
      LOOP:  cpu time  322.0428: real time  322.3410

 eigenvalue-minimisations  :     0
 total energy-change (2. order) :-0.2756570E-01  (-0.2442086E-01)
 number of electron     238.0000028 magnetization       4.0034536
 augmentation part       14.2810384 magnetization       3.8669581

 DIPCOR: dipole corrections for dipol
 direction  3 min pos     1,
 dipolmoment           0.000000     -0.000000     -0.000619 electrons x Angstroem
 Tr[quadrupol]     -6210.241789

 energy correction for charged system         0.000000 eV
 dipol+quadrupol energy correction            0.000000 eV
 added-field ion interaction          0.000000 eV  (added to PSCEN)


 Free energy of the ion-electron system (eV)
  ---------------------------------------------------
  alpha Z        PSCENC =        96.47950257
  Ewald energy   TEWEN  =     38650.92644061
  -Hartree energ DENC   =    -47014.11194121
  -exchange      EXHF   =       542.81205054
  -V(xc)+E(xc)   XCENC  =       604.98429044
  PAW double counting   =     26321.09592039   -26365.98602999
  entropy T*S    EENTRO =        -0.00795199
  eigenvalues    EBANDS =     -3149.66787696
  atomic energy  EATOM  =      9727.27606028
  ---------------------------------------------------
  free energy    TOTEN  =      -586.19940792 eV

  energy without entropy =     -586.19145593  energy(sigma->0) =     -586.19543192
  exchange ACFDT corr.  =        -0.00625837  see jH, gK, PRB 81, 115126


--------------------------------------------------------------------------------------------------------




--------------------------------------- Iteration      1(  11)  ---------------------------------------


    POTLOK:  cpu time    2.0627: real time    2.0636
    SETDIJ:  cpu time    2.0729: real time    2.0746
    TRIAL :  cpu time  316.8479: real time  317.1466
    CORREC:  cpu time    0.0009: real time    0.0009
    CHARGE:  cpu time    1.3349: real time    1.3355
    --------------------------------------------
      LOOP:  cpu time  322.3204: real time  322.6250

 eigenvalue-minimisations  :     0
 total energy-change (2. order) :-0.2293923E-01  (-0.2074886E-01)
 number of electron     238.0000028 magnetization       4.0077775
 augmentation part       14.2828008 magnetization       3.8849766

 DIPCOR: dipole corrections for dipol
 direction  3 min pos     1,
 dipolmoment           0.000000     -0.000000     -0.000620 electrons x Angstroem
 Tr[quadrupol]     -6210.239315

 energy correction for charged system         0.000000 eV
 dipol+quadrupol energy correction            0.000000 eV
 added-field ion interaction          0.000000 eV  (added to PSCEN)


 Free energy of the ion-electron system (eV)
  ---------------------------------------------------
  alpha Z        PSCENC =        96.47950257
  Ewald energy   TEWEN  =     38650.92644061
  -Hartree energ DENC   =    -47013.90068016
  -exchange      EXHF   =       542.87857718
  -V(xc)+E(xc)   XCENC  =       605.01062199
  PAW double counting   =     26321.58746878   -26366.51011394
  entropy T*S    EENTRO =        -0.00862574
  eigenvalues    EBANDS =     -3149.96227247
  atomic energy  EATOM  =      9727.27606028
  ---------------------------------------------------
  free energy    TOTEN  =      -586.22234715 eV

  energy without entropy =     -586.21372140  energy(sigma->0) =     -586.21803428
  exchange ACFDT corr.  =        -0.00668830  see jH, gK, PRB 81, 115126


--------------------------------------------------------------------------------------------------------




--------------------------------------- Iteration      1(  12)  ---------------------------------------


    POTLOK:  cpu time    2.0560: real time    2.0573
    SETDIJ:  cpu time    2.0820: real time    2.0830
    TRIAL :  cpu time  316.4001: real time  316.6858
    CORREC:  cpu time    0.0009: real time    0.0009
    CHARGE:  cpu time    1.3338: real time    1.3354
    --------------------------------------------
      LOOP:  cpu time  321.8739: real time  322.1665

 eigenvalue-minimisations  :     0
 total energy-change (2. order) :-0.2013579E-01  (-0.1908466E-01)
 number of electron     238.0000028 magnetization       4.0286901
 augmentation part       14.2881723 magnetization       3.9077374

 DIPCOR: dipole corrections for dipol
 direction  3 min pos     1,
 dipolmoment           0.000000     -0.000000     -0.000604 electrons x Angstroem
 Tr[quadrupol]     -6210.238115

 energy correction for charged system         0.000000 eV
 dipol+quadrupol energy correction            0.000000 eV
 added-field ion interaction          0.000000 eV  (added to PSCEN)


 Free energy of the ion-electron system (eV)
  ---------------------------------------------------
  alpha Z        PSCENC =        96.47950257
  Ewald energy   TEWEN  =     38650.92644061
  -Hartree energ DENC   =    -47013.84629518
  -exchange      EXHF   =       542.93828634
  -V(xc)+E(xc)   XCENC  =       605.03775415
  PAW double counting   =     26321.70825336   -26366.68026951
  entropy T*S    EENTRO =        -0.01071174
  eigenvalues    EBANDS =     -3150.07358982
  atomic energy  EATOM  =      9727.27606028
  ---------------------------------------------------
  free energy    TOTEN  =      -586.24248294 eV

  energy without entropy =     -586.23177120  energy(sigma->0) =     -586.23712707
  exchange ACFDT corr.  =        -0.01015577  see jH, gK, PRB 81, 115126


--------------------------------------------------------------------------------------------------------




--------------------------------------- Iteration      1(  13)  ---------------------------------------


    POTLOK:  cpu time    2.0514: real time    2.0522
    SETDIJ:  cpu time    2.0710: real time    2.0746
    TRIAL :  cpu time  315.1192: real time  315.4236
    CORREC:  cpu time    0.0010: real time    0.0010
    CHARGE:  cpu time    1.3298: real time    1.3313
    --------------------------------------------
      LOOP:  cpu time  320.5741: real time  320.8868

 eigenvalue-minimisations  :     0
 total energy-change (2. order) :-0.1940406E-01  (-0.1933355E-01)
 number of electron     238.0000028 magnetization       4.0695847
 augmentation part       14.2951522 magnetization       3.9375487

 DIPCOR: dipole corrections for dipol
 direction  3 min pos     1,
 dipolmoment           0.000000     -0.000000     -0.000589 electrons x Angstroem
 Tr[quadrupol]     -6210.240742

 energy correction for charged system         0.000000 eV
 dipol+quadrupol energy correction            0.000000 eV
 added-field ion interaction          0.000000 eV  (added to PSCEN)


 Free energy of the ion-electron system (eV)
  ---------------------------------------------------
  alpha Z        PSCENC =        96.47950257
  Ewald energy   TEWEN  =     38650.92644061
  -Hartree energ DENC   =    -47014.19723999
  -exchange      EXHF   =       542.99520965
  -V(xc)+E(xc)   XCENC  =       605.07411260
  PAW double counting   =     26322.90589564   -26367.97036809
  entropy T*S    EENTRO =        -0.01447803
  eigenvalues    EBANDS =     -3149.74078852
  atomic energy  EATOM  =      9727.27606028
  ---------------------------------------------------
  free energy    TOTEN  =      -586.26188700 eV

  energy without entropy =     -586.24740897  energy(sigma->0) =     -586.25464798
  exchange ACFDT corr.  =        -0.02306355  see jH, gK, PRB 81, 115126


--------------------------------------------------------------------------------------------------------




--------------------------------------- Iteration      1(  14)  ---------------------------------------


    POTLOK:  cpu time    2.0470: real time    2.0479
    SETDIJ:  cpu time    1.6385: real time    2.0744
    TRIAL :  cpu time  316.5989: real time  316.9333
    CORREC:  cpu time    0.0010: real time    0.0010
    CHARGE:  cpu time    1.3293: real time    1.3310
    --------------------------------------------
      LOOP:  cpu time  321.6159: real time  322.3918

 eigenvalue-minimisations  :     0
 total energy-change (2. order) :-0.1971326E-01  (-0.2056181E-01)
 number of electron     238.0000028 magnetization       4.1223878
 augmentation part       14.2995095 magnetization       3.9720728

 DIPCOR: dipole corrections for dipol
 direction  3 min pos     1,
 dipolmoment           0.000000     -0.000000     -0.000581 electrons x Angstroem
 Tr[quadrupol]     -6210.245988

 energy correction for charged system         0.000000 eV
 dipol+quadrupol energy correction            0.000000 eV
 added-field ion interaction          0.000000 eV  (added to PSCEN)


 Free energy of the ion-electron system (eV)
  ---------------------------------------------------
  alpha Z        PSCENC =        96.47950257
  Ewald energy   TEWEN  =     38650.92644061
  -Hartree energ DENC   =    -47014.82138109
  -exchange      EXHF   =       543.05342472
  -V(xc)+E(xc)   XCENC  =       605.12082515
  PAW double counting   =     26325.43181931   -26370.60092604
  entropy T*S    EENTRO =        -0.01927118
  eigenvalues    EBANDS =     -3149.13288773
  atomic energy  EATOM  =      9727.27606028
  ---------------------------------------------------
  free energy    TOTEN  =      -586.28160026 eV

  energy without entropy =     -586.26232908  energy(sigma->0) =     -586.27196467
  exchange ACFDT corr.  =        -0.04738415  see jH, gK, PRB 81, 115126


--------------------------------------------------------------------------------------------------------




--------------------------------------- Iteration      1(  15)  ---------------------------------------


    POTLOK:  cpu time    2.0433: real time    2.0450
    SETDIJ:  cpu time    2.0759: real time    2.0768
    TRIAL :  cpu time  315.1947: real time  315.5313
    CORREC:  cpu time    0.0010: real time    0.0010
    CHARGE:  cpu time    1.3289: real time    1.3319
    --------------------------------------------
      LOOP:  cpu time  320.6448: real time  320.9896

 eigenvalue-minimisations  :     0
 total energy-change (2. order) :-0.2092940E-01  (-0.2252316E-01)
 number of electron     238.0000028 magnetization       4.1852002
 augmentation part       14.3023361 magnetization       4.0105745

 DIPCOR: dipole corrections for dipol
 direction  3 min pos     1,
 dipolmoment           0.000000     -0.000000     -0.000570 electrons x Angstroem
 Tr[quadrupol]     -6210.249824

 energy correction for charged system         0.000000 eV
 dipol+quadrupol energy correction            0.000000 eV
 added-field ion interaction          0.000000 eV  (added to PSCEN)


 Free energy of the ion-electron system (eV)
  ---------------------------------------------------
  alpha Z        PSCENC =        96.47950257
  Ewald energy   TEWEN  =     38650.92644061
  -Hartree energ DENC   =    -47015.31814353
  -exchange      EXHF   =       543.11392137
  -V(xc)+E(xc)   XCENC  =       605.17040328
  PAW double counting   =     26328.47982328   -26373.70745518
  entropy T*S    EENTRO =        -0.02469786
  eigenvalues    EBANDS =     -3148.70381116
  atomic energy  EATOM  =      9727.27606028
  ---------------------------------------------------
  free energy    TOTEN  =      -586.30252966 eV

  energy without entropy =     -586.27783180  energy(sigma->0) =     -586.29018073
  exchange ACFDT corr.  =        -0.07765847  see jH, gK, PRB 81, 115126


--------------------------------------------------------------------------------------------------------




--------------------------------------- Iteration      1(  16)  ---------------------------------------


    POTLOK:  cpu time    2.0412: real time    2.0427
    SETDIJ:  cpu time    2.0879: real time    2.0889
    TRIAL :  cpu time  314.0790: real time  314.3584
    CORREC:  cpu time    0.0010: real time    0.0010
    CHARGE:  cpu time    1.3270: real time    1.3289
    --------------------------------------------
      LOOP:  cpu time  319.5371: real time  319.8236

 eigenvalue-minimisations  :     0
 total energy-change (2. order) :-0.2294094E-01  (-0.2504281E-01)
 number of electron     238.0000028 magnetization       4.2640896
 augmentation part       14.3079092 magnetization       4.0552795

 DIPCOR: dipole corrections for dipol
 direction  3 min pos     1,
 dipolmoment           0.000000     -0.000000     -0.000561 electrons x Angstroem
 Tr[quadrupol]     -6210.252128

 energy correction for charged system         0.000000 eV
 dipol+quadrupol energy correction            0.000000 eV
 added-field ion interaction          0.000000 eV  (added to PSCEN)


 Free energy of the ion-electron system (eV)
  ---------------------------------------------------
  alpha Z        PSCENC =        96.47950257
  Ewald energy   TEWEN  =     38650.92644061
  -Hartree energ DENC   =    -47015.70920143
  -exchange      EXHF   =       543.17608582
  -V(xc)+E(xc)   XCENC  =       605.22234887
  PAW double counting   =     26331.74277344   -26377.00178304
  entropy T*S    EENTRO =        -0.03088422
  eigenvalues    EBANDS =     -3148.41299985
  atomic energy  EATOM  =      9727.27606028
  ---------------------------------------------------
  free energy    TOTEN  =      -586.32547060 eV

  energy without entropy =     -586.29458638  energy(sigma->0) =     -586.31002849
  exchange ACFDT corr.  =        -0.11179639  see jH, gK, PRB 81, 115126


--------------------------------------------------------------------------------------------------------




--------------------------------------- Iteration      1(  17)  ---------------------------------------


    POTLOK:  cpu time    2.0400: real time    2.0412
    SETDIJ:  cpu time    2.0735: real time    2.0750
    TRIAL :  cpu time  313.8759: real time  314.1700
    CORREC:  cpu time    0.0010: real time    0.0010
    CHARGE:  cpu time    1.3270: real time    1.3291
    --------------------------------------------
      LOOP:  cpu time  319.3183: real time  319.6198

 eigenvalue-minimisations  :     0
 total energy-change (2. order) :-0.2568434E-01  (-0.2876608E-01)
 number of electron     238.0000028 magnetization       4.3619908
 augmentation part       14.3166392 magnetization       4.1071683

 DIPCOR: dipole corrections for dipol
 direction  3 min pos     1,
 dipolmoment           0.000000     -0.000000     -0.000554 electrons x Angstroem
 Tr[quadrupol]     -6210.255975

 energy correction for charged system         0.000000 eV
 dipol+quadrupol energy correction            0.000000 eV
 added-field ion interaction          0.000000 eV  (added to PSCEN)


 Free energy of the ion-electron system (eV)
  ---------------------------------------------------
  alpha Z        PSCENC =        96.47950257
  Ewald energy   TEWEN  =     38650.92644061
  -Hartree energ DENC   =    -47016.34285844
  -exchange      EXHF   =       543.24215533
  -V(xc)+E(xc)   XCENC  =       605.28401054
  PAW double counting   =     26335.56112299   -26380.88718730
  entropy T*S    EENTRO =        -0.03752092
  eigenvalues    EBANDS =     -3147.85951730
  atomic energy  EATOM  =      9727.27606028
  ---------------------------------------------------
  free energy    TOTEN  =      -586.35115494 eV

  energy without entropy =     -586.31363402  energy(sigma->0) =     -586.33239448
  exchange ACFDT corr.  =        -0.15028203  see jH, gK, PRB 81, 115126


--------------------------------------------------------------------------------------------------------




--------------------------------------- Iteration      1(  18)  ---------------------------------------


    POTLOK:  cpu time    2.0401: real time    2.0426
    SETDIJ:  cpu time    2.0755: real time    2.0776
    TRIAL :  cpu time  312.8828: real time  313.1627
    CORREC:  cpu time    0.0010: real time    0.0010
    CHARGE:  cpu time    1.3288: real time    1.3294
    --------------------------------------------
      LOOP:  cpu time  318.3288: real time  318.6169

 eigenvalue-minimisations  :     0
 total energy-change (2. order) :-0.2939271E-01  (-0.3353139E-01)
 number of electron     238.0000028 magnetization       4.4735050
 augmentation part       14.3247959 magnetization       4.1638617

 DIPCOR: dipole corrections for dipol
 direction  3 min pos     1,
 dipolmoment           0.000000     -0.000000     -0.000543 electrons x Angstroem
 Tr[quadrupol]     -6210.262002

 energy correction for charged system         0.000000 eV
 dipol+quadrupol energy correction            0.000000 eV
 added-field ion interaction          0.000000 eV  (added to PSCEN)


 Free energy of the ion-electron system (eV)
  ---------------------------------------------------
  alpha Z        PSCENC =        96.47950257
  Ewald energy   TEWEN  =     38650.92644061
  -Hartree energ DENC   =    -47017.28296758
  -exchange      EXHF   =       543.31468881
  -V(xc)+E(xc)   XCENC  =       605.35733715
  PAW double counting   =     26339.89060798   -26385.32193639
  entropy T*S    EENTRO =        -0.04373375
  eigenvalues    EBANDS =     -3146.98276015
  atomic energy  EATOM  =      9727.27606028
  ---------------------------------------------------
  free energy    TOTEN  =      -586.38054765 eV

  energy without entropy =     -586.33681389  energy(sigma->0) =     -586.35868077
  exchange ACFDT corr.  =        -0.19443767  see jH, gK, PRB 81, 115126


--------------------------------------------------------------------------------------------------------




--------------------------------------- Iteration      1(  19)  ---------------------------------------


    POTLOK:  cpu time    2.0406: real time    2.0441
    SETDIJ:  cpu time    2.0954: real time    2.0974
    TRIAL :  cpu time  313.0515: real time  313.3414
    CORREC:  cpu time    0.0010: real time    0.0010
    CHARGE:  cpu time    1.3278: real time    1.3285
    --------------------------------------------
      LOOP:  cpu time  318.5176: real time  318.8165

 eigenvalue-minimisations  :     0
 total energy-change (2. order) :-0.3392131E-01  (-0.3883124E-01)
 number of electron     238.0000028 magnetization       4.5955790
 augmentation part       14.3316796 magnetization       4.2240597

 DIPCOR: dipole corrections for dipol
 direction  3 min pos     1,
 dipolmoment           0.000000     -0.000000     -0.000527 electrons x Angstroem
 Tr[quadrupol]     -6210.267363

 energy correction for charged system         0.000000 eV
 dipol+quadrupol energy correction            0.000000 eV
 added-field ion interaction          0.000000 eV  (added to PSCEN)


 Free energy of the ion-electron system (eV)
  ---------------------------------------------------
  alpha Z        PSCENC =        96.47950257
  Ewald energy   TEWEN  =     38650.92644061
  -Hartree energ DENC   =    -47018.21614749
  -exchange      EXHF   =       543.39258257
  -V(xc)+E(xc)   XCENC  =       605.43502757
  PAW double counting   =     26344.09764970   -26389.61402223
  entropy T*S    EENTRO =        -0.04901374
  eigenvalues    EBANDS =     -3146.14782876
  atomic energy  EATOM  =      9727.27606028
  ---------------------------------------------------
  free energy    TOTEN  =      -586.41446896 eV

  energy without entropy =     -586.36545522  energy(sigma->0) =     -586.38996209
  exchange ACFDT corr.  =        -0.23687168  see jH, gK, PRB 81, 115126


--------------------------------------------------------------------------------------------------------




--------------------------------------- Iteration      1(  20)  ---------------------------------------


    POTLOK:  cpu time    2.0461: real time    2.0483
    SETDIJ:  cpu time    2.0779: real time    2.0798
    TRIAL :  cpu time  313.2511: real time  313.5362
    CORREC:  cpu time    0.0010: real time    0.0010
    CHARGE:  cpu time    1.3292: real time    1.3302
    --------------------------------------------
      LOOP:  cpu time  318.7067: real time  318.9996

 eigenvalue-minimisations  :     0
 total energy-change (2. order) :-0.3897117E-01  (-0.4426031E-01)
 number of electron     238.0000028 magnetization       4.7313741
 augmentation part       14.3400322 magnetization       4.2892142

 DIPCOR: dipole corrections for dipol
 direction  3 min pos     1,
 dipolmoment           0.000000     -0.000000     -0.000508 electrons x Angstroem
 Tr[quadrupol]     -6210.271165

 energy correction for charged system         0.000000 eV
 dipol+quadrupol energy correction            0.000000 eV
 added-field ion interaction          0.000000 eV  (added to PSCEN)


 Free energy of the ion-electron system (eV)
[...]
  Alpha Z    96.47950    96.47950    96.47950
  Ewald   46796.45553 47100.29652-55245.85057   -24.40495    -3.89276     0.63917
  Hartree 46352.47117 46469.71698-45803.52242    -7.64676    -2.12347     0.03828
  E(xc)    -699.39037  -701.56765  -713.56395     0.20214    -0.07983     0.04444
  Local  -95698.68941-96114.22603 98037.93225    30.48110     5.46515    -0.17499
  n-local  -171.17196  -168.25686  -159.85385    -1.84113    -0.02785     0.01177
  augment    51.32124    60.84898    51.57038     0.74964     0.40495    -0.24733
  Kinetic  3570.46157  3561.04739  4039.56099     2.79977     0.75411    -0.44624
  Fock     -331.97843  -339.86971  -303.35318    -1.20344    -0.35625     0.07170
  -------------------------------------------------------------------------------------
  Total     -34.04115   -35.53088    -0.60084    -0.86362     0.14406    -0.06320
  in kB     -17.16765   -17.91895    -0.30302    -0.43554     0.07265    -0.03187
  external pressure =      -11.80 kB  Pullay stress =        0.00 kB


 VOLUME and BASIS-vectors are now :
 -----------------------------------------------------------------------------
  energy-cutoff  :      500.00
  volume of cell :     3176.90
      direct lattice vectors                 reciprocal lattice vectors
    12.736800000  0.000000000  0.000000000     0.078512656  0.000514420  0.000002963
    -0.080615468 12.303835904  0.000000000     0.000000000  0.081275466 -0.000008207
    -0.000778400  0.002047091 20.272299882     0.000000000  0.000000000  0.049328394

  length of vectors
    12.736800000 12.304100000 20.272300000     0.078514342  0.081275467  0.049328394


 FORCES acting on ions:
    Electron-Ion                     Ewald-Force                    Non-Local-Force
 -----------------------------------------------------------------------------------------------
   0.278E+01 -.157E+01 -.205E+00   -.316E+01 0.160E+01 0.207E+00   0.399E+00 -.408E-01 -.342E-02
   -.640E-01 -.334E+01 -.605E+00   0.167E+00 0.330E+01 0.605E+00   -.610E-02 0.197E-01 -.123E-02
   0.295E+01 0.164E+00 -.421E+00   -.306E+01 -.157E+00 0.420E+00   0.792E-01 0.595E-02 -.533E-03
   0.860E+01 0.976E+00 -.199E+00   -.891E+01 -.120E+01 0.199E+00   0.309E+00 0.208E+00 -.290E-03
   0.778E+01 -.659E+01 -.383E+00   -.798E+01 0.694E+01 0.383E+00   0.261E+00 -.245E+00 -.555E-02
   0.185E+01 -.170E+01 -.102E+00   -.203E+01 0.145E+01 0.103E+00   0.159E+00 0.124E+00 0.356E-03
   -.146E+01 0.431E+00 -.484E+00   0.105E+01 -.322E+00 0.484E+00   0.219E+00 -.810E-01 -.307E-03
   0.262E+02 -.190E+02 0.233E-01   -.288E+02 0.191E+02 0.136E-01   0.296E+01 -.547E+00 -.498E-01
   -.128E+01 0.251E+02 -.371E-01   0.457E-01 -.270E+02 0.346E-01   0.124E+01 0.229E+01 0.940E-02
   0.788E+01 0.237E+01 0.112E+00   -.744E+01 -.240E+01 -.111E+00   -.613E-01 0.401E-01 -.187E-02
   -.517E+01 0.468E+01 0.199E+00   0.528E+01 -.513E+01 -.199E+00   -.186E+00 0.513E+00 0.912E-02
   0.408E+01 -.190E+02 0.697E-01   -.548E+01 0.207E+02 -.748E-01   0.138E+01 -.214E+01 0.156E-01
   0.461E+01 0.227E+01 0.140E+00   -.486E+01 -.204E+01 -.140E+00   0.222E+00 -.129E+00 -.857E-03
   -.145E+01 -.474E+01 0.245E+00   0.143E+01 0.519E+01 -.235E+00   -.794E-01 -.501E+00 -.400E-02
   0.305E+02 0.153E+02 0.416E+00   -.335E+02 -.155E+02 -.431E+00   0.332E+01 0.524E+00 0.179E-01
   0.100E+02 0.284E+01 0.473E+00   -.103E+02 -.302E+01 -.478E+00   0.388E+00 0.753E-01 0.552E-02
   0.151E+01 0.720E+00 -.231E+00   -.147E+01 -.662E+00 0.231E+00   0.532E-01 -.662E-01 -.120E-02
   0.144E+01 -.606E+00 0.154E+00   -.195E+01 0.518E+00 -.155E+00   0.328E+00 0.695E-01 0.740E-03
   0.811E+01 -.434E+01 0.255E+00   -.840E+01 0.465E+01 -.251E+00   0.276E+00 -.288E+00 -.122E-02
   -.531E+01 0.216E+01 0.185E+00   0.496E+01 -.219E+01 -.186E+00   0.335E+00 0.375E-01 0.775E-03
   0.104E+01 0.529E+01 -.132E+00   -.805E+00 -.579E+01 0.135E+00   -.148E+00 0.443E+00 -.915E-03
   0.527E+01 -.210E+01 0.900E-01   -.492E+01 0.213E+01 -.886E-01   -.337E+00 -.329E-01 -.126E-02
   -.166E+00 0.616E+01 -.121E+00   -.125E+00 -.672E+01 0.123E+00   0.182E+00 0.487E+00 0.281E-02
   0.136E+02 0.245E+02 -.673E-01   -.147E+02 -.271E+02 0.671E-01   0.153E+01 0.282E+01 -.266E-02
   -.699E+01 0.194E+02 0.188E+00   0.780E+01 -.217E+02 -.211E+00   -.132E+01 0.261E+01 0.144E-01
   0.701E+01 -.193E+02 0.167E+00   -.782E+01 0.216E+02 -.147E+00   0.132E+01 -.260E+01 -.108E-01
   0.106E+00 -.604E+01 0.372E+00   0.186E+00 0.659E+01 -.374E+00   -.183E+00 -.486E+00 -.238E-02
   -.138E+02 -.244E+02 0.502E+00   0.148E+02 0.270E+02 -.503E+00   -.154E+01 -.281E+01 0.615E-02
   -.994E+00 -.512E+01 0.393E+00   0.758E+00 0.562E+01 -.395E+00   0.148E+00 -.439E+00 0.250E-02
   -.294E+01 -.156E+00 -.454E+00   0.304E+01 0.149E+00 0.454E+00   -.792E-01 -.817E-02 -.800E-03
   -.813E+01 0.431E+01 -.371E+00   0.842E+01 -.462E+01 0.368E+00   -.277E+00 0.286E+00 0.119E-02
   -.276E+01 0.166E+01 -.310E+00   0.314E+01 -.169E+01 0.310E+00   -.399E+00 0.381E-01 -.110E-02
   -.149E+01 -.710E+00 -.615E+00   0.144E+01 0.654E+00 0.615E+00   -.525E-01 0.640E-01 -.561E-03
   -.142E+01 0.572E+00 -.557E+00   0.193E+01 -.482E+00 0.557E+00   -.326E+00 -.724E-01 -.236E-02
   -.306E+02 -.155E+02 -.121E+00   0.336E+02 0.156E+02 0.137E+00   -.332E+01 -.525E+00 -.172E-01
   -.100E+02 -.283E+01 -.524E+00   0.103E+02 0.301E+01 0.530E+00   -.388E+00 -.781E-01 -.489E-02
   -.458E+01 -.225E+01 -.206E+00   0.483E+01 0.202E+01 0.207E+00   -.224E+00 0.127E+00 -.832E-05
   0.152E+01 0.471E+01 0.574E-01   -.151E+01 -.516E+01 -.674E-01   0.778E-01 0.500E+00 0.593E-02
   -.403E+01 0.191E+02 0.318E+00   0.542E+01 -.208E+02 -.311E+00   -.138E+01 0.214E+01 -.152E-01
   -.783E+01 -.238E+01 0.165E+00   0.739E+01 0.242E+01 -.166E+00   0.598E-01 -.402E-01 0.250E-03
   0.522E+01 -.470E+01 0.127E+00   -.532E+01 0.515E+01 -.128E+00   0.185E+00 -.514E+00 -.596E-02
   -.260E+02 0.190E+02 0.203E+00   0.286E+02 -.191E+02 -.240E+00   -.295E+01 0.548E+00 0.505E-01
   0.138E+01 -.252E+02 0.376E+00   -.141E+00 0.271E+02 -.370E+00   -.124E+01 -.229E+01 -.105E-01
   -.180E+01 0.170E+01 0.716E-01   0.198E+01 -.145E+01 -.711E-01   -.160E+00 -.127E+00 -.125E-02
   0.153E+01 -.430E+00 0.180E+00   -.113E+01 0.322E+00 -.180E+00   -.219E+00 0.802E-01 0.116E-02
   -.861E+01 -.969E+00 0.549E-01   0.892E+01 0.119E+01 -.538E-01   -.308E+00 -.209E+00 -.120E-02
   -.772E+01 0.669E+01 0.353E+00   0.792E+01 -.704E+01 -.353E+00   -.260E+00 0.245E+00 0.704E-02
   0.102E+00 0.336E+01 -.227E+00   -.205E+00 -.333E+01 0.227E+00   0.704E-02 -.215E-01 -.154E-02
   -.114E+03 0.524E+01 -.908E+00   0.144E+03 -.469E+01 0.839E+00   -.287E+02 -.474E+00 0.285E-01
   -.584E+01 -.723E+02 0.176E+01   0.170E+02 0.925E+02 -.180E+01   -.113E+02 -.196E+02 0.109E+00
   0.957E+01 -.654E+02 0.211E+00   -.206E+02 0.851E+02 -.306E+00   0.109E+02 -.194E+02 0.775E-01
   -.998E+01 0.655E+02 0.419E+00   0.210E+02 -.852E+02 -.348E+00   -.109E+02 0.194E+02 -.546E-01
   0.623E+01 0.729E+02 -.141E+01   -.174E+02 -.931E+02 0.144E+01   0.113E+02 0.197E+02 -.102E+00
   0.114E+03 -.531E+01 0.145E+01   -.145E+03 0.476E+01 -.140E+01   0.287E+02 0.470E+00 -.165E-01
   -.381E+01 -.389E+02 0.206E+02   0.289E+01 0.336E+02 -.204E+02   0.224E+01 0.270E+01 -.445E+00
   0.297E+01 0.377E+02 -.217E+02   -.211E+01 -.324E+02 0.214E+02   -.217E+01 -.267E+01 0.443E+00
 -----------------------------------------------------------------------------------------------
   -.958E-01 -.895E-01 -.285E-01   -.234E-12 -.547E-12 0.000E+00   0.908E-01 0.842E-01 0.403E-01
 
 
 POSITION                                       TOTAL-FORCE (eV/Angst)
 -----------------------------------------------------------------------------------
      2.82690      0.01898     10.13607         0.034756     -0.015455     -0.001887
      0.70483      1.25078     10.13767         0.095816     -0.017525     -0.001636
      1.40230      0.01093     10.13710        -0.020262      0.014676     -0.001524
      3.53191      1.25861     10.13533         0.025435      0.001997     -0.000360
      2.85151      2.51312     10.13552         0.077080      0.081596     -0.006137
      0.69849      3.71807     10.13570        -0.003890     -0.117739      0.000676
      1.41684      2.49392     10.13677        -0.178061      0.029722     -0.001118
      3.60588      3.74344     10.13294         0.554773     -0.477965     -0.015641
      2.86907      5.00461     10.13490         0.074567      0.553329      0.007132
      0.67005      6.15934     10.13473         0.384670      0.012868     -0.000702
      1.41688      4.94658     10.13470        -0.100473      0.087448      0.009328
      2.82081      7.35071     10.13598         0.074178     -0.570572      0.010995
      0.63764      8.60415     10.13504        -0.006568      0.095097     -0.001449
      1.37746      7.38667     10.13488        -0.104747     -0.088962      0.005631
      3.52161      8.61923     10.13602         0.557567      0.396398      0.003157
      2.76770      9.83795     10.13486         0.117651     -0.098619      0.000611
      0.62197     11.07217     10.13655         0.103827     -0.012048     -0.001553
      1.33803      9.83737     10.13533        -0.164559     -0.018400      0.000411
      3.45283     11.08521     10.13511         0.009278      0.003084      0.002226
      6.98142     12.29865     10.13461         0.000018      0.012518     -0.000322
      4.95205      1.25630     10.13417         0.072634     -0.034607      0.001477
      5.65337      0.01270     10.13465        -0.000161     -0.007099     -0.000223
      7.76254      1.23145     10.13446        -0.094780     -0.040170      0.004467
      7.07772      2.48013     10.13210         0.614208      0.406120     -0.003405
      5.63660      2.50342     10.13123        -0.580935      0.459173     -0.008883
      6.99814      9.80763     10.13773         0.581970     -0.450021      0.009537
      4.87218     11.08012     10.13501         0.095479      0.036255     -0.004448
      5.55698      9.83120     10.13662        -0.616658     -0.403559      0.005729
      7.68272     11.05512     10.13534        -0.075370      0.031061     -0.000062
     11.23236     12.30147     10.13733         0.019164     -0.017388     -0.001147
      9.18191      1.22686     10.13597        -0.009297     -0.003837     -0.002330
      9.80778     12.29321     10.13661        -0.034664      0.012531     -0.001424
     12.01268      1.24026     10.13777        -0.104386      0.011509     -0.001541
     11.29665      2.47509     10.13700         0.166844      0.016370     -0.002610
      9.11294      3.69289     10.13318        -0.549202     -0.394563     -0.002176
      9.86697      2.47431     10.13599        -0.118231      0.095837      0.000295
     11.99729      3.70827     10.13582         0.003963     -0.096267      0.000676
     11.25752      4.92571     10.13438         0.101460      0.086439     -0.004064
      9.81404      4.96152     10.13276        -0.074212      0.565320     -0.008711
     11.96498      6.15303     10.13438        -0.386682     -0.012347     -0.000822
     11.21814      7.36580     10.13453         0.101063     -0.088538     -0.007295
      9.02864      8.56837     10.13654        -0.554627      0.480200      0.016477
      9.76600      7.30752     10.13398        -0.077491     -0.551969     -0.005548
     11.93644      8.59439     10.13508         0.003071      0.112951     -0.001078
     11.21790      9.81836     10.13536         0.175624     -0.029002      0.001050
      9.10277     11.05335     10.13583        -0.023444     -0.003817     -0.000437
      9.78313      9.79891     10.13534        -0.077843     -0.083442      0.007148
     11.92979     11.06162     10.13660        -0.094573      0.015638     -0.002115
      3.53479      6.19272     10.13707        -1.127638      0.039528     -0.036204
      4.98644      3.72507     10.12747        -1.168831     -1.150129      0.076080
      7.74658      3.67809     10.12993         0.827834     -1.465860     -0.010391
      4.88806      8.63358     10.13873        -0.825691      1.456103      0.010844
      7.64795      8.58618     10.14176         1.163622      1.139575     -0.074346
      9.10036      6.11948     10.13144         1.122857     -0.037288      0.034499
      6.42237      5.16412     10.10555         1.350942     -1.870114     -0.149513
      6.20970      7.14306     10.16616        -1.337073      1.903959      0.152654
 -----------------------------------------------------------------------------------
    total drift:                                0.001650      0.001933      0.016314


--------------------------------------------------------------------------------------------------------



  FREE ENERGIE OF THE ION-ELECTRON SYSTEM (eV)
  ---------------------------------------------------
  free  energy   TOTEN  =      -587.22799936 eV

  energy  without entropy=     -587.22309933  energy(sigma->0) =     -587.22554934
 


--------------------------------------------------------------------------------------------------------


    POTLOK:  cpu time    4.1261: real time    4.1297


--------------------------------------------------------------------------------------------------------


 stress matrix after NEB project (eV)
    -34.04115     -0.86782     -0.06320
     -0.86362    -35.53088      0.14382
     -0.06304      0.14406     -0.60084
  FORCES: max atom, RMS     2.331550    0.737398
  FORCE total and by dimension    5.518183    1.903959
  Stress total and by dimension   49.225529   35.530877
 writing wavefunctions
     LOOP+:  cpu time26890.6360: real time26925.9356
    4ORBIT:  cpu time    0.0000: real time    0.0000
 


 total charge     
 
# of ion       s       p       d       tot
------------------------------------------
    1        0.864   1.787   0.000   2.652
    2        0.866   1.770   0.000   2.636
    3        0.867   1.778   0.000   2.646
    4        0.871   1.766   0.000   2.637
    5        0.863   1.762   0.000   2.625
    6        0.864   1.777   0.000   2.642
    7        0.866   1.767   0.000   2.632
    8        0.854   1.710   0.000   2.564
    9        0.854   1.723   0.000   2.577
   10        0.869   1.765   0.000   2.634
   11        0.865   1.763   0.000   2.628
   12        0.858   1.739   0.000   2.597
   13        0.864   1.778   0.000   2.642
   14        0.868   1.773   0.000   2.641
   15        0.860   1.736   0.000   2.596
   16        0.866   1.775   0.000   2.642
   17        0.866   1.771   0.000   2.637
   18        0.868   1.774   0.000   2.642
   19        0.872   1.770   0.000   2.642
   20        0.867   1.796   0.000   2.663
   21        0.869   1.782   0.000   2.651
   22        0.867   1.796   0.000   2.663
   23        0.870   1.787   0.000   2.656
   24        0.862   1.746   0.000   2.609
   25        0.861   1.738   0.000   2.599
   26        0.861   1.738   0.000   2.599
   27        0.870   1.787   0.000   2.656
   28        0.862   1.746   0.000   2.609
   29        0.869   1.782   0.000   2.651
   30        0.867   1.778   0.000   2.646
   31        0.872   1.770   0.000   2.642
   32        0.864   1.787   0.000   2.651
   33        0.866   1.771   0.000   2.637
   34        0.868   1.774   0.000   2.641
   35        0.860   1.736   0.000   2.596
   36        0.866   1.775   0.000   2.641
   37        0.864   1.778   0.000   2.642
   38        0.868   1.773   0.000   2.641
   39        0.858   1.739   0.000   2.597
   40        0.869   1.765   0.000   2.634
   41        0.865   1.763   0.000   2.628
   42        0.853   1.710   0.000   2.563
   43        0.854   1.723   0.000   2.577
   44        0.864   1.777   0.000   2.642
   45        0.866   1.766   0.000   2.632
   46        0.871   1.766   0.000   2.637
   47        0.863   1.762   0.000   2.625
   48        0.866   1.770   0.000   2.636
   49        1.253   2.606   0.000   3.859
   50        1.234   2.646   0.000   3.881
   51        1.239   2.679   0.000   3.918
   52        1.239   2.679   0.000   3.918
   53        1.235   2.646   0.000   3.880
   54        1.253   2.606   0.000   3.859
   55        0.402   0.388   6.317   7.107
   56        0.402   0.386   6.314   7.103
--------------------------------------------------
tot         49.765 101.303  12.631 163.699
 


 magnetization (x)
 
# of ion       s       p       d       tot
------------------------------------------
    1        0.000   0.001   0.000   0.001
    2        0.000   0.001   0.000   0.001
    3       -0.000   0.000   0.000   0.000
    4        0.000   0.002   0.000   0.002
    5        0.000   0.002   0.000   0.002
    6        0.000   0.002   0.000   0.002
    7       -0.000  -0.000   0.000  -0.000
    8       -0.000   0.001   0.000   0.001
    9        0.001   0.004   0.000   0.004
   10       -0.000   0.001   0.000   0.001
   11       -0.000   0.000   0.000   0.000
   12        0.000   0.002   0.000   0.003
   13        0.000   0.001   0.000   0.002
   14       -0.000   0.000   0.000  -0.000
   15       -0.000   0.003   0.000   0.003
   16        0.000   0.002   0.000   0.002
   17        0.000   0.001   0.000   0.001
   18       -0.000  -0.000   0.000  -0.000
   19        0.000   0.002   0.000   0.002
   20        0.000   0.002   0.000   0.002
   21       -0.000  -0.000   0.000  -0.000
   22        0.000   0.002   0.000   0.002
   23       -0.000  -0.000   0.000  -0.001
   24        0.001   0.005   0.000   0.006
   25        0.000   0.005   0.000   0.006
   26        0.000   0.005   0.000   0.006
   27       -0.000  -0.000   0.000  -0.000
   28        0.001   0.005   0.000   0.006
   29       -0.000  -0.000   0.000  -0.000
   30       -0.000   0.000   0.000   0.000
   31        0.000   0.002   0.000   0.002
   32        0.000   0.001   0.000   0.001
   33        0.000   0.001   0.000   0.001
   34       -0.000   0.000   0.000   0.000
   35        0.000   0.003   0.000   0.003
   36        0.000   0.002   0.000   0.002
   37        0.000   0.001   0.000   0.002
   38       -0.000   0.000   0.000   0.000
   39        0.000   0.002   0.000   0.002
   40       -0.000   0.001   0.000   0.000
   41       -0.000   0.000   0.000   0.000
   42       -0.000   0.001   0.000   0.001
   43        0.001   0.004   0.000   0.004
   44        0.000   0.002   0.000   0.002
   45       -0.000  -0.000   0.000  -0.000
   46        0.000   0.002   0.000   0.002
   47        0.000   0.002   0.000   0.002
   48        0.000   0.001   0.000   0.001
   49       -0.004  -0.012   0.000  -0.017
   50       -0.002  -0.009   0.000  -0.010
   51       -0.002  -0.009   0.000  -0.010
   52       -0.002  -0.009   0.000  -0.010
   53       -0.001  -0.009   0.000  -0.010
   54       -0.004  -0.012   0.000  -0.017
   55       -0.080  -0.056   3.161   3.026
   56       -0.081  -0.056   3.165   3.028
--------------------------------------------------
tot         -0.171  -0.099   6.326   6.056
 

 total amount of memory used by VASP MPI-rank0   211074. kBytes
=======================================================================

   base      :      30000. kBytes
   nonl-proj :       5994. kBytes
   fftplans  :      17535. kBytes
   grid      :      42568. kBytes
   one-center:         93. kBytes
   HF        :         46. kBytes
   nonlr-proj:      14446. kBytes
   wavefun   :     100392. kBytes
 
  
  
 General timing and accounting informations for this job:
 ========================================================
  
                  Total CPU time used (sec):    26935.342
                            User time (sec):    26898.126
                          System time (sec):       37.217
                         Elapsed time (sec):    26976.876
  
                   Maximum memory used (kb):      481488.
                   Average memory used (kb):           0.
  
                          Minor page faults:      1316196
                          Major page faults:          190
                 Voluntary context switches:       293704
