 vasp.5.4.4.18Apr17-6-g9f103f2a35 (build Feb 25 2019 10:51:38) complex          
  
 executed on             LinuxIFC date 2021.08.06  11:28:12
 running on   32 total cores
 distrk:  each k-point on   32 cores,    1 groups
 distr:  one band on NCORES_PER_BAND=  32 cores,    1 groups


--------------------------------------------------------------------------------------------------------


 INCAR:
 POTCAR:    PAW_PBE C 08Apr2002                   
 POTCAR:    PAW_PBE N 08Apr2002                   
 POTCAR:    PAW_PBE Fe 06Sep2000                  
 POTCAR:    PAW_PBE Mn 06Sep2000                  

 ----------------------------------------------------------------------------- 
|                                                                             |
|           W    W    AA    RRRRR   N    N  II  N    N   GGGG   !!!           |
|           W    W   A  A   R    R  NN   N  II  NN   N  G    G  !!!           |
|           W    W  A    A  R    R  N N  N  II  N N  N  G       !!!           |
|           W WW W  AAAAAA  RRRRR   N  N N  II  N  N N  G  GGG   !            |
|           WW  WW  A    A  R   R   N   NN  II  N   NN  G    G                |
|           W    W  A    A  R    R  N    N  II  N    N   GGGG   !!!           |
|                                                                             |
|      For optimal performance we recommend to set                            |
|        NCORE= 4 - approx SQRT( number of cores)                             |
|      NCORE specifies how many cores store one orbital (NPAR=cpu/NCORE).     |
|      This setting can  greatly improve the performance of VASP for DFT.     |
|      The default,   NCORE=1            might be grossly inefficient         |
|      on modern multi-core architectures or massively parallel machines.     |
|      Do your own testing !!!!                                               |
|      Unfortunately you need to use the default for GW and RPA calculations. |
|      (for HF NCORE is supported but not extensively tested yet)             |
|                                                                             |
 ----------------------------------------------------------------------------- 

 POTCAR:    PAW_PBE C 08Apr2002                   
   VRHFIN =C: s2p2                                                              
   LEXCH  = PE                                                                  
   EATOM  =   147.1560 eV,   10.8157 Ry                                         
                                                                                
   TITEL  = PAW_PBE C 08Apr2002                                                 
   LULTRA =        F    use ultrasoft PP ?                                      
   IUNSCR =        1    unscreen: 0-lin 1-nonlin 2-no                           
   RPACOR =    1.200    partial core radius                                     
   POMASS =   12.011; ZVAL   =    4.000    mass and valenz                      
   RCORE  =    1.500    outmost cutoff radius                                   
   RWIGS  =    1.630; RWIGS  =    0.863    wigner-seitz radius (au A)           
   ENMAX  =  400.000; ENMIN  =  300.000 eV                                      
   ICORE  =        2    local potential                                         
   LCOR   =        T    correct aug charges                                     
   LPAW   =        T    paw PP                                                  
   EAUG   =  644.873                                                            
   DEXC   =    0.000                                                            
   RMAX   =    1.529    core radius for proj-oper                               
   RAUG   =    1.300    factor for augmentation sphere                          
   RDEP   =    1.501    radius for radial grids                                 
   RDEPT  =    1.300    core radius for aug-charge                              
                                                                                
   Atomic configuration                                                         
    4 entries                                                                   
     n  l   j            E        occ.                                          
     1  0  0.50      -273.3789   2.0000                                         
     2  0  0.50       -13.7508   2.0000                                         
     2  1  0.50        -5.2854   2.0000                                         
     3  2  1.50        -5.4423   0.0000                                         
   Description                                                                  
     l       E           TYP  RCUT    TYP  RCUT                                 
     0    -13.7508458     23  1.200                                             
     0     -8.2022199     23  1.200                                             
     1     -5.2854383     23  1.500                                             
     1     34.0145650     23  1.500                                             
     2     -5.4423304      7  1.500                                             
  local pseudopotential read in
  partial core-charges read in
  partial kinetic energy density read in
  atomic valenz-charges read in
  non local Contribution for L=           0  read in
    real space projection operators read in
  non local Contribution for L=           0  read in
    real space projection operators read in
  non local Contribution for L=           1  read in
    real space projection operators read in
  non local Contribution for L=           1  read in
    real space projection operators read in
    PAW grid and wavefunctions read in
 
   number of l-projection  operators is LMAX  =           4
   number of lm-projection operators is LMMAX =           8
 
 POTCAR:    PAW_PBE N 08Apr2002                   
   VRHFIN =N: s2p3                                                              
   LEXCH  = PE                                                                  
   EATOM  =   264.5486 eV,   19.4438 Ry                                         
                                                                                
   TITEL  = PAW_PBE N 08Apr2002                                                 
   LULTRA =        F    use ultrasoft PP ?                                      
   IUNSCR =        1    unscreen: 0-lin 1-nonlin 2-no                           
   RPACOR =    1.200    partial core radius                                     
   POMASS =   14.001; ZVAL   =    5.000    mass and valenz                      
   RCORE  =    1.500    outmost cutoff radius                                   
   RWIGS  =    1.400; RWIGS  =    0.741    wigner-seitz radius (au A)           
   ENMAX  =  400.000; ENMIN  =  300.000 eV                                      
   ICORE  =        2    local potential                                         
   LCOR   =        T    correct aug charges                                     
   LPAW   =        T    paw PP                                                  
   EAUG   =  627.112                                                            
   DEXC   =    0.000                                                            
   RMAX   =    1.529    core radius for proj-oper                               
   RAUG   =    1.300    factor for augmentation sphere                          
   RDEP   =    1.514    radius for radial grids                                 
   RDEPT  =    1.338    core radius for aug-charge                              
                                                                                
   Atomic configuration                                                         
    4 entries                                                                   
     n  l   j            E        occ.                                          
     1  0  0.50      -384.7179   2.0000                                         
     2  0  0.50       -18.5828   2.0000                                         
     2  1  0.50        -7.0898   3.0000                                         
     3  2  1.50        -6.8029   0.0000                                         
   Description                                                                  
     l       E           TYP  RCUT    TYP  RCUT                                 
     0    -18.5828119     23  1.200                                             
     0    -13.5018863     23  1.200                                             
     1     -7.0897853     23  1.500                                             
     1      9.5240782     23  1.500                                             
     2     -6.8029130      7  1.500                                             
  local pseudopotential read in
  partial core-charges read in
  partial kinetic energy density read in
  atomic valenz-charges read in
  non local Contribution for L=           0  read in
    real space projection operators read in
  non local Contribution for L=           0  read in
    real space projection operators read in
  non local Contribution for L=           1  read in
    real space projection operators read in
  non local Contribution for L=           1  read in
    real space projection operators read in
    PAW grid and wavefunctions read in
 
   number of l-projection  operators is LMAX  =           4
   number of lm-projection operators is LMMAX =           8
 
 POTCAR:    PAW_PBE Fe 06Sep2000                  
   VRHFIN =Fe:  d7 s1                                                           
   LEXCH  = PE                                                                  
   EATOM  =   594.3153 eV,   43.6809 Ry                                         
                                                                                
   TITEL  = PAW_PBE Fe 06Sep2000                                                
   LULTRA =        F    use ultrasoft PP ?                                      
   IUNSCR =        1    unscreen: 0-lin 1-nonlin 2-no                           
   RPACOR =    2.000    partial core radius                                     
   POMASS =   55.847; ZVAL   =    8.000    mass and valenz                      
   RCORE  =    2.300    outmost cutoff radius                                   
   RWIGS  =    2.460; RWIGS  =    1.302    wigner-seitz radius (au A)           
   ENMAX  =  267.882; ENMIN  =  200.911 eV                                      
   RCLOC  =    1.701    cutoff for local pot                                    
   LCOR   =        T    correct aug charges                                     
   LPAW   =        T    paw PP                                                  
   EAUG   =  511.368                                                            
   DEXC   =    0.000                                                            
   RMAX   =    2.356    core radius for proj-oper                               
   RAUG   =    1.300    factor for augmentation sphere                          
   RDEP   =    2.442    radius for radial grids                                 
   RDEPT  =    1.890    core radius for aug-charge                              
                                                                                
   Atomic configuration                                                         
    9 entries                                                                   
     n  l   j            E        occ.                                          
     1  0  0.50     -6993.8440   2.0000                                         
     2  0  0.50      -814.6047   2.0000                                         
     2  1  1.50      -693.3689   6.0000                                         
     3  0  0.50       -89.4732   2.0000                                         
     3  1  1.50       -55.6373   6.0000                                         
     3  2  2.50        -3.8151   7.0000                                         
     4  0  0.50        -4.2551   1.0000                                         
     4  1  1.50        -3.4015   0.0000                                         
     4  3  2.50        -1.3606   0.0000                                         
   Description                                                                  
     l       E           TYP  RCUT    TYP  RCUT                                 
     2     -3.8151135     23  2.300                                             
     2     -5.1756961     23  2.300                                             
     0     -4.2550963     23  2.300                                             
     0      7.2035603     23  2.300                                             
     1     -2.7211652     23  2.300                                             
     1     18.4316424     23  2.300                                             
  local pseudopotential read in
  partial core-charges read in
  partial kinetic energy density read in
  atomic valenz-charges read in
  non local Contribution for L=           2  read in
    real space projection operators read in
  non local Contribution for L=           2  read in
    real space projection operators read in
  non local Contribution for L=           0  read in
    real space projection operators read in
  non local Contribution for L=           0  read in
    real space projection operators read in
  non local Contribution for L=           1  read in
    real space projection operators read in
  non local Contribution for L=           1  read in
    real space projection operators read in
    PAW grid and wavefunctions read in
 
   number of l-projection  operators is LMAX  =           6
   number of lm-projection operators is LMMAX =          18
 
 POTCAR:    PAW_PBE Mn 06Sep2000                  
   VRHFIN =Mn: d6 s1                                                            
   LEXCH  = PE                                                                  
   EATOM  =   416.7541 eV,   30.6306 Ry                                         
                                                                                
   TITEL  = PAW_PBE Mn 06Sep2000                                                
   LULTRA =        F    use ultrasoft PP ?                                      
   IUNSCR =        1    unscreen: 0-lin 1-nonlin 2-no                           
   RPACOR =    2.000    partial core radius                                     
   POMASS =   54.938; ZVAL   =    7.000    mass and valenz                      
   RCORE  =    2.300    outmost cutoff radius                                   
   RWIGS  =    2.500; RWIGS  =    1.323    wigner-seitz radius (au A)           
   ENMAX  =  269.864; ENMIN  =  202.398 eV                                      
   RCLOC  =    1.725    cutoff for local pot                                    
   LCOR   =        T    correct aug charges                                     
   LPAW   =        T    paw PP                                                  
   EAUG   =  500.711                                                            
   DEXC   =    0.000                                                            
   RMAX   =    2.343    core radius for proj-oper                               
   RAUG   =    1.300    factor for augmentation sphere                          
   RDEP   =    2.338    radius for radial grids                                 
   RDEPT  =    1.911    core radius for aug-charge                              
                                                                                
   Atomic configuration                                                         
    9 entries                                                                   
     n  l   j            E        occ.                                          
     1  0  0.50     -6424.8288   2.0000                                         
     2  0  0.50      -739.1154   2.0000                                         
     2  1  1.50      -625.3949   6.0000                                         
     3  0  0.50       -81.6100   2.0000                                         
     3  1  1.50       -50.4667   6.0000                                         
     3  2  2.50        -3.3745   6.0000                                         
     4  0  0.50        -4.1331   1.0000                                         
     4  1  0.50        -4.0817   0.0000                                         
     4  3  2.50        -1.3606   0.0000                                         
   Description                                                                  
     l       E           TYP  RCUT    TYP  RCUT                                 
     2     -3.3744664     23  2.300                                             
     2     -4.7350490     23  2.300                                             
     0     -4.1331408     23  2.300                                             
     0      7.6656614     23  2.300                                             
     1     -2.7211652     23  2.300                                             
     1     20.4087390     23  2.300                                             
  local pseudopotential read in
  partial core-charges read in
  partial kinetic energy density read in
  atomic valenz-charges read in
  non local Contribution for L=           2  read in
    real space projection operators read in
  non local Contribution for L=           2  read in
    real space projection operators read in
  non local Contribution for L=           0  read in
    real space projection operators read in
  non local Contribution for L=           0  read in
    real space projection operators read in
  non local Contribution for L=           1  read in
    real space projection operators read in
  non local Contribution for L=           1  read in
    real space projection operators read in
    PAW grid and wavefunctions read in
 
   number of l-projection  operators is LMAX  =           6
   number of lm-projection operators is LMMAX =          18
 

 ----------------------------------------------------------------------------- 
|                                                                             |
|  ADVICE TO THIS USER RUNNING 'VASP/VAMP'   (HEAR YOUR MASTER'S VOICE ...):  |
|                                                                             |
|      You have a (more or less) 'large supercell' and for larger cells       |
|      it might be more efficient to use real space projection opertators     |
|      So try LREAL= Auto  in the INCAR   file.                               |
|      Mind:          For very  accurate calculation you might also keep the  |
|      reciprocal projection scheme          (i.e. LREAL=.FALSE.)             |
|                                                                             |
 ----------------------------------------------------------------------------- 

  PAW_PBE C 08Apr2002                   :
 energy of atom  1       EATOM= -147.1560
 kinetic energy error for atom=    0.0076 (will be added to EATOM!!)
  PAW_PBE N 08Apr2002                   :
 energy of atom  2       EATOM= -264.5486
 kinetic energy error for atom=    0.0138 (will be added to EATOM!!)
  PAW_PBE Fe 06Sep2000                  :
 energy of atom  3       EATOM= -594.3153
 kinetic energy error for atom=    0.0026 (will be added to EATOM!!)
  PAW_PBE Mn 06Sep2000                  :
 energy of atom  4       EATOM= -416.7541
 kinetic energy error for atom=    0.0024 (will be added to EATOM!!)
 
 
 POSCAR:  C  N Fe Mn                             
  positions in cartesian coordinates
  No initial velocities read in
 exchange correlation table for  LEXCH =        8
   RHO(1)=    0.500       N(1)  =     2000
   RHO(2)=  100.500       N(2)  =     4000

 VTST: version 3.2, (02/03/18)

 CHAIN: initializing optimizer
 
 OPT: Using VASP Conjugate-Gradient optimizer
 CHAIN: Read ICHAIN            0
 
 POSCAR:  C  N Fe Mn                             
  positions in cartesian coordinates
  No initial velocities read in
 


--------------------------------------------------------------------------------------------------------


 ion  position               nearest neighbor table
   1  0.221  1.000  0.500-   3 1.41  20 1.43   4 1.43
   2  0.055  0.101  0.500-  34 1.42   3 1.44   7 1.44
   3  0.110  1.000  0.500-   1 1.41  18 1.44   2 1.44
   4  0.276  0.099  0.500-  22 1.42   5 1.43   1 1.43
   5  0.223  0.200  0.500-   7 1.43   4 1.43   8 1.45
   6  0.055  0.301  0.500-  38 1.43   7 1.44  11 1.45
   7  0.111  0.201  0.500-   5 1.43   6 1.44   2 1.44
   8  0.282  0.299  0.500-  51 1.42   9 1.45   5 1.45
   9  0.225  0.399  0.500-  11 1.43   8 1.45  12 1.45
  10  0.056  0.501  0.500-  42 1.44  15 1.44  11 1.45
  11  0.112  0.401  0.500-   9 1.43   6 1.45  10 1.45
  12  0.282  0.500  0.500-  53 1.34  13 1.45   9 1.45
  13  0.226  0.601  0.500-  15 1.44  16 1.45  12 1.45
  14  0.055  0.700  0.500-  46 1.43  19 1.43  15 1.44
  15  0.113  0.601  0.500-  14 1.44  13 1.44  10 1.44
  16  0.283  0.701  0.500-  55 1.39  17 1.45  13 1.45
  17  0.224  0.800  0.500-  20 1.43  19 1.43  16 1.45
  18  0.055  0.899  0.500-  50 1.42   3 1.44  19 1.44
  19  0.111  0.799  0.500-  17 1.43  14 1.43  18 1.44
  20  0.277  0.900  0.500-  28 1.42  17 1.43   1 1.43
  21  0.555  0.999  0.500-  23 1.41  30 1.42  24 1.42
  22  0.387  0.097  0.500-  26 1.41   4 1.42  23 1.42
  23  0.444  0.999  0.500-  21 1.41  28 1.42  22 1.42
  24  0.611  0.097  0.500-  25 1.41  32 1.42  21 1.42
  25  0.555  0.194  0.500-  24 1.41  52 1.42  26 1.43
  26  0.443  0.194  0.500-  22 1.41  51 1.42  25 1.43
  27  0.555  0.803  0.500-  56 1.38  30 1.41  29 1.43
  28  0.388  0.901  0.500-  29 1.41  23 1.42  20 1.42
  29  0.443  0.803  0.500-  55 1.38  28 1.41  27 1.43
  30  0.610  0.901  0.500-  27 1.41  21 1.42  48 1.42
  31  0.889  1.000  0.500-  33 1.41  50 1.44  34 1.44
  32  0.722  0.099  0.500-  24 1.42  37 1.43  33 1.43
  33  0.778  1.000  0.500-  31 1.41  48 1.43  32 1.43
  34  0.943  0.101  0.500-   2 1.42  31 1.44  35 1.44
  35  0.887  0.201  0.500-  37 1.43  38 1.44  34 1.44
  36  0.716  0.299  0.500-  52 1.42  41 1.45  37 1.45
  37  0.775  0.200  0.500-  35 1.43  32 1.43  36 1.45
  38  0.943  0.301  0.500-   6 1.43  35 1.44  39 1.45
  39  0.886  0.401  0.500-  41 1.43  42 1.45  38 1.45
  40  0.717  0.500  0.500-  54 1.34  45 1.45  41 1.45
  41  0.774  0.399  0.500-  39 1.43  36 1.45  40 1.45
  42  0.943  0.501  0.500-  10 1.44  43 1.44  39 1.45
  43  0.885  0.601  0.500-  46 1.44  45 1.44  42 1.44
  44  0.715  0.701  0.500-  56 1.39  49 1.45  45 1.45
  45  0.772  0.601  0.500-  43 1.44  44 1.45  40 1.45
  46  0.943  0.700  0.500-  14 1.43  47 1.43  43 1.44
  47  0.887  0.799  0.500-  49 1.43  46 1.43  50 1.44
  48  0.722  0.900  0.500-  30 1.42  49 1.43  33 1.43
  49  0.775  0.800  0.500-  48 1.43  47 1.43  44 1.45
  50  0.943  0.899  0.500-  18 1.42  31 1.44  47 1.44
  51  0.394  0.296  0.500-  26 1.42   8 1.42  57 1.96
  52  0.604  0.296  0.500-  25 1.42  36 1.42  57 1.96
  53  0.387  0.498  0.500-  12 1.34  57 1.81  58 1.83
  54  0.612  0.498  0.500-  40 1.34  57 1.81  58 1.83
  55  0.393  0.705  0.500-  29 1.38  16 1.39  58 1.98
  56  0.606  0.705  0.500-  27 1.38  44 1.39  58 1.98
  57  0.499  0.410  0.497-  53 1.81  54 1.81  52 1.96  51 1.96  58 2.24
  58  0.499  0.590  0.501-  54 1.83  53 1.83  55 1.98  56 1.98  57 2.24
 
  LATTYP: Found a triclinic cell.
 ALAT       =    17.8391944375
 B/A-ratio  =     0.7007333190
 C/A-ratio  =     1.1193808942
 COS(alpha) =     0.0000727653
 COS(beta)  =     0.0001782776
 COS(gamma) =     0.7007367873
  
  Lattice vectors:
  
 A1 = (  12.7263103400,  12.5011151174,   0.0020321622)
 A2 = (  -0.0005259705,  12.5005177053,   0.0022912859)
 A3 = (   0.0039695266,  -0.0022069908,  19.9688529039)


Analysis of symmetry for initial positions (statically):
=====================================================================
 Subroutine PRICEL returns:
 Original cell was already a primitive cell.
 

 Routine SETGRP: Setting up the symmetry group for a 
 triclinic supercell.


 Subroutine GETGRP returns: Found  1 space group operations
 (whereof  1 operations were pure point group operations)
 out of a pool of  2 trial point group operations.


The static configuration has the point symmetry C_1 .


Analysis of symmetry for dynamics (positions and initial velocities):
=====================================================================
 Subroutine PRICEL returns:
 Original cell was already a primitive cell.
 

 Routine SETGRP: Setting up the symmetry group for a 
 triclinic supercell.


 Subroutine GETGRP returns: Found  1 space group operations
 (whereof  1 operations were pure point group operations)
 out of a pool of  2 trial point group operations.


The dynamic configuration has the point symmetry C_1 .


Analysis of structural, dynamic, and magnetic symmetry:
=====================================================================
 Subroutine PRICEL returns:
 Original cell was already a primitive cell.
 

 Routine SETGRP: Setting up the symmetry group for a 
 triclinic supercell.


 Subroutine GETGRP returns: Found  1 space group operations
 (whereof  1 operations were pure point group operations)
 out of a pool of  2 trial point group operations.


The magnetic configuration has the point symmetry C_1 .


 Subroutine INISYM returns: Found  1 space group operations
 (whereof  1 operations are pure point group operations),
 and found     1 'primitive' translations

 
 
 KPOINTS: KPOINTS created by Atomic Simulation Env

Automatic generation of k-mesh.
Space group operators:
 irot       det(A)        alpha          n_x          n_y          n_z        tau_x        tau_y        tau_z
    1     1.000000     0.000002     1.000000     0.000000     0.000000     0.000000     0.000000     0.000000
 
 Subroutine IBZKPT returns following result:
 ===========================================
 
 Found      2 irreducible k-points:
 
 Following reciprocal coordinates:
            Coordinates               Weight
  0.250000  0.250000  0.000000      2.000000
 -0.250000  0.250000  0.000000      2.000000
 
 Following cartesian coordinates:
            Coordinates               Weight
  0.019643  0.020000 -0.000002      2.000000
 -0.019644  0.019998  0.000006      2.000000
 
 
 Subroutine IBZKPT_HF returns following result:
 ==============================================
 
 Found      4 k-points in 1st BZ
 the following      4 k-points will be used (e.g. in the exchange kernel)
 Following reciprocal coordinates:   # in IRBZ
  0.250000  0.250000  0.000000    0.25000000   1 t-inv F
 -0.250000  0.250000  0.000000    0.25000000   2 t-inv F
 -0.250000 -0.250000  0.000000    0.25000000   1 t-inv T
  0.250000 -0.250000  0.000000    0.25000000   2 t-inv T


--------------------------------------------------------------------------------------------------------




 Dimension of arrays:
   k-points           NKPTS =      2   k-points in BZ     NKDIM =      4   number of bands    NBANDS=    155
   number of dos      NEDOS =    301   number of ions     NIONS =     58
   non local maximal  LDIM  =      6   non local SUM 2l+1 LMDIM =     18
   total plane-waves  NPLWV = ******
   max r-space proj   IRMAX =      1   max aug-charges    IRDMAX=  16196
   dimension x,y,z NGX =    96 NGY =   96 NGZ =  150
   dimension x,y,z NGXF=   192 NGYF=  192 NGZF=  300
   support grid    NGXF=   192 NGYF=  192 NGZF=  300
   ions per type =              52   4   1   1
   NGX,Y,Z   is equivalent  to a cutoff of  12.54, 12.77, 12.49 a.u.
   NGXF,Y,Z  is equivalent  to a cutoff of  25.08, 25.53, 24.98 a.u.

 SYSTEM =  unknown system                          
 POSCAR =   C  N Fe Mn                             

 Startparameter for this run:
   NWRITE =      2    write-flag & timer
   PREC   = accura    normal or accurate (medium, high low for compatibility)
   ISTART =      1    job   : 0-new  1-cont  2-samecut
   ICHARG =      0    charge: 1-file 2-atom 10-const
   ISPIN  =      2    spin polarized calculation?
   LNONCOLLINEAR =      F non collinear calculations
   LSORBIT =      F    spin-orbit coupling
   INIWAV =      1    electr: 0-lowe 1-rand  2-diag
   LASPH  =      T    aspherical Exc in radial PAW
   METAGGA=      F    non-selfconsistent MetaGGA calc.

 Electronic Relaxation 1
   ENCUT  =  500.0 eV  36.75 Ry    6.06 a.u.  23.20 22.79 36.41*2*pi/ulx,y,z
   ENINI  =  500.0     initial cutoff
   ENAUG  =  644.9 eV  augmentation charge cutoff
   NELM   =    250;   NELMIN=  2; NELMDL=  0     # of ELM steps 
   EDIFF  = 0.1E-03   stopping-criterion for ELM
   LREAL  =      F    real-space projection
   NLSPLINE    = F    spline interpolate recip. space projectors
   LCOMPAT=      F    compatible to vasp.4.4
   GGA_COMPAT  = T    GGA compatible to vasp.4.4-vasp.4.6
   LMAXPAW     = -100 max onsite density
   LMAXMIX     =    2 max onsite mixed and CHGCAR
   VOSKOWN=      0    Vosko Wilk Nusair interpolation
   ROPT   =    0.00000   0.00000   0.00000   0.00000
 Ionic relaxation
   EDIFFG = -.3E-01   stopping-criterion for IOM
   NSW    =      0    number of steps for IOM
   NBLOCK =      1;   KBLOCK =      1    inner block; outer block 
   IBRION =     -1    ionic relax: 0-MD 1-quasi-New 2-CG
   NFREE  =      1    steps in history (QN), initial steepest desc. (CG)
   ISIF   =      2    stress and relaxation
   IWAVPR =     10    prediction:  0-non 1-charg 2-wave 3-comb
   ISYM   =      3    0-nonsym 1-usesym 2-fastsym
   LCORR  =      T    Harris-Foulkes like correction to forces

   POTIM  = 0.5000    time-step for ionic-motion
   TEIN   =    0.0    initial temperature
   TEBEG  =    0.0;   TEEND  =   0.0 temperature during run
   SMASS  =  -3.00    Nose mass-parameter (am)
   estimated Nose-frequenzy (Omega)   =  0.10E-29 period in steps =****** mass=  -0.370E-26a.u.
   SCALEE = 1.0000    scale energy and forces
   NPACO  =    256;   APACO  = 16.0  distance and # of slots for P.C.
   PSTRESS=    0.0 pullay stress

  Mass of Ions in am
   POMASS =  12.01 14.00 55.85 54.94
  Ionic Valenz
   ZVAL   =   4.00  5.00  8.00  7.00
  Atomic Wigner-Seitz radii
   RWIGS  =  -1.00 -1.00 -1.00 -1.00
  virtual crystal weights 
   VCA    =   1.00  1.00  1.00  1.00
   NELECT =     243.0000    total number of electrons
   NUPDOWN=      -1.0000    fix difference up-down

 DOS related values:
   EMIN   =  10.00;   EMAX   =-10.00  energy-range for DOS
   EFERMI =   0.00
   ISMEAR =     0;   SIGMA  =   0.10  broadening in eV -4-tet -1-fermi 0-gaus

 Electronic relaxation 2 (details)
   IALGO  =     53    algorithm
   LDIAG  =      T    sub-space diagonalisation (order eigenvalues)
   LSUBROT=      F    optimize rotation matrix (better conditioning)
   TURBO    =      0    0=normal 1=particle mesh
   IRESTART =      0    0=no restart 2=restart with 2 vectors
   NREBOOT  =      0    no. of reboots
   NMIN     =      0    reboot dimension
   EREF     =   0.00    reference energy to select bands
   IMIX   =      4    mixing-type and parameters
     AMIX     =   0.40;   BMIX     =  1.00
     AMIX_MAG =   1.60;   BMIX_MAG =  1.00
     AMIN     =   0.10
     WC   =   100.;   INIMIX=   1;  MIXPRE=   1;  MAXMIX= -45

 Intra band minimization:
   WEIMIN = 0.0000     energy-eigenvalue tresh-hold
   EBREAK =  0.16E-06  absolut break condition
   DEPER  =   0.30     relativ break condition  

   TIME   =   0.20     timestep for ELM

  volume/ion in A,a.u.               =      54.77       369.63
  Fermi-wavevector in a.u.,A,eV,Ry     =   0.694933  1.313233  6.570691  0.482932
  Thomas-Fermi vector in A             =   1.777565
 
 Write flags
   LWAVE        =      T    write WAVECAR
   LDOWNSAMPLE  =      F    k-point downsampling of WAVECAR
   LCHARG       =      T    write CHGCAR
   LVTOT        =      F    write LOCPOT, total local potential
   LVHAR        =      F    write LOCPOT, Hartree potential only
   LELF         =      F    write electronic localiz. function (ELF)
   LORBIT       =     11    0 simple, 1 ext, 2 COOP (PROOUT), +10 PAW based schemes


 Dipole corrections
   LMONO  =      F    monopole corrections only (constant potential shift)
   LDIPOL =      T    correct potential (dipole corrections)
   IDIPOL =      3    1-x, 2-y, 3-z, 4-all directions 
   EPSILON=  1.0000000 bulk dielectric constant

 Exchange correlation treatment:
   GGA     =    PE    GGA type
   LEXCH   =     8    internal setting for exchange type
   VOSKOWN=      0    Vosko Wilk Nusair interpolation
   EXXOEP  =     0    0=HF, 1=EXX-LHF (local Hartree Fock) 2=EXX OEP
   LHFCALC =     T    Hartree Fock is set to
   LSYMGRAD=     F    symmetrize gradient (conserves proper symmetry)
   PRECFOCK=normal    Normal, Fast or Accurate (Low or Medium for compatibility)
   LRHFCALC=     F    long range Hartree Fock
   LRSCOR  =     F    long range correlation only (use DFT for short range part)
   LTHOMAS =     F    Thomas Fermi screening in HF
   LMODELHF=     F    short range full HF, long range fraction AEXX
   ENCUT4O =  -1.0   cutoff for four orbital integrals eV
   LMAXFOCK=     4    L truncation for augmentation on plane wave grid
   LMAXFOCKAE=  -1    L truncation for all-electron charge restoration on plane wave grid
   NMAXFOCKAE=   1    number of basis functions for all-electron charge restoration
   LFOCKAEDFT=     F  apply the AE augmentation even for DFT
   NKREDX  =     1    reduce k-point grid by
   NKREDY  =     1    reduce k-point grid by
   NKREDZ  =     1    reduce k-point grid by
   SHIFTRED=     F    shift reduced grid of Gamma
   HFKIDENT=     F    idential grid for each k-point
   ODDONLY =     F    use only odd q-grid points
   EVENONLY=     F    use only even q-grid points
   HFALPHA =   -1.0000 decay constant for conv. correction
   MCALPHA =    0.0000 extent of test-charge in conv. correction in multipole expansion
   AEXX    =    0.2500 exact exchange contribution
   HFSCREEN=    0.2000 screening length (either q_TF or 0.3 A-1)
   HFSCREENC=   0.2000 screening length for correlation (either q_TF or 0.3 A-1)
   HFRCUT  =    0.0000 spherical cutoff for potential kernel
   ALDAX   =    0.7500 LDA exchange part
   AGGAX   =    0.7500 GGA exchange part
   ALDAC   =    1.0000 LDA correlation
   AGGAC   =    1.0000 GGA correlation
   ENCUTFOCK=  -1.0 apply spherical cutoff to Coloumb kernel
   NBANDSGWLOW=     1    first orbital included in HF term
   NBLOCK_FOCK=    64    blocking factor in FOCK_ACC
 Linear response parameters
   LEPSILON=     F    determine dielectric tensor
   LRPA    =     F    only Hartree local field effects (RPA)
   LNABLA  =     F    use nabla operator in PAW spheres
   LVEL    =     F    velocity operator in full k-point grid
   LINTERFAST=   F  fast interpolation
   KINTER  =     0    interpolate to denser k-point grid
   CSHIFT  =0.1000    complex shift for real part using Kramers Kronig
   OMEGAMAX=  -1.0    maximum frequency
   DEG_THRESHOLD= 0.2000000E-02 threshold for treating states as degnerate
   RTIME   =   -0.100 relaxation time in fs
  (WPLASMAI=    0.000 imaginary part of plasma frequency in eV, 0.658/RTIME)
   DFIELD  = 0.0000000 0.0000000 0.0000000 field for delta impulse in time
 
 Orbital magnetization related:
   ORBITALMAG=     F  switch on orbital magnetization
   LCHIMAG   =     F  perturbation theory with respect to B field
   DQ        =  0.001000  dq finite difference perturbation B field
   LLRAUG    =     F  two centre corrections for induced B field



--------------------------------------------------------------------------------------------------------


 Static calculation
 charge density and potential will be updated during run
 spin polarized calculation
 Conjugate gradient for all bands (Freysoldt, et al. PRB 79, 241103 (2009))
 perform sub-space diagonalisation
    before iterative eigenvector-optimisation
 modified Broyden-mixing scheme, WC =      100.0
 initial mixing is a Kerker type mixing with AMIX =  0.4000 and BMIX =      1.0000
 Hartree-type preconditioning will be used
 using additional bands           33
 reciprocal scheme for non local part
 use partial core corrections
 no Harris-corrections to forces 
 use gradient corrections 
 use of overlap-Matrix (Vanderbilt PP)
 Gauss-broadening in eV      SIGMA  =   0.10


--------------------------------------------------------------------------------------------------------


  energy-cutoff  :      500.00
  volume of cell :     3176.89
      direct lattice vectors                 reciprocal lattice vectors
    12.726836310  0.000597412 -0.000259124     0.078574122  0.000003309 -0.000015619
    -0.000525970 12.500517705  0.002291286    -0.000003755  0.079996685  0.000008842
     0.003969527 -0.002206991 19.968852904     0.000001020 -0.000009179  0.050077988

  length of vectors
    12.726836327 12.500517926 19.968853420     0.078574124  0.079996686  0.050077989


 
 old parameters found on file WAVECAR:
  energy-cutoff  :      500.00
  volume of cell :     3176.89
      direct lattice vectors                 reciprocal lattice vectors
    12.695700000  0.000000000  0.000000000     0.078766827  0.000007011 -0.000016495
    -0.001110155 12.471999951  0.000000000     0.000000000  0.080179603  0.000021829
     0.004202111 -0.005462370 20.063598816     0.000000000  0.000000000  0.049841507

  length of vectors

 
 k-points in units of 2pi/SCALE and weight: KPOINTS created by Atomic Simulation Env
   0.01964259  0.02000000 -0.00000169       0.500
  -0.01964447  0.01999834  0.00000612       0.500
 
 k-points in reciprocal lattice and weights: KPOINTS created by Atomic Simulation Env
   0.25000000  0.25000000  0.00000000       0.500
  -0.25000000  0.25000000  0.00000000       0.500
 
 position of ions in fractional coordinates (direct lattice) 
   0.22064675  0.99977337  0.50002806
   0.05502528  0.10061922  0.49999074
   0.10952986  0.99976155  0.50003576
   0.27622732  0.09934036  0.50004786
   0.22319000  0.20022523  0.50009155
   0.05522473  0.30064881  0.49997486
   0.11106508  0.20062610  0.50000661
   0.28228476  0.29945493  0.50005977
   0.22454984  0.39946703  0.49983533
   0.05578975  0.50091262  0.49993280
   0.11243902  0.40061335  0.49991231
   0.28164122  0.49993076  0.49996336
   0.22640075  0.60120995  0.50010093
   0.05547089  0.69950099  0.49997179
   0.11326505  0.60055791  0.49998518
   0.28335346  0.70147414  0.50001277
   0.22359252  0.79979875  0.49999818
   0.05512119  0.89908944  0.50005349
   0.11116195  0.79917102  0.50001848
   0.27650299  0.90039327  0.50000324
   0.55464750  0.99895002  0.49995893
   0.38740045  0.09726521  0.50004731
   0.44378547  0.99894374  0.49995816
   0.61101764  0.09727872  0.50004845
   0.55522340  0.19447345  0.50020446
   0.44318338  0.19446622  0.50019970
   0.55532395  0.80272397  0.49993628
   0.38808946  0.90063201  0.49995907
   0.44312839  0.80271858  0.49994480
   0.61035540  0.90064342  0.49995908
   0.88890091  0.99977491  0.50003994
   0.72219018  0.09936383  0.50004973
   0.77778456  0.99979925  0.50003265
   0.94339036  0.10063037  0.49999110
   0.88733980  0.20064076  0.50000648
   0.71611536  0.29948178  0.50007768
   0.77521444  0.20025154  0.50009516
   0.94317654  0.30065901  0.49997549
   0.88596790  0.40062997  0.49991761
   0.71678012  0.49996202  0.49999277
   0.77385690  0.39949301  0.49985567
   0.94263117  0.50092115  0.49993416
   0.88517199  0.60057425  0.49998392
   0.71509696  0.70149975  0.50000055
   0.77203780  0.60123567  0.50010113
   0.94297669  0.69951016  0.49997140
   0.88728894  0.79918560  0.50002241
   0.72194168  0.90041680  0.50000621
   0.77485821  0.79982407  0.49999818
   0.94332278  0.89910061  0.50005709
   0.39403515  0.29608120  0.50014767
   0.60436495  0.29609388  0.50017005
   0.38665269  0.49847643  0.49983011
   0.61176968  0.49848748  0.49989229
   0.39253078  0.70478440  0.49997015
   0.60592032  0.70479167  0.49994266
   0.49921389  0.41046824  0.49664183
   0.49921180  0.58977801  0.50054660
 
 position of ions in cartesian coordinates  (Angst):
   2.80959410 12.49671294  9.98722044
   0.70222957  1.25672173  9.98445777
   1.39542766 12.49649882  9.98740297
   3.51743260  1.24086732  9.98553827
   2.84238240  2.50194870  9.98665563
   0.70466268  3.75719538  9.98459905
   1.41538640  2.50689296  9.98498938
   3.59441943  3.74240671  9.98623306
   2.85958309  4.99257571  9.98199527
   0.71174804  6.26059710  9.98421782
   1.43276677  5.00683815  9.98356415
   3.58612335  6.24845815  9.98476738
   2.88303419  7.51446716  9.98776085
   0.70758561  8.74305425  9.98545147
   1.44317458  7.50624902  9.98547721
   3.60780893  8.76785572  9.98621527
   2.84718954  9.99692849  9.98616481
   0.70303042 11.23801278  9.98754039
   1.41630448  9.98901437  9.98659789
   3.52051948 11.25444375  9.98648258
   7.06036713 12.48662042  9.98575149
   4.93231588  1.21499328  9.98549364
   5.64944420 12.48647559  9.98576477
   7.77825523  1.21529573  9.98545851
   7.06812059  2.43024659  9.98881092
   5.64220565  2.43008928  9.98874490
   7.06907934 10.03369364  9.98484933
   4.94066197 11.25749489  9.98557219
   5.64118480 10.03355918  9.98504852
   7.76940420 11.25777020  9.98551487
  11.31435545 12.49713148  9.98728451
   9.19312886  1.24142716  9.98545997
   9.90019586 12.49736930  9.98716781
  12.00830650  1.25739190  9.98423489
  11.29490764  2.50753999  9.98478565
   9.11571048  3.74300141  9.98647822
   9.86790712  2.50260735  9.98658463
  12.00547999  3.75785333  9.98438149
  11.27734214  5.00750807  9.98346958
   9.12406507  6.24910878  9.98524183
   9.85052421  4.99322861  9.98225912
  11.99843366  6.26123351  9.98401512
  11.26710781  7.50691436  9.98525205
   9.10253776  8.76843375  9.98585948
   9.82726768  7.51511466  9.98762345
  12.00272671  8.74369900  9.98521371
  11.29394559  9.98966034  9.98647519
   9.18954474 11.25500390  9.98642646
   9.86305763  9.99757441  9.98602188
  12.00702664 11.23868308  9.98738219
   5.01665053  3.70029986  9.98795148
   7.69348343  3.70058395  9.98834397
   4.92258736  6.23034133  9.98207592
   7.78761468  6.23061373  9.98325935
   4.99728888  8.80930089  9.98534359
   7.71306251  8.80951931  9.98473925
   6.35516905  5.13026771  9.91817882
   6.35506360  7.37172404  9.99656340
 


--------------------------------------------------------------------------------------------------------


 k-point  1 :   0.2500 0.2500 0.0000  plane waves:   80644
 k-point  2 :  -0.2500 0.2500 0.0000  plane waves:   80643

 maximum and minimum number of plane-waves per node :      2553     2486

 maximum number of plane-waves:     80644
 maximum index in each direction: 
   IXMAX=   23   IYMAX=   22   IZMAX=   36
   IXMIN=  -23   IYMIN=  -23   IZMIN=  -36


 parallel 3D FFT for wavefunctions:
    minimum data exchange during FFTs selected (reduces bandwidth)
 parallel 3D FFT for charge:
    minimum data exchange during FFTs selected (reduces bandwidth)


 FFT grid for exact exchange (Hartree Fock) 
  NGX = 70; NGY = 70; NGZ =112

 
 Radii for the augmentation spheres in the non-local exchange
 for species   1 augmentation radius   0.874 (default was   0.699)
       energy cutoff for augmentation   2000.0
 for species   2 augmentation radius   0.886 (default was   0.709)
       energy cutoff for augmentation   2000.0
 for species   3 augmentation radius   1.263 (default was   1.010)
       energy cutoff for augmentation   2000.0
 for species   4 augmentation radius   1.276 (default was   1.021)
       energy cutoff for augmentation   2000.0

 real space projection operators:
  total allocation   :       2449.23 KBytes
  max/ min on nodes  :        128.81         38.32

 Maximum index for augmentation-charges in exchange          133
  SETUP_FOCK is finished

 total amount of memory used by VASP MPI-rank0   165159. kBytes
=======================================================================

   base      :      30000. kBytes
   nonl-proj :       5326. kBytes
   fftplans  :      14250. kBytes
   grid      :      36827. kBytes
   one-center:         62. kBytes
   HF        :         23. kBytes
   nonlr-proj:       1682. kBytes
   wavefun   :      76989. kBytes
 
     INWAV:  cpu time    3.5181: real time    3.5194
 Broyden mixing: mesh for mixing (old mesh)
   NGX = 47   NGY = 45   NGZ = 73
  (NGX  =192   NGY  =192   NGZ  =300)
  gives a total of 154395 points

 charge density for first step will be calculated from the start-wavefunctions


--------------------------------------------------------------------------------------------------------


 Maximum index for augmentation-charges          757 (set IRDMAX)


--------------------------------------------------------------------------------------------------------


 initial charge from wavefunction
 First call to EWALD:  gamma=   0.121
 Maximum number of real-space cells 3x 3x 2
 Maximum number of reciprocal cells 2x 2x 4

    FEWALD:  cpu time    0.0034: real time    0.0034


--------------------------------------- Iteration      1(   1)  ---------------------------------------


    POTLOK:  cpu time    1.3790: real time    1.3801
    SETDIJ:  cpu time    2.0869: real time    2.0882
    TRIAL :  cpu time  518.5935: real time  518.7742
    CORREC:  cpu time    0.0022: real time    0.0024
    CHARGE:  cpu time    1.6649: real time    1.6653
    --------------------------------------------
      LOOP:  cpu time  523.7341: real time  524.0468

 eigenvalue-minimisations  :     0
 total energy-change (2. order) :-0.6100337E+03  (-0.4595787E+00)
 number of electron     243.0000013 magnetization       3.1269056
 augmentation part       12.9395645 magnetization       2.5625601

 DIPCOR: dipole corrections for dipol
 direction  3 min pos     1,
 dipolmoment           0.000003     -0.000002      0.015880 electrons x Angstroem
 Tr[quadrupol]     -6647.556280

 energy correction for charged system         0.000000 eV
 dipol+quadrupol energy correction            0.000007 eV
 added-field ion interaction          0.000000 eV  (added to PSCEN)


 Free energy of the ion-electron system (eV)
  ---------------------------------------------------
  alpha Z        PSCENC =       100.91816381
  Ewald energy   TEWEN  =     38960.76513865
  -Hartree energ DENC   =    -47245.58958511
  -exchange      EXHF   =       546.20307491
  -V(xc)+E(xc)   XCENC  =       602.99261649
  PAW double counting   =     26056.56732574   -26083.85972988
  entropy T*S    EENTRO =        -0.01760015
  eigenvalues    EBANDS =     -3155.46592523
  atomic energy  EATOM  =      9607.45362622
  ---------------------------------------------------
  free energy    TOTEN  =      -610.03367916 eV

  energy without entropy =     -610.01607902  energy(sigma->0) =     -610.02487909
  exchange ACFDT corr.  =        -0.05477975  see jH, gK, PRB 81, 115126


--------------------------------------------------------------------------------------------------------




--------------------------------------- Iteration      1(   2)  ---------------------------------------


    POTLOK:  cpu time    1.3954: real time    1.3957
    SETDIJ:  cpu time    2.0847: real time    2.0851
    TRIAL :  cpu time  518.5404: real time  518.6904
    CORREC:  cpu time    0.0021: real time    0.0024
    CHARGE:  cpu time    1.6655: real time    1.6658
    --------------------------------------------
      LOOP:  cpu time  523.6907: real time  523.8419

 eigenvalue-minimisations  :     0
 total energy-change (2. order) :-0.3820450E+00  (-0.4151734E+00)
 number of electron     243.0000013 magnetization       3.1318773
 augmentation part       12.9090783 magnetization       2.6433657

 DIPCOR: dipole corrections for dipol
 direction  3 min pos     1,
 dipolmoment           0.000004     -0.000002      0.019115 electrons x Angstroem
 Tr[quadrupol]     -6647.357107

 energy correction for charged system         0.000000 eV
 dipol+quadrupol energy correction            0.000010 eV
 added-field ion interaction          0.000000 eV  (added to PSCEN)


 Free energy of the ion-electron system (eV)
  ---------------------------------------------------
  alpha Z        PSCENC =       100.91816705
  Ewald energy   TEWEN  =     38960.76513865
  -Hartree energ DENC   =    -47227.64077680
  -exchange      EXHF   =       546.03302310
  -V(xc)+E(xc)   XCENC  =       602.56927439
  PAW double counting   =     26188.29872279   -26214.86363813
  entropy T*S    EENTRO =        -0.01813180
  eigenvalues    EBANDS =     -3173.93166133
  atomic energy  EATOM  =      9607.45362622
  ---------------------------------------------------
  free energy    TOTEN  =      -610.41572420 eV

  energy without entropy =     -610.39759240  energy(sigma->0) =     -610.40665830
  exchange ACFDT corr.  =        -0.04201655  see jH, gK, PRB 81, 115126


--------------------------------------------------------------------------------------------------------




--------------------------------------- Iteration      1(   3)  ---------------------------------------


    POTLOK:  cpu time    1.4030: real time    1.4034
    SETDIJ:  cpu time    2.0826: real time    2.0831
    TRIAL :  cpu time  517.2973: real time  517.4175
    CORREC:  cpu time    0.0021: real time    0.0023
    CHARGE:  cpu time    1.6640: real time    1.6642
    --------------------------------------------
      LOOP:  cpu time  522.4511: real time  522.5726

 eigenvalue-minimisations  :     0
 total energy-change (2. order) :-0.3252331E+00  (-0.2596888E+00)
 number of electron     243.0000013 magnetization       3.1590084
 augmentation part       12.9117167 magnetization       2.7238083

 DIPCOR: dipole corrections for dipol
 direction  3 min pos     1,
 dipolmoment           0.000004     -0.000002      0.021794 electrons x Angstroem
 Tr[quadrupol]     -6647.178746

 energy correction for charged system         0.000000 eV
 dipol+quadrupol energy correction            0.000014 eV
 added-field ion interaction          0.000000 eV  (added to PSCEN)


 Free energy of the ion-electron system (eV)
  ---------------------------------------------------
  alpha Z        PSCENC =       100.91817018
  Ewald energy   TEWEN  =     38960.76513865
  -Hartree energ DENC   =    -47211.58308813
  -exchange      EXHF   =       545.96252553
  -V(xc)+E(xc)   XCENC  =       602.18739286
  PAW double counting   =     26360.53732104   -26386.74646048
  entropy T*S    EENTRO =        -0.02092582
  eigenvalues    EBANDS =     -3190.21745134
  atomic energy  EATOM  =      9607.45362622
  ---------------------------------------------------
  free energy    TOTEN  =      -610.74095727 eV

  energy without entropy =     -610.72003145  energy(sigma->0) =     -610.73049436
  exchange ACFDT corr.  =        -0.03592584  see jH, gK, PRB 81, 115126


--------------------------------------------------------------------------------------------------------




--------------------------------------- Iteration      1(   4)  ---------------------------------------


    POTLOK:  cpu time    1.4079: real time    1.4080
    SETDIJ:  cpu time    2.0812: real time    2.0813
    TRIAL :  cpu time  514.2222: real time  514.3056
    CORREC:  cpu time    0.0023: real time    0.0025
    CHARGE:  cpu time    1.6726: real time    1.6728
    --------------------------------------------
      LOOP:  cpu time  519.3888: real time  519.4751

 eigenvalue-minimisations  :     0
 total energy-change (2. order) :-0.2063166E+00  (-0.1695658E+00)
 number of electron     243.0000013 magnetization       3.2128169
 augmentation part       12.9187212 magnetization       2.7939294

 DIPCOR: dipole corrections for dipol
 direction  3 min pos     1,
 dipolmoment           0.000005     -0.000003      0.022952 electrons x Angstroem
 Tr[quadrupol]     -6647.124482

 energy correction for charged system         0.000000 eV
 dipol+quadrupol energy correction            0.000015 eV
 added-field ion interaction          0.000000 eV  (added to PSCEN)


 Free energy of the ion-electron system (eV)
  ---------------------------------------------------
  alpha Z        PSCENC =       100.91817166
  Ewald energy   TEWEN  =     38960.76513865
  -Hartree energ DENC   =    -47205.73178601
  -exchange      EXHF   =       546.12732760
  -V(xc)+E(xc)   XCENC  =       602.07515767
  PAW double counting   =     26509.33049870   -26535.63654020
  entropy T*S    EENTRO =        -0.02596425
  eigenvalues    EBANDS =     -3196.22794236
  atomic energy  EATOM  =      9607.45362622
  ---------------------------------------------------
  free energy    TOTEN  =      -610.94727389 eV

  energy without entropy =     -610.92130964  energy(sigma->0) =     -610.93429177
  exchange ACFDT corr.  =        -0.03890680  see jH, gK, PRB 81, 115126


--------------------------------------------------------------------------------------------------------




--------------------------------------- Iteration      1(   5)  ---------------------------------------


    POTLOK:  cpu time    1.4079: real time    1.4081
    SETDIJ:  cpu time    2.0825: real time    2.0826
    TRIAL :  cpu time  514.1971: real time  514.2711
    CORREC:  cpu time    0.0022: real time    0.0025
    CHARGE:  cpu time    1.6562: real time    1.6564
    --------------------------------------------
      LOOP:  cpu time  519.3480: real time  519.4228

 eigenvalue-minimisations  :     0
 total energy-change (2. order) :-0.1425157E+00  (-0.1240999E+00)
 number of electron     243.0000013 magnetization       3.2925969
 augmentation part       12.9214727 magnetization       2.8569949

 DIPCOR: dipole corrections for dipol
 direction  3 min pos     1,
 dipolmoment           0.000005     -0.000003      0.023988 electrons x Angstroem
 Tr[quadrupol]     -6647.162055

 energy correction for charged system         0.000000 eV
 dipol+quadrupol energy correction            0.000016 eV
 added-field ion interaction          0.000000 eV  (added to PSCEN)


 Free energy of the ion-electron system (eV)
  ---------------------------------------------------
  alpha Z        PSCENC =       100.91817305
  Ewald energy   TEWEN  =     38960.76513865
  -Hartree energ DENC   =    -47207.06927399
  -exchange      EXHF   =       546.45054132
  -V(xc)+E(xc)   XCENC  =       602.17575623
  PAW double counting   =     26615.37968178   -26641.81488945
  entropy T*S    EENTRO =        -0.03242676
  eigenvalues    EBANDS =     -3195.32257914
  atomic energy  EATOM  =      9607.45362622
  ---------------------------------------------------
  free energy    TOTEN  =      -611.08978958 eV

  energy without entropy =     -611.05736283  energy(sigma->0) =     -611.07357621
  exchange ACFDT corr.  =        -0.04833020  see jH, gK, PRB 81, 115126


--------------------------------------------------------------------------------------------------------




--------------------------------------- Iteration      1(   6)  ---------------------------------------


    POTLOK:  cpu time    1.4057: real time    1.4059
    SETDIJ:  cpu time    2.0794: real time    2.0795
    TRIAL :  cpu time  514.9488: real time  515.0248
    CORREC:  cpu time    0.0022: real time    0.0025
    CHARGE:  cpu time    1.6570: real time    1.6572
    --------------------------------------------
      LOOP:  cpu time  520.0955: real time  520.1724

 eigenvalue-minimisations  :     0
 total energy-change (2. order) :-0.1078362E+00  (-0.9412041E-01)
 number of electron     243.0000013 magnetization       3.3955527
 augmentation part       12.9258921 magnetization       2.9187423

 DIPCOR: dipole corrections for dipol
 direction  3 min pos     1,
 dipolmoment           0.000005     -0.000003      0.025121 electrons x Angstroem
 Tr[quadrupol]     -6647.226367

 energy correction for charged system         0.000000 eV
 dipol+quadrupol energy correction            0.000018 eV
 added-field ion interaction          0.000000 eV  (added to PSCEN)


 Free energy of the ion-electron system (eV)
  ---------------------------------------------------
  alpha Z        PSCENC =       100.91817464
  Ewald energy   TEWEN  =     38960.76513865
  -Hartree energ DENC   =    -47210.76946686
  -exchange      EXHF   =       546.80172927
  -V(xc)+E(xc)   XCENC  =       602.35600878
  PAW double counting   =     26683.56653264   -26710.03700027
  entropy T*S    EENTRO =        -0.03932652
  eigenvalues    EBANDS =     -3192.21994212
  atomic energy  EATOM  =      9607.45362622
  ---------------------------------------------------
  free energy    TOTEN  =      -611.19762580 eV

  energy without entropy =     -611.15829928  energy(sigma->0) =     -611.17796254
  exchange ACFDT corr.  =        -0.06165839  see jH, gK, PRB 81, 115126


--------------------------------------------------------------------------------------------------------




--------------------------------------- Iteration      1(   7)  ---------------------------------------


    POTLOK:  cpu time    1.4043: real time    1.4044
    SETDIJ:  cpu time    2.0821: real time    2.0823
    TRIAL :  cpu time  514.4040: real time  514.4674
    CORREC:  cpu time    0.0023: real time    0.0026
    CHARGE:  cpu time    1.6666: real time    1.6667
    --------------------------------------------
      LOOP:  cpu time  519.5612: real time  519.6253

 eigenvalue-minimisations  :     0
 total energy-change (2. order) :-0.8464458E-01  (-0.7734533E-01)
 number of electron     243.0000013 magnetization       3.5235452
 augmentation part       12.9334780 magnetization       2.9829492

 DIPCOR: dipole corrections for dipol
 direction  3 min pos     1,
 dipolmoment           0.000005     -0.000003      0.025919 electrons x Angstroem
 Tr[quadrupol]     -6647.280562

 energy correction for charged system         0.000000 eV
 dipol+quadrupol energy correction            0.000019 eV
 added-field ion interaction          0.000000 eV  (added to PSCEN)


 Free energy of the ion-electron system (eV)
  ---------------------------------------------------
  alpha Z        PSCENC =       100.91817581
  Ewald energy   TEWEN  =     38960.76513865
  -Hartree energ DENC   =    -47214.34061503
  -exchange      EXHF   =       547.10624951
  -V(xc)+E(xc)   XCENC  =       602.53362712
  PAW double counting   =     26725.63081856   -26752.14215734
  entropy T*S    EENTRO =        -0.04603260
  eigenvalues    EBANDS =     -3189.16780736
  atomic energy  EATOM  =      9607.45362622
  ---------------------------------------------------
  free energy    TOTEN  =      -611.28227038 eV

  energy without entropy =     -611.23623778  energy(sigma->0) =     -611.25925408
  exchange ACFDT corr.  =        -0.07652016  see jH, gK, PRB 81, 115126


--------------------------------------------------------------------------------------------------------




--------------------------------------- Iteration      1(   8)  ---------------------------------------


    POTLOK:  cpu time    1.4004: real time    1.4006
    SETDIJ:  cpu time    2.0808: real time    2.0809
    TRIAL :  cpu time  514.5979: real time  514.6579
    CORREC:  cpu time    0.0021: real time    0.0024
    CHARGE:  cpu time    1.6544: real time    1.6545
    --------------------------------------------
      LOOP:  cpu time  519.7381: real time  519.7988

 eigenvalue-minimisations  :     0
 total energy-change (2. order) :-0.7222504E-01  (-0.7001441E-01)
 number of electron     243.0000013 magnetization       3.6837373
 augmentation part       12.9404393 magnetization       3.0515460

 DIPCOR: dipole corrections for dipol
 direction  3 min pos     1,
 dipolmoment           0.000005     -0.000003      0.026375 electrons x Angstroem
 Tr[quadrupol]     -6647.314109

 energy correction for charged system         0.000000 eV
 dipol+quadrupol energy correction            0.000020 eV
 added-field ion interaction          0.000000 eV  (added to PSCEN)


 Free energy of the ion-electron system (eV)
  ---------------------------------------------------
  alpha Z        PSCENC =       100.91817649
  Ewald energy   TEWEN  =     38960.76513865
  -Hartree energ DENC   =    -47216.86635181
  -exchange      EXHF   =       547.34731416
  -V(xc)+E(xc)   XCENC  =       602.68021904
  PAW double counting   =     26751.49664859   -26778.09765534
  entropy T*S    EENTRO =        -0.05192640
  eigenvalues    EBANDS =     -3187.00557881
  atomic energy  EATOM  =      9607.45362622
  ---------------------------------------------------
  free energy    TOTEN  =      -611.35449541 eV

  energy without entropy =     -611.30256901  energy(sigma->0) =     -611.32853221
  exchange ACFDT corr.  =        -0.09126265  see jH, gK, PRB 81, 115126


--------------------------------------------------------------------------------------------------------




--------------------------------------- Iteration      1(   9)  ---------------------------------------


    POTLOK:  cpu time    1.3980: real time    1.3982
    SETDIJ:  cpu time    2.0776: real time    2.0777
    TRIAL :  cpu time  514.2155: real time  514.2799
    CORREC:  cpu time    0.0022: real time    0.0024
    CHARGE:  cpu time    1.6565: real time    1.6566
    --------------------------------------------
      LOOP:  cpu time  519.3518: real time  519.4169

 eigenvalue-minimisations  :     0
 total energy-change (2. order) :-0.6756245E-01  (-0.6986365E-01)
 number of electron     243.0000013 magnetization       3.8823938
 augmentation part       12.9444412 magnetization       3.1255023

 DIPCOR: dipole corrections for dipol
 direction  3 min pos     1,
 dipolmoment           0.000005     -0.000003      0.026736 electrons x Angstroem
 Tr[quadrupol]     -6647.329590

 energy correction for charged system         0.000000 eV
 dipol+quadrupol energy correction            0.000020 eV
 added-field ion interaction          0.000000 eV  (added to PSCEN)


 Free energy of the ion-electron system (eV)
  ---------------------------------------------------
  alpha Z        PSCENC =       100.91817704
  Ewald energy   TEWEN  =     38960.76513865
  -Hartree energ DENC   =    -47218.18440005
  -exchange      EXHF   =       547.54020658
  -V(xc)+E(xc)   XCENC  =       602.79740391
  PAW double counting   =     26767.71334337   -26794.41280198
  entropy T*S    EENTRO =        -0.05580480
  eigenvalues    EBANDS =     -3185.96082519
  atomic energy  EATOM  =      9607.45362622
  ---------------------------------------------------
  free energy    TOTEN  =      -611.42205786 eV

  energy without entropy =     -611.36625306  energy(sigma->0) =     -611.39415546
  exchange ACFDT corr.  =        -0.10407468  see jH, gK, PRB 81, 115126


--------------------------------------------------------------------------------------------------------




--------------------------------------- Iteration      1(  10)  ---------------------------------------


    POTLOK:  cpu time    1.3933: real time    1.3934
    SETDIJ:  cpu time    2.0840: real time    2.0842
    TRIAL :  cpu time  514.4776: real time  514.5474
    CORREC:  cpu time    0.0023: real time    0.0026
    CHARGE:  cpu time    1.6554: real time    1.6555
    --------------------------------------------
      LOOP:  cpu time  519.6145: real time  519.6850

 eigenvalue-minimisations  :     0
 total energy-change (2. order) :-0.6925377E-01  (-0.7603574E-01)
 number of electron     243.0000013 magnetization       4.1177688
 augmentation part       12.9464791 magnetization       3.2042527

 DIPCOR: dipole corrections for dipol
 direction  3 min pos     1,
 dipolmoment           0.000005     -0.000003      0.027107 electrons x Angstroem
 Tr[quadrupol]     -6647.334027

 energy correction for charged system         0.000000 eV
 dipol+quadrupol energy correction            0.000021 eV
 added-field ion interaction          0.000000 eV  (added to PSCEN)


 Free energy of the ion-electron system (eV)
  ---------------------------------------------------
  alpha Z        PSCENC =       100.91817761
  Ewald energy   TEWEN  =     38960.76513865
  -Hartree energ DENC   =    -47218.59754756
  -exchange      EXHF   =       547.71026234
  -V(xc)+E(xc)   XCENC  =       602.89810926
  PAW double counting   =     26778.49989975   -26805.27492291
  entropy T*S    EENTRO =        -0.05580311
  eigenvalues    EBANDS =     -3185.80825018
  atomic energy  EATOM  =      9607.45362622
  ---------------------------------------------------
  free energy    TOTEN  =      -611.49131163 eV

  energy without entropy =     -611.43550852  energy(sigma->0) =     -611.46341007
  exchange ACFDT corr.  =        -0.11159255  see jH, gK, PRB 81, 115126


--------------------------------------------------------------------------------------------------------




--------------------------------------- Iteration      1(  11)  ---------------------------------------


    POTLOK:  cpu time    1.3938: real time    1.3939
    SETDIJ:  cpu time    2.0796: real time    2.0798
    TRIAL :  cpu time  514.0774: real time  514.1329
    CORREC:  cpu time    0.0021: real time    0.0021
    CHARGE:  cpu time    1.6627: real time    1.6630
    --------------------------------------------
      LOOP:  cpu time  519.2175: real time  519.2736

 eigenvalue-minimisations  :     0
 total energy-change (2. order) :-0.7606994E-01  (-0.8598936E-01)
 number of electron     243.0000013 magnetization       4.3743470
 augmentation part       12.9487617 magnetization       3.2844402

 DIPCOR: dipole corrections for dipol
 direction  3 min pos     1,
 dipolmoment           0.000005     -0.000003      0.027409 electrons x Angstroem
 Tr[quadrupol]     -6647.333597

 energy correction for charged system         0.000000 eV
 dipol+quadrupol energy correction            0.000021 eV
 added-field ion interaction          0.000000 eV  (added to PSCEN)


 Free energy of the ion-electron system (eV)
  ---------------------------------------------------
  alpha Z        PSCENC =       100.91817808
  Ewald energy   TEWEN  =     38960.76513865
  -Hartree energ DENC   =    -47218.56847296
  -exchange      EXHF   =       547.87769610
  -V(xc)+E(xc)   XCENC  =       602.99369194
  PAW double counting   =     26786.67727459   -26813.51289448
  entropy T*S    EENTRO =        -0.05008902
  eigenvalues    EBANDS =     -3186.11581658
  atomic energy  EATOM  =      9607.45362622
  ---------------------------------------------------
  free energy    TOTEN  =      -611.56738157 eV

  energy without entropy =     -611.51729254  energy(sigma->0) =     -611.54233705
  exchange ACFDT corr.  =        -0.10901301  see jH, gK, PRB 81, 115126


--------------------------------------------------------------------------------------------------------




--------------------------------------- Iteration      1(  12)  ---------------------------------------


    POTLOK:  cpu time    1.3931: real time    1.3932
    SETDIJ:  cpu time    2.0747: real time    2.0748
    TRIAL :  cpu time  515.6625: real time  515.7324
    CORREC:  cpu time    0.0022: real time    0.0025
    CHARGE:  cpu time    1.6552: real time    1.6554
    --------------------------------------------
      LOOP:  cpu time  520.7896: real time  520.8601

 eigenvalue-minimisations  :     0
 total energy-change (2. order) :-0.8445675E-01  (-0.9359617E-01)
 number of electron     243.0000013 magnetization       4.6198714
 augmentation part       12.9524581 magnetization       3.3593901

 DIPCOR: dipole corrections for dipol
 direction  3 min pos     1,
 dipolmoment           0.000005     -0.000003      0.027544 electrons x Angstroem
 Tr[quadrupol]     -6647.331556

 energy correction for charged system         0.000000 eV
 dipol+quadrupol energy correction            0.000022 eV
 added-field ion interaction          0.000000 eV  (added to PSCEN)


 Free energy of the ion-electron system (eV)
  ---------------------------------------------------
  alpha Z        PSCENC =       100.91817829
  Ewald energy   TEWEN  =     38960.76513865
  -Hartree energ DENC   =    -47218.43848144
  -exchange      EXHF   =       548.04911996
  -V(xc)+E(xc)   XCENC  =       603.08709141
  PAW double counting   =     26794.04337081   -26820.94786819
  entropy T*S    EENTRO =        -0.03838474
  eigenvalues    EBANDS =     -3186.53192500
  atomic energy  EATOM  =      9607.45362622
  ---------------------------------------------------
  free energy    TOTEN  =      -611.65183831 eV

  energy without entropy =     -611.61345357  energy(sigma->0) =     -611.63264594
  exchange ACFDT corr.  =        -0.09266165  see jH, gK, PRB 81, 115126


--------------------------------------------------------------------------------------------------------




--------------------------------------- Iteration      1(  13)  ---------------------------------------


    POTLOK:  cpu time    1.3931: real time    1.3933
    SETDIJ:  cpu time    2.0760: real time    2.0761
    TRIAL :  cpu time  514.7915: real time  514.8544
    CORREC:  cpu time    0.0022: real time    0.0024
    CHARGE:  cpu time    1.6537: real time    1.6537
    --------------------------------------------
      LOOP:  cpu time  519.9191: real time  519.9826

 eigenvalue-minimisations  :     0
 total energy-change (2. order) :-0.8725208E-01  (-0.8927034E-01)
 number of electron     243.0000013 magnetization       4.8132265
 augmentation part       12.9572620 magnetization       3.4210688

 DIPCOR: dipole corrections for dipol
 direction  3 min pos     1,
 dipolmoment           0.000005     -0.000003      0.027513 electrons x Angstroem
 Tr[quadrupol]     -6647.329121

 energy correction for charged system         0.000000 eV
 dipol+quadrupol energy correction            0.000022 eV
 added-field ion interaction          0.000000 eV  (added to PSCEN)


 Free energy of the ion-electron system (eV)
  ---------------------------------------------------
  alpha Z        PSCENC =       100.91817824
  Ewald energy   TEWEN  =     38960.76513865
  -Hartree energ DENC   =    -47218.35637354
  -exchange      EXHF   =       548.21485503
  -V(xc)+E(xc)   XCENC  =       603.17246064
  PAW double counting   =     26801.40933733   -26828.39897761
  entropy T*S    EENTRO =        -0.02360268
  eigenvalues    EBANDS =     -3186.87895060
  atomic energy  EATOM  =      9607.45362622
  ---------------------------------------------------
  free energy    TOTEN  =      -611.73909039 eV

  energy without entropy =     -611.71548771  energy(sigma->0) =     -611.72728905
  exchange ACFDT corr.  =        -0.06449929  see jH, gK, PRB 81, 115126


--------------------------------------------------------------------------------------------------------




--------------------------------------- Iteration      1(  14)  ---------------------------------------


    POTLOK:  cpu time    1.3935: real time    1.3937
    SETDIJ:  cpu time    2.0690: real time    2.0746
    TRIAL :  cpu time  514.8393: real time  514.8946
    CORREC:  cpu time    0.0021: real time    0.0024
    CHARGE:  cpu time    1.6622: real time    1.6622
    --------------------------------------------
      LOOP:  cpu time  519.9683: real time  520.0315

 eigenvalue-minimisations  :     0
 total energy-change (2. order) :-0.7656666E-01  (-0.6844714E-01)
 number of electron     243.0000013 magnetization       4.9295058
 augmentation part       12.9619994 magnetization       3.4649911

 DIPCOR: dipole corrections for dipol
 direction  3 min pos     1,
 dipolmoment           0.000005     -0.000003      0.027376 electrons x Angstroem
 Tr[quadrupol]     -6647.327103

 energy correction for charged system         0.000000 eV
 dipol+quadrupol energy correction            0.000021 eV
 added-field ion interaction          0.000000 eV  (added to PSCEN)


 Free energy of the ion-electron system (eV)
  ---------------------------------------------------
  alpha Z        PSCENC =       100.91817802
  Ewald energy   TEWEN  =     38960.76513865
  -Hartree energ DENC   =    -47218.36638529
  -exchange      EXHF   =       548.35435530
  -V(xc)+E(xc)   XCENC  =       603.24070428
  PAW double counting   =     26808.71099045   -26835.78920990
  entropy T*S    EENTRO =        -0.01099089
  eigenvalues    EBANDS =     -3187.07945209
  atomic energy  EATOM  =      9607.45362622
  ---------------------------------------------------
  free energy    TOTEN  =      -611.81565705 eV

  energy without entropy =     -611.80466616  energy(sigma->0) =     -611.81016160
  exchange ACFDT corr.  =        -0.03434668  see jH, gK, PRB 81, 115126


--------------------------------------------------------------------------------------------------------




--------------------------------------- Iteration      1(  15)  ---------------------------------------


    POTLOK:  cpu time    1.3917: real time    1.3919
    SETDIJ:  cpu time    2.1062: real time    2.1063
    TRIAL :  cpu time  515.4096: real time  515.4542
    CORREC:  cpu time    0.0020: real time    0.0022
    CHARGE:  cpu time    1.6569: real time    1.6570
    --------------------------------------------
      LOOP:  cpu time  520.5679: real time  520.6131

 eigenvalue-minimisations  :     0
 total energy-change (2. order) :-0.5361933E-01  (-0.4151850E-01)
 number of electron     243.0000013 magnetization       4.9798345
 augmentation part       12.9653792 magnetization       3.4935693

 DIPCOR: dipole corrections for dipol
 direction  3 min pos     1,
 dipolmoment           0.000005     -0.000003      0.027180 electrons x Angstroem
 Tr[quadrupol]     -6647.326624

 energy correction for charged system         0.000000 eV
 dipol+quadrupol energy correction            0.000021 eV
 added-field ion interaction          0.000000 eV  (added to PSCEN)


 Free energy of the ion-electron system (eV)
  ---------------------------------------------------
  alpha Z        PSCENC =       100.91817772
  Ewald energy   TEWEN  =     38960.76513865
  -Hartree energ DENC   =    -47218.49033087
  -exchange      EXHF   =       548.45383057
  -V(xc)+E(xc)   XCENC  =       603.28872111
  PAW double counting   =     26815.39099081   -26842.54110240
  entropy T*S    EENTRO =        -0.00379639
  eigenvalues    EBANDS =     -3187.09733730
  atomic energy  EATOM  =      9607.45362622
  ---------------------------------------------------
  free energy    TOTEN  =      -611.86927638 eV

  energy without entropy =     -611.86547999  energy(sigma->0) =     -611.86737819
  exchange ACFDT corr.  =        -0.01329432  see jH, gK, PRB 81, 115126


--------------------------------------------------------------------------------------------------------




--------------------------------------- Iteration      1(  16)  ---------------------------------------


    POTLOK:  cpu time    1.3898: real time    1.3899
    SETDIJ:  cpu time    2.0802: real time    2.0803
    TRIAL :  cpu time  515.1194: real time  515.1650
    CORREC:  cpu time    0.0019: real time    0.0022
    CHARGE:  cpu time    1.6692: real time    1.6693
    --------------------------------------------
      LOOP:  cpu time  520.2629: real time  520.3090

 eigenvalue-minimisations  :     0
 total energy-change (2. order) :-0.3128434E-01  (-0.2299063E-01)
 number of electron     243.0000013 magnetization       4.9953942
 augmentation part       12.9670881 magnetization       3.5129160

 DIPCOR: dipole corrections for dipol
 direction  3 min pos     1,
 dipolmoment           0.000005     -0.000003      0.026929 electrons x Angstroem
 Tr[quadrupol]     -6647.328376

 energy correction for charged system         0.000000 eV
 dipol+quadrupol energy correction            0.000021 eV
 added-field ion interaction          0.000000 eV  (added to PSCEN)


 Free energy of the ion-electron system (eV)
  ---------------------------------------------------
  alpha Z        PSCENC =       100.91817733
  Ewald energy   TEWEN  =     38960.76513865
  -Hartree energ DENC   =    -47218.71640852
  -exchange      EXHF   =       548.52013292
  -V(xc)+E(xc)   XCENC  =       603.32305939
  PAW double counting   =     26820.82358222   -26848.01615072
  entropy T*S    EENTRO =        -0.00101897
  eigenvalues    EBANDS =     -3186.96792183
  atomic energy  EATOM  =      9607.45362622
  ---------------------------------------------------
  free energy    TOTEN  =      -611.90056072 eV

  energy without entropy =     -611.89954176  energy(sigma->0) =     -611.90005124
  exchange ACFDT corr.  =        -0.00374481  see jH, gK, PRB 81, 115126


--------------------------------------------------------------------------------------------------------




--------------------------------------- Iteration      1(  17)  ---------------------------------------


    POTLOK:  cpu time    1.3869: real time    1.3871
    SETDIJ:  cpu time    2.0757: real time    2.0757
    TRIAL :  cpu time  514.6114: real time  514.6529
    CORREC:  cpu time    0.0020: real time    0.0022
    CHARGE:  cpu time    1.6545: real time    1.6546
    --------------------------------------------
      LOOP:  cpu time  519.7326: real time  519.7747

 eigenvalue-minimisations  :     0
 total energy-change (2. order) :-0.1837352E-01  (-0.1428970E-01)
 number of electron     243.0000013 magnetization       4.9990636
 augmentation part       12.9681181 magnetization       3.5278765

 DIPCOR: dipole corrections for dipol
 direction  3 min pos     1,
 dipolmoment           0.000005     -0.000003      0.026638 electrons x Angstroem
 Tr[quadrupol]     -6647.331699

 energy correction for charged system         0.000000 eV
 dipol+quadrupol energy correction            0.000020 eV
 added-field ion interaction          0.000000 eV  (added to PSCEN)


 Free energy of the ion-electron system (eV)
  ---------------------------------------------------
  alpha Z        PSCENC =       100.91817689
  Ewald energy   TEWEN  =     38960.76513865
  -Hartree energ DENC   =    -47218.98333134
  -exchange      EXHF   =       548.56965489
  -V(xc)+E(xc)   XCENC  =       603.35214781
  PAW double counting   =     26824.73072111   -26851.93951432
  entropy T*S    EENTRO =        -0.00023652
  eigenvalues    EBANDS =     -3186.78453519
  atomic energy  EATOM  =      9607.45362622
  ---------------------------------------------------
  free energy    TOTEN  =      -611.91893425 eV

  energy without entropy =     -611.91869773  energy(sigma->0) =     -611.91881599
  exchange ACFDT corr.  =        -0.00082567  see jH, gK, PRB 81, 115126


--------------------------------------------------------------------------------------------------------




--------------------------------------- Iteration      1(  18)  ---------------------------------------


    POTLOK:  cpu time    1.3840: real time    1.3841
    SETDIJ:  cpu time    2.0791: real time    2.0792
    TRIAL :  cpu time  515.0832: real time  515.1500
    CORREC:  cpu time    0.0019: real time    0.0021
    CHARGE:  cpu time    1.6534: real time    1.6535
    --------------------------------------------
      LOOP:  cpu time  520.2039: real time  520.2713

 eigenvalue-minimisations  :     0
 total energy-change (2. order) :-0.1241456E-01  (-0.1015439E-01)
 number of electron     243.0000013 magnetization       4.9998088
 augmentation part       12.9693759 magnetization       3.5407574

 DIPCOR: dipole corrections for dipol
 direction  3 min pos     1,
 dipolmoment           0.000005     -0.000003      0.026383 electrons x Angstroem
 Tr[quadrupol]     -6647.335228

 energy correction for charged system         0.000000 eV
 dipol+quadrupol energy correction            0.000020 eV
 added-field ion interaction          0.000000 eV  (added to PSCEN)


 Free energy of the ion-electron system (eV)
  ---------------------------------------------------
  alpha Z        PSCENC =       100.91817650
  Ewald energy   TEWEN  =     38960.76513865
  -Hartree energ DENC   =    -47219.23133555
  -exchange      EXHF   =       548.61161991
  -V(xc)+E(xc)   XCENC  =       603.37911273
  PAW double counting   =     26827.32885001   -26854.54421976
  entropy T*S    EENTRO =        -0.00005367
[...]
  augment    43.27947    45.49726    48.33351     0.00075    -1.29764    -0.00077
  Kinetic  3575.99697  3621.82969  4094.70353     0.00718    -1.74398     0.01758
  Fock     -312.68101  -314.89878  -297.76836    -0.00098     0.73691     0.00488
  -------------------------------------------------------------------------------------
  Total     -42.33033   -40.06523    -0.36231     0.00219    -0.00245     0.00153
  in kB     -21.34817   -20.20583    -0.18272     0.00110    -0.00124     0.00077
  external pressure =      -13.91 kB  Pullay stress =        0.00 kB


 VOLUME and BASIS-vectors are now :
 -----------------------------------------------------------------------------
  energy-cutoff  :      500.00
  volume of cell :     3176.89
      direct lattice vectors                 reciprocal lattice vectors
    12.726836310  0.000597412 -0.000259124     0.078574122  0.000003309 -0.000015619
    -0.000525970 12.500517705  0.002291286    -0.000003755  0.079996685  0.000008842
     0.003969527 -0.002206991 19.968852904     0.000001020 -0.000009179  0.050077988

  length of vectors
    12.726836327 12.500517926 19.968853420     0.078574124  0.079996686  0.050077989


 FORCES acting on ions:
    Electron-Ion                     Ewald-Force                    Non-Local-Force
 -----------------------------------------------------------------------------------------------
   0.316E+01 -.236E+01 -.231E+00   -.336E+01 0.295E+01 0.229E+00   0.950E-01 -.594E+00 -.100E-03
   -.257E+01 -.238E+01 0.732E-01   0.247E+01 0.266E+01 -.717E-01   -.123E-01 -.235E+00 0.210E-02
   0.994E+01 -.211E+01 -.283E+00   -.994E+01 0.218E+01 0.285E+00   0.113E+00 -.140E+00 -.394E-02
   0.117E+02 -.251E+01 -.389E+00   -.115E+02 0.309E+01 0.384E+00   -.643E-01 -.478E+00 0.910E-02
   0.415E+01 -.597E+01 -.999E+00   -.360E+01 0.663E+01 0.101E+01   -.476E+00 -.693E+00 -.775E-02
   -.124E+01 -.277E+01 -.172E+00   0.109E+01 0.278E+01 0.176E+00   0.211E-02 -.836E-01 -.552E-02
   0.562E+01 -.226E+01 -.167E+00   -.530E+01 0.243E+01 0.171E+00   -.312E+00 -.165E+00 0.926E-03
   0.114E+02 -.559E+00 -.141E+01   -.929E+01 0.515E+00 0.142E+01   -.171E+01 -.318E-01 -.258E-01
   0.908E+01 0.694E+01 0.723E+00   -.892E+01 -.798E+01 -.736E+00   -.437E+00 0.109E+01 0.180E-01
   0.251E+01 0.182E+01 0.881E-01   -.266E+01 -.175E+01 -.893E-01   0.149E+00 0.662E-01 0.731E-03
   0.861E+01 0.923E+00 0.130E+00   -.821E+01 -.704E+00 -.129E+00   -.133E+00 -.829E-01 -.268E-02
   0.550E+02 0.359E+01 -.121E+01   -.586E+02 -.393E+01 0.115E+01   0.371E+01 0.444E+00 0.514E-01
   0.155E+02 -.397E+00 -.147E+01   -.159E+02 -.177E+00 0.148E+01   0.396E+00 0.370E+00 -.179E-01
   0.225E+01 0.322E+01 0.996E-01   -.239E+01 -.358E+01 -.951E-01   0.608E-01 0.234E+00 -.101E-02
   0.590E+01 0.294E+01 -.139E+00   -.615E+01 -.328E+01 0.146E+00   0.714E-01 0.198E+00 0.441E-02
   0.399E+02 0.584E+01 -.352E+00   -.435E+02 -.649E+01 0.339E+00   0.388E+01 0.478E+00 0.144E-01
   0.142E+02 0.203E+01 -.702E-01   -.148E+02 -.163E+01 0.699E-01   0.528E+00 -.187E+00 0.163E-02
   -.115E+01 0.331E+00 -.414E+00   0.113E+01 -.349E+00 0.414E+00   0.228E-01 -.804E-02 -.272E-02
   0.666E+01 0.273E+00 -.227E+00   -.702E+01 -.392E+00 0.231E+00   0.421E+00 0.168E+00 -.549E-02
   0.138E+02 -.737E+01 -.165E+00   -.142E+02 0.773E+01 0.168E+00   0.344E+00 -.431E+00 -.474E-02
   -.468E+01 -.580E+01 0.219E+00   0.455E+01 0.649E+01 -.213E+00   0.163E+00 -.730E+00 -.178E-02
   0.592E+01 0.167E+01 -.397E+00   -.581E+01 -.854E+00 0.417E+00   -.191E+00 -.741E+00 0.145E-02
   0.468E+01 -.581E+01 0.223E+00   -.455E+01 0.650E+01 -.218E+00   -.163E+00 -.730E+00 -.153E-02
   -.592E+01 0.166E+01 -.385E+00   0.580E+01 -.852E+00 0.405E+00   0.192E+00 -.742E+00 0.166E-02
   -.582E+01 0.301E+01 -.259E+01   0.623E+01 -.110E+01 0.260E+01   -.928E-01 -.155E+01 -.208E-01
   0.582E+01 0.301E+01 -.258E+01   -.624E+01 -.111E+01 0.259E+01   0.946E-01 -.155E+01 -.219E-01
   0.438E+01 -.303E+02 0.258E+00   -.552E+01 0.334E+02 -.244E+00   0.131E+01 -.320E+01 -.196E-01
   0.783E+01 -.126E+02 0.103E+00   -.771E+01 0.137E+02 -.105E+00   0.118E-01 -.896E+00 -.370E-02
   -.438E+01 -.303E+02 0.205E+00   0.552E+01 0.334E+02 -.192E+00   -.131E+01 -.320E+01 -.196E-01
   -.782E+01 -.126E+02 0.933E-01   0.770E+01 0.137E+02 -.945E-01   -.129E-01 -.896E+00 -.427E-02
   -.995E+01 -.207E+01 -.306E+00   0.995E+01 0.214E+01 0.308E+00   -.114E+00 -.140E+00 -.409E-02
   -.117E+02 -.250E+01 -.377E+00   0.115E+02 0.307E+01 0.372E+00   0.650E-01 -.479E+00 0.921E-02
   -.316E+01 -.239E+01 -.255E+00   0.336E+01 0.297E+01 0.253E+00   -.952E-01 -.596E+00 -.315E-03
   0.257E+01 -.243E+01 0.788E-01   -.247E+01 0.270E+01 -.775E-01   0.132E-01 -.236E+00 0.229E-02
   -.562E+01 -.223E+01 -.144E+00   0.530E+01 0.240E+01 0.148E+00   0.314E+00 -.166E+00 0.101E-02
   -.114E+02 -.562E+00 -.149E+01   0.930E+01 0.518E+00 0.149E+01   0.171E+01 -.336E-01 -.261E-01
   -.415E+01 -.599E+01 -.984E+00   0.360E+01 0.664E+01 0.996E+00   0.478E+00 -.695E+00 -.712E-02
   0.124E+01 -.279E+01 -.161E+00   -.109E+01 0.280E+01 0.166E+00   -.167E-03 -.844E-01 -.548E-02
   -.861E+01 0.926E+00 0.132E+00   0.821E+01 -.707E+00 -.132E+00   0.135E+00 -.840E-01 -.200E-02
   -.550E+02 0.354E+01 -.133E+01   0.586E+02 -.388E+01 0.126E+01   -.371E+01 0.441E+00 0.544E-01
   -.909E+01 0.695E+01 0.642E+00   0.892E+01 -.800E+01 -.655E+00   0.439E+00 0.109E+01 0.175E-01
   -.252E+01 0.182E+01 0.900E-01   0.267E+01 -.175E+01 -.910E-01   -.149E+00 0.657E-01 0.493E-03
   -.590E+01 0.293E+01 -.111E+00   0.616E+01 -.327E+01 0.118E+00   -.722E-01 0.197E+00 0.435E-02
   -.399E+02 0.581E+01 -.263E+00   0.435E+02 -.646E+01 0.252E+00   -.388E+01 0.476E+00 0.131E-01
   -.155E+02 -.371E+00 -.142E+01   0.159E+02 -.202E+00 0.144E+01   -.397E+00 0.368E+00 -.168E-01
   -.226E+01 0.321E+01 0.109E+00   0.240E+01 -.357E+01 -.104E+00   -.624E-01 0.233E+00 -.691E-03
   -.666E+01 0.292E+00 -.259E+00   0.702E+01 -.411E+00 0.264E+00   -.423E+00 0.167E+00 -.611E-02
   -.138E+02 -.736E+01 -.189E+00   0.142E+02 0.772E+01 0.192E+00   -.345E+00 -.433E+00 -.471E-02
   -.142E+02 0.202E+01 -.789E-01   0.148E+02 -.162E+01 0.789E-01   -.530E+00 -.189E+00 0.962E-03
   0.114E+01 0.292E+00 -.442E+00   -.113E+01 -.309E+00 0.441E+00   -.242E-01 -.919E-02 -.308E-02
   0.481E+01 -.194E+02 -.487E+01   -.795E+00 0.252E+02 0.491E+01   -.427E+01 -.616E+01 -.575E-01
   -.482E+01 -.194E+02 -.502E+01   0.806E+00 0.251E+02 0.505E+01   0.428E+01 -.616E+01 -.599E-01
   0.377E+02 -.131E+01 -.373E+01   -.254E+02 0.265E+00 0.384E+01   -.121E+02 0.737E+00 -.139E-02
   -.377E+02 -.130E+01 -.434E+01   0.253E+02 0.246E+00 0.447E+01   0.121E+02 0.744E+00 -.276E-01
   0.294E+01 0.385E+02 0.145E+00   0.611E+01 -.550E+02 -.180E+00   -.918E+01 0.160E+02 0.783E-01
   -.292E+01 0.385E+02 0.434E+00   -.613E+01 -.550E+02 -.483E+00   0.918E+01 0.160E+02 0.932E-01
   0.574E-02 0.105E+03 0.493E+02   -.656E-02 -.115E+03 -.482E+02   0.408E-03 0.810E+01 -.113E+01
   -.381E-02 -.669E+02 -.127E+02   0.286E-02 0.692E+02 0.124E+02   0.191E-02 -.126E+00 0.889E-01
 -----------------------------------------------------------------------------------------------
   -.456E-02 -.168E+02 0.107E+01   -.259E-12 -.114E-12 -.160E-13   0.664E-02 0.147E+02 -.106E+01
 
 
 POSITION                                       TOTAL-FORCE (eV/Angst)
 -----------------------------------------------------------------------------------
      2.80959     12.49671      9.98722        -0.106660     -0.036688     -0.001793
      0.70223      1.25672      9.98446        -0.124219      0.030817      0.003815
      1.39543     12.49650      9.98740         0.130683     -0.081282     -0.001974
      3.51743      1.24087      9.98554         0.106048      0.073515      0.004650
      2.84238      2.50195      9.98666         0.039865     -0.076951      0.003869
      0.70466      3.75720      9.98460        -0.153102     -0.078277     -0.001259
      1.41539      2.50689      9.98499         0.003500     -0.005946      0.004623
      3.59442      3.74241      9.98623         0.265303     -0.078994     -0.025295
      2.85958      4.99258      9.98200        -0.301297      0.102614      0.005767
      0.71175      6.26060      9.98422         0.010518      0.142102     -0.000427
      1.43277      5.00684      9.98356         0.267907      0.131867     -0.002284
      3.58612      6.24846      9.98477         0.267770      0.124028     -0.009631
      2.88303      7.51447      9.98776         0.021943     -0.189815     -0.002684
      0.70759      8.74305      9.98545        -0.076448     -0.107595      0.003639
      1.44317      7.50625      9.98548        -0.182145     -0.129158      0.011699
      3.60781      8.76786      9.98622         0.503374     -0.141360      0.001946
      2.84719      9.99693      9.98616        -0.139952      0.205589      0.001493
      0.70303     11.23801      9.98754        -0.001908     -0.024446     -0.003407
      1.41630      9.98901      9.98660         0.086300      0.056058     -0.001552
      3.52052     11.25444      9.98648        -0.043395     -0.097805     -0.001447
      7.06037     12.48662      9.98575         0.043187     -0.078871      0.003405
      4.93232      1.21499      9.98549        -0.081423      0.039808      0.021279
      5.64944     12.48648      9.98576        -0.043742     -0.078129      0.003446
      7.77826      1.21530      9.98546         0.081962      0.039227      0.021885
      7.06812      2.43025      9.98881         0.318762      0.274582     -0.007337
      5.64221      2.43009      9.98874        -0.317607      0.275078     -0.007940
      7.06908     10.03369      9.98485         0.238200     -0.256708     -0.006247
      4.94066     11.25749      9.98557         0.137288      0.107344     -0.005135
      5.64118     10.03356      9.98505        -0.240059     -0.256239     -0.006696
      7.76940     11.25777      9.98551        -0.138607      0.107177     -0.005572
     11.31436     12.49713      9.98728        -0.130975     -0.082053     -0.002168
      9.19313      1.24143      9.98546        -0.105547      0.072006      0.005019
      9.90020     12.49737      9.98717         0.106312     -0.038243     -0.002067
     12.00831      1.25739      9.98423         0.125006      0.030189      0.003902
     11.29491      2.50754      9.98479        -0.002013     -0.006897      0.005089
      9.11571      3.74300      9.98648        -0.263673     -0.080803     -0.025247
      9.86791      2.50261      9.98658        -0.038240     -0.078438      0.004569
     12.00548      3.75785      9.98438         0.154908     -0.078924     -0.001120
     11.27734      5.00751      9.98347        -0.266415      0.130867     -0.002006
      9.12407      6.24911      9.98524        -0.266663      0.122054     -0.009995
      9.85052      4.99323      9.98226         0.302735      0.101396      0.005180
     11.99843      6.26123      9.98402        -0.010055      0.141576     -0.000406
     11.26711      7.50691      9.98525         0.181444     -0.129987      0.011929
      9.10254      8.76843      9.98586        -0.504950     -0.142780      0.002713
      9.82727      7.51511      9.98762        -0.022828     -0.191890     -0.001838
     12.00273      8.74370      9.98521         0.074961     -0.108167      0.003618
     11.29395      9.98966      9.98648        -0.088175      0.055366     -0.002082
      9.18954     11.25500      9.98643         0.041903     -0.099535     -0.002128
      9.86306      9.99757      9.98602         0.138318      0.203945      0.000995
     12.00703     11.23868      9.98738         0.000564     -0.025447     -0.003673
      5.01665      3.70030      9.98795        -0.475503     -0.765775     -0.024323
      7.69348      3.70058      9.98834         0.478135     -0.767579     -0.026422
      4.92259      6.23034      9.98208        -0.850769     -0.256741      0.107642
      7.78761      6.23061      9.98326         0.850164     -0.256196      0.105508
      4.99729      8.80930      9.98534        -0.925031      0.882399      0.050100
      7.71306      8.80952      9.98474         0.923771      0.883423      0.052358
      6.35517      5.13027      9.91818        -0.000200     -0.778880     -0.017937
      6.35506      7.37172      9.99656         0.000769      1.273574     -0.238041
 -----------------------------------------------------------------------------------
    total drift:                                0.002274     -0.000824     -0.002675


--------------------------------------------------------------------------------------------------------



  FREE ENERGIE OF THE ION-ELECTRON SYSTEM (eV)
  ---------------------------------------------------
  free  energy   TOTEN  =      -612.00180986 eV

  energy  without entropy=     -612.00180986  energy(sigma->0) =     -612.00180986
 


--------------------------------------------------------------------------------------------------------


    POTLOK:  cpu time    3.4342: real time    3.4349


--------------------------------------------------------------------------------------------------------


 stress matrix after NEB project (eV)
    -42.33033      0.00219      0.00153
      0.00219    -40.06523     -0.00272
      0.00153     -0.00245     -0.36231
  FORCES: max atom, RMS     1.295629    0.442834
  FORCE total and by dimension    3.372523    1.273574
  Stress total and by dimension   58.285596   42.330327
 writing wavefunctions
     LOOP+:  cpu time**********: real time**********
    4ORBIT:  cpu time    0.0000: real time    0.0000
 


 total charge     
 
# of ion       s       p       d       tot
------------------------------------------
    1        0.867   1.776   0.000   2.644
    2        0.864   1.760   0.000   2.624
    3        0.866   1.764   0.000   2.630
    4        0.868   1.775   0.000   2.643
    5        0.864   1.752   0.000   2.616
    6        0.862   1.752   0.000   2.614
    7        0.864   1.752   0.000   2.616
    8        0.860   1.736   0.000   2.596
    9        0.861   1.746   0.000   2.607
   10        0.857   1.741   0.000   2.598
   11        0.861   1.740   0.000   2.601
   12        0.862   1.728   0.000   2.590
   13        0.854   1.755   0.000   2.609
   14        0.862   1.755   0.000   2.618
   15        0.858   1.740   0.000   2.599
   16        0.854   1.696   0.000   2.550
   17        0.863   1.764   0.000   2.627
   18        0.864   1.761   0.000   2.624
   19        0.863   1.757   0.000   2.619
   20        0.869   1.766   0.000   2.635
   21        0.871   1.793   0.000   2.664
   22        0.875   1.796   0.000   2.670
   23        0.871   1.793   0.000   2.664
   24        0.875   1.796   0.000   2.671
   25        0.884   1.781   0.000   2.665
   26        0.884   1.781   0.000   2.665
   27        0.866   1.760   0.000   2.627
   28        0.872   1.799   0.000   2.671
   29        0.866   1.760   0.000   2.627
   30        0.872   1.799   0.000   2.671
   31        0.866   1.764   0.000   2.630
   32        0.868   1.775   0.000   2.643
   33        0.867   1.776   0.000   2.644
   34        0.864   1.760   0.000   2.624
   35        0.864   1.752   0.000   2.616
   36        0.860   1.735   0.000   2.596
   37        0.864   1.752   0.000   2.616
   38        0.862   1.752   0.000   2.614
   39        0.861   1.740   0.000   2.601
   40        0.862   1.728   0.000   2.590
   41        0.861   1.746   0.000   2.607
   42        0.857   1.741   0.000   2.598
   43        0.858   1.740   0.000   2.599
   44        0.854   1.696   0.000   2.550
   45        0.854   1.755   0.000   2.609
   46        0.862   1.755   0.000   2.618
   47        0.863   1.757   0.000   2.619
   48        0.869   1.766   0.000   2.635
   49        0.863   1.764   0.000   2.627
   50        0.864   1.761   0.000   2.624
   51        0.873   1.661   0.000   2.534
   52        0.873   1.661   0.000   2.534
   53        1.254   2.600   0.000   3.854
   54        1.254   2.600   0.000   3.854
   55        1.229   2.660   0.000   3.889
   56        1.229   2.660   0.000   3.889
   57        0.551   0.813   6.344   7.708
   58        0.369   0.542   5.070   5.982
--------------------------------------------------
tot         50.857 103.085  11.415 165.357
 


 magnetization (x)
 
# of ion       s       p       d       tot
------------------------------------------
    1       -0.000  -0.002   0.000  -0.003
    2       -0.000  -0.001   0.000  -0.001
    3        0.000   0.004   0.000   0.005
    4        0.001   0.009   0.000   0.010
    5       -0.001  -0.004   0.000  -0.005
    6       -0.000   0.001   0.000   0.001
    7        0.000   0.004   0.000   0.004
    8        0.000   0.006   0.000   0.006
    9       -0.001  -0.004   0.000  -0.005
   10        0.000   0.004   0.000   0.004
   11       -0.000   0.003   0.000   0.003
   12        0.000  -0.002   0.000  -0.002
   13       -0.001   0.006   0.000   0.006
   14        0.000   0.003   0.000   0.003
   15       -0.000   0.003   0.000   0.002
   16        0.001   0.011   0.000   0.011
   17       -0.001  -0.004   0.000  -0.004
   18       -0.000   0.001   0.000   0.001
   19       -0.000   0.000   0.000   0.000
   20        0.001   0.015   0.000   0.016
   21        0.000   0.003   0.000   0.003
   22       -0.001  -0.006   0.000  -0.007
   23        0.000   0.003   0.000   0.003
   24       -0.001  -0.006   0.000  -0.007
   25        0.000   0.010   0.000   0.011
   26        0.000   0.010   0.000   0.011
   27        0.000   0.012   0.000   0.012
   28       -0.001  -0.002   0.000  -0.002
   29        0.000   0.012   0.000   0.012
   30       -0.001  -0.002   0.000  -0.002
   31        0.000   0.004   0.000   0.005
   32        0.001   0.009   0.000   0.010
   33       -0.000  -0.002   0.000  -0.003
   34       -0.000  -0.001   0.000  -0.001
   35        0.000   0.004   0.000   0.004
   36        0.000   0.006   0.000   0.006
   37       -0.001  -0.004   0.000  -0.005
   38       -0.000   0.001   0.000   0.001
   39       -0.000   0.003   0.000   0.003
   40        0.000  -0.002   0.000  -0.002
   41       -0.001  -0.004   0.000  -0.005
   42        0.000   0.004   0.000   0.004
   43       -0.000   0.003   0.000   0.002
   44        0.001   0.011   0.000   0.011
   45       -0.001   0.007   0.000   0.006
   46        0.000   0.003   0.000   0.003
   47       -0.000   0.000   0.000   0.000
   48        0.001   0.015   0.000   0.016
   49       -0.001  -0.004   0.000  -0.004
   50       -0.000   0.001   0.000   0.001
   51       -0.015  -0.060   0.000  -0.075
   52       -0.015  -0.060   0.000  -0.075
   53       -0.013  -0.149   0.000  -0.162
   54       -0.013  -0.149   0.000  -0.161
   55       -0.007  -0.022   0.000  -0.029
   56       -0.007  -0.022   0.000  -0.029
   57        0.033  -0.001   2.007   2.040
   58        0.047   0.024   2.917   2.989
--------------------------------------------------
tot          0.006  -0.296   4.924   4.634
 

 total amount of memory used by VASP MPI-rank0   178875. kBytes
=======================================================================

   base      :      30000. kBytes
   nonl-proj :       5326. kBytes
   fftplans  :      14250. kBytes
   grid      :      36827. kBytes
   one-center:         62. kBytes
   HF        :         23. kBytes
   nonlr-proj:      15398. kBytes
   wavefun   :      76989. kBytes
 
  
  
 General timing and accounting informations for this job:
 ========================================================
  
                  Total CPU time used (sec):   128686.656
                            User time (sec):   128542.276
                          System time (sec):      144.378
                         Elapsed time (sec):   128736.683
  
                   Maximum memory used (kb):      442960.
                   Average memory used (kb):           0.
  
                          Minor page faults:       970892
                          Major page faults:            0
                 Voluntary context switches:         1860
