 vasp.5.4.4.18Apr17-6-g9f103f2a35 (build Feb 25 2019 10:51:38) complex          
  
 executed on             LinuxIFC date 2021.08.09  11:50:06
 running on   32 total cores
 distrk:  each k-point on   32 cores,    1 groups
 distr:  one band on NCORES_PER_BAND=  32 cores,    1 groups


--------------------------------------------------------------------------------------------------------


 INCAR:
 POTCAR:    PAW_PBE C 08Apr2002                   
 POTCAR:    PAW_PBE N 08Apr2002                   
 POTCAR:    PAW_PBE Fe 06Sep2000                  
 POTCAR:    PAW_PBE Mn 06Sep2000                  

 ----------------------------------------------------------------------------- 
|                                                                             |
|           W    W    AA    RRRRR   N    N  II  N    N   GGGG   !!!           |
|           W    W   A  A   R    R  NN   N  II  NN   N  G    G  !!!           |
|           W    W  A    A  R    R  N N  N  II  N N  N  G       !!!           |
|           W WW W  AAAAAA  RRRRR   N  N N  II  N  N N  G  GGG   !            |
|           WW  WW  A    A  R   R   N   NN  II  N   NN  G    G                |
|           W    W  A    A  R    R  N    N  II  N    N   GGGG   !!!           |
|                                                                             |
|      For optimal performance we recommend to set                            |
|        NCORE= 4 - approx SQRT( number of cores)                             |
|      NCORE specifies how many cores store one orbital (NPAR=cpu/NCORE).     |
|      This setting can  greatly improve the performance of VASP for DFT.     |
|      The default,   NCORE=1            might be grossly inefficient         |
|      on modern multi-core architectures or massively parallel machines.     |
|      Do your own testing !!!!                                               |
|      Unfortunately you need to use the default for GW and RPA calculations. |
|      (for HF NCORE is supported but not extensively tested yet)             |
|                                                                             |
 ----------------------------------------------------------------------------- 

 POTCAR:    PAW_PBE C 08Apr2002                   
   VRHFIN =C: s2p2                                                              
   LEXCH  = PE                                                                  
   EATOM  =   147.1560 eV,   10.8157 Ry                                         
                                                                                
   TITEL  = PAW_PBE C 08Apr2002                                                 
   LULTRA =        F    use ultrasoft PP ?                                      
   IUNSCR =        1    unscreen: 0-lin 1-nonlin 2-no                           
   RPACOR =    1.200    partial core radius                                     
   POMASS =   12.011; ZVAL   =    4.000    mass and valenz                      
   RCORE  =    1.500    outmost cutoff radius                                   
   RWIGS  =    1.630; RWIGS  =    0.863    wigner-seitz radius (au A)           
   ENMAX  =  400.000; ENMIN  =  300.000 eV                                      
   ICORE  =        2    local potential                                         
   LCOR   =        T    correct aug charges                                     
   LPAW   =        T    paw PP                                                  
   EAUG   =  644.873                                                            
   DEXC   =    0.000                                                            
   RMAX   =    1.529    core radius for proj-oper                               
   RAUG   =    1.300    factor for augmentation sphere                          
   RDEP   =    1.501    radius for radial grids                                 
   RDEPT  =    1.300    core radius for aug-charge                              
                                                                                
   Atomic configuration                                                         
    4 entries                                                                   
     n  l   j            E        occ.                                          
     1  0  0.50      -273.3789   2.0000                                         
     2  0  0.50       -13.7508   2.0000                                         
     2  1  0.50        -5.2854   2.0000                                         
     3  2  1.50        -5.4423   0.0000                                         
   Description                                                                  
     l       E           TYP  RCUT    TYP  RCUT                                 
     0    -13.7508458     23  1.200                                             
     0     -8.2022199     23  1.200                                             
     1     -5.2854383     23  1.500                                             
     1     34.0145650     23  1.500                                             
     2     -5.4423304      7  1.500                                             
  local pseudopotential read in
  partial core-charges read in
  partial kinetic energy density read in
  atomic valenz-charges read in
  non local Contribution for L=           0  read in
    real space projection operators read in
  non local Contribution for L=           0  read in
    real space projection operators read in
  non local Contribution for L=           1  read in
    real space projection operators read in
  non local Contribution for L=           1  read in
    real space projection operators read in
    PAW grid and wavefunctions read in
 
   number of l-projection  operators is LMAX  =           4
   number of lm-projection operators is LMMAX =           8
 
 POTCAR:    PAW_PBE N 08Apr2002                   
   VRHFIN =N: s2p3                                                              
   LEXCH  = PE                                                                  
   EATOM  =   264.5486 eV,   19.4438 Ry                                         
                                                                                
   TITEL  = PAW_PBE N 08Apr2002                                                 
   LULTRA =        F    use ultrasoft PP ?                                      
   IUNSCR =        1    unscreen: 0-lin 1-nonlin 2-no                           
   RPACOR =    1.200    partial core radius                                     
   POMASS =   14.001; ZVAL   =    5.000    mass and valenz                      
   RCORE  =    1.500    outmost cutoff radius                                   
   RWIGS  =    1.400; RWIGS  =    0.741    wigner-seitz radius (au A)           
   ENMAX  =  400.000; ENMIN  =  300.000 eV                                      
   ICORE  =        2    local potential                                         
   LCOR   =        T    correct aug charges                                     
   LPAW   =        T    paw PP                                                  
   EAUG   =  627.112                                                            
   DEXC   =    0.000                                                            
   RMAX   =    1.529    core radius for proj-oper                               
   RAUG   =    1.300    factor for augmentation sphere                          
   RDEP   =    1.514    radius for radial grids                                 
   RDEPT  =    1.338    core radius for aug-charge                              
                                                                                
   Atomic configuration                                                         
    4 entries                                                                   
     n  l   j            E        occ.                                          
     1  0  0.50      -384.7179   2.0000                                         
     2  0  0.50       -18.5828   2.0000                                         
     2  1  0.50        -7.0898   3.0000                                         
     3  2  1.50        -6.8029   0.0000                                         
   Description                                                                  
     l       E           TYP  RCUT    TYP  RCUT                                 
     0    -18.5828119     23  1.200                                             
     0    -13.5018863     23  1.200                                             
     1     -7.0897853     23  1.500                                             
     1      9.5240782     23  1.500                                             
     2     -6.8029130      7  1.500                                             
  local pseudopotential read in
  partial core-charges read in
  partial kinetic energy density read in
  atomic valenz-charges read in
  non local Contribution for L=           0  read in
    real space projection operators read in
  non local Contribution for L=           0  read in
    real space projection operators read in
  non local Contribution for L=           1  read in
    real space projection operators read in
  non local Contribution for L=           1  read in
    real space projection operators read in
    PAW grid and wavefunctions read in
 
   number of l-projection  operators is LMAX  =           4
   number of lm-projection operators is LMMAX =           8
 
 POTCAR:    PAW_PBE Fe 06Sep2000                  
   VRHFIN =Fe:  d7 s1                                                           
   LEXCH  = PE                                                                  
   EATOM  =   594.3153 eV,   43.6809 Ry                                         
                                                                                
   TITEL  = PAW_PBE Fe 06Sep2000                                                
   LULTRA =        F    use ultrasoft PP ?                                      
   IUNSCR =        1    unscreen: 0-lin 1-nonlin 2-no                           
   RPACOR =    2.000    partial core radius                                     
   POMASS =   55.847; ZVAL   =    8.000    mass and valenz                      
   RCORE  =    2.300    outmost cutoff radius                                   
   RWIGS  =    2.460; RWIGS  =    1.302    wigner-seitz radius (au A)           
   ENMAX  =  267.882; ENMIN  =  200.911 eV                                      
   RCLOC  =    1.701    cutoff for local pot                                    
   LCOR   =        T    correct aug charges                                     
   LPAW   =        T    paw PP                                                  
   EAUG   =  511.368                                                            
   DEXC   =    0.000                                                            
   RMAX   =    2.356    core radius for proj-oper                               
   RAUG   =    1.300    factor for augmentation sphere                          
   RDEP   =    2.442    radius for radial grids                                 
   RDEPT  =    1.890    core radius for aug-charge                              
                                                                                
   Atomic configuration                                                         
    9 entries                                                                   
     n  l   j            E        occ.                                          
     1  0  0.50     -6993.8440   2.0000                                         
     2  0  0.50      -814.6047   2.0000                                         
     2  1  1.50      -693.3689   6.0000                                         
     3  0  0.50       -89.4732   2.0000                                         
     3  1  1.50       -55.6373   6.0000                                         
     3  2  2.50        -3.8151   7.0000                                         
     4  0  0.50        -4.2551   1.0000                                         
     4  1  1.50        -3.4015   0.0000                                         
     4  3  2.50        -1.3606   0.0000                                         
   Description                                                                  
     l       E           TYP  RCUT    TYP  RCUT                                 
     2     -3.8151135     23  2.300                                             
     2     -5.1756961     23  2.300                                             
     0     -4.2550963     23  2.300                                             
     0      7.2035603     23  2.300                                             
     1     -2.7211652     23  2.300                                             
     1     18.4316424     23  2.300                                             
  local pseudopotential read in
  partial core-charges read in
  partial kinetic energy density read in
  atomic valenz-charges read in
  non local Contribution for L=           2  read in
    real space projection operators read in
  non local Contribution for L=           2  read in
    real space projection operators read in
  non local Contribution for L=           0  read in
    real space projection operators read in
  non local Contribution for L=           0  read in
    real space projection operators read in
  non local Contribution for L=           1  read in
    real space projection operators read in
  non local Contribution for L=           1  read in
    real space projection operators read in
    PAW grid and wavefunctions read in
 
   number of l-projection  operators is LMAX  =           6
   number of lm-projection operators is LMMAX =          18
 
 POTCAR:    PAW_PBE Mn 06Sep2000                  
   VRHFIN =Mn: d6 s1                                                            
   LEXCH  = PE                                                                  
   EATOM  =   416.7541 eV,   30.6306 Ry                                         
                                                                                
   TITEL  = PAW_PBE Mn 06Sep2000                                                
   LULTRA =        F    use ultrasoft PP ?                                      
   IUNSCR =        1    unscreen: 0-lin 1-nonlin 2-no                           
   RPACOR =    2.000    partial core radius                                     
   POMASS =   54.938; ZVAL   =    7.000    mass and valenz                      
   RCORE  =    2.300    outmost cutoff radius                                   
   RWIGS  =    2.500; RWIGS  =    1.323    wigner-seitz radius (au A)           
   ENMAX  =  269.864; ENMIN  =  202.398 eV                                      
   RCLOC  =    1.725    cutoff for local pot                                    
   LCOR   =        T    correct aug charges                                     
   LPAW   =        T    paw PP                                                  
   EAUG   =  500.711                                                            
   DEXC   =    0.000                                                            
   RMAX   =    2.343    core radius for proj-oper                               
   RAUG   =    1.300    factor for augmentation sphere                          
   RDEP   =    2.338    radius for radial grids                                 
   RDEPT  =    1.911    core radius for aug-charge                              
                                                                                
   Atomic configuration                                                         
    9 entries                                                                   
     n  l   j            E        occ.                                          
     1  0  0.50     -6424.8288   2.0000                                         
     2  0  0.50      -739.1154   2.0000                                         
     2  1  1.50      -625.3949   6.0000                                         
     3  0  0.50       -81.6100   2.0000                                         
     3  1  1.50       -50.4667   6.0000                                         
     3  2  2.50        -3.3745   6.0000                                         
     4  0  0.50        -4.1331   1.0000                                         
     4  1  0.50        -4.0817   0.0000                                         
     4  3  2.50        -1.3606   0.0000                                         
   Description                                                                  
     l       E           TYP  RCUT    TYP  RCUT                                 
     2     -3.3744664     23  2.300                                             
     2     -4.7350490     23  2.300                                             
     0     -4.1331408     23  2.300                                             
     0      7.6656614     23  2.300                                             
     1     -2.7211652     23  2.300                                             
     1     20.4087390     23  2.300                                             
  local pseudopotential read in
  partial core-charges read in
  partial kinetic energy density read in
  atomic valenz-charges read in
  non local Contribution for L=           2  read in
    real space projection operators read in
  non local Contribution for L=           2  read in
    real space projection operators read in
  non local Contribution for L=           0  read in
    real space projection operators read in
  non local Contribution for L=           0  read in
    real space projection operators read in
  non local Contribution for L=           1  read in
    real space projection operators read in
  non local Contribution for L=           1  read in
    real space projection operators read in
    PAW grid and wavefunctions read in
 
   number of l-projection  operators is LMAX  =           6
   number of lm-projection operators is LMMAX =          18
 

 ----------------------------------------------------------------------------- 
|                                                                             |
|  ADVICE TO THIS USER RUNNING 'VASP/VAMP'   (HEAR YOUR MASTER'S VOICE ...):  |
|                                                                             |
|      You have a (more or less) 'large supercell' and for larger cells       |
|      it might be more efficient to use real space projection opertators     |
|      So try LREAL= Auto  in the INCAR   file.                               |
|      Mind:          For very  accurate calculation you might also keep the  |
|      reciprocal projection scheme          (i.e. LREAL=.FALSE.)             |
|                                                                             |
 ----------------------------------------------------------------------------- 

  PAW_PBE C 08Apr2002                   :
 energy of atom  1       EATOM= -147.1560
 kinetic energy error for atom=    0.0076 (will be added to EATOM!!)
  PAW_PBE N 08Apr2002                   :
 energy of atom  2       EATOM= -264.5486
 kinetic energy error for atom=    0.0138 (will be added to EATOM!!)
  PAW_PBE Fe 06Sep2000                  :
 energy of atom  3       EATOM= -594.3153
 kinetic energy error for atom=    0.0026 (will be added to EATOM!!)
  PAW_PBE Mn 06Sep2000                  :
 energy of atom  4       EATOM= -416.7541
 kinetic energy error for atom=    0.0024 (will be added to EATOM!!)
 
 
 POSCAR:  C  N Fe Mn                             
  positions in cartesian coordinates
  No initial velocities read in
 exchange correlation table for  LEXCH =        8
   RHO(1)=    0.500       N(1)  =     2000
   RHO(2)=  100.500       N(2)  =     4000

 VTST: version 3.2, (02/03/18)

 CHAIN: initializing optimizer
 
 OPT: Using VASP Conjugate-Gradient optimizer
 CHAIN: Read ICHAIN            0
 
 POSCAR:  C  N Fe Mn                             
  positions in cartesian coordinates
  No initial velocities read in
 


--------------------------------------------------------------------------------------------------------


 ion  position               nearest neighbor table
   1  0.221  0.999  0.500-   4 1.42  19 1.43   3 1.43
   2  0.052  0.101  0.500-   7 1.42   3 1.43  34 1.43
   3  0.110  0.000  0.500-  17 1.42   2 1.43   1 1.43
   4  0.275  0.099  0.500-   1 1.42   5 1.42  21 1.43
   5  0.218  0.199  0.500-   8 1.41   4 1.42   7 1.43
   6  0.051  0.301  0.500-   7 1.42  11 1.43  38 1.43
   7  0.107  0.200  0.500-   6 1.42   2 1.42   5 1.43
   8  0.272  0.298  0.500-  51 1.38   5 1.41   9 1.42
   9  0.217  0.399  0.500-  50 1.39  11 1.41   8 1.42
  10  0.055  0.501  0.500-  11 1.42  41 1.42  14 1.44
  11  0.108  0.400  0.500-   9 1.41  10 1.42   6 1.43
  12  0.226  0.595  0.500-  50 1.39  14 1.44  15 1.47
  13  0.058  0.701  0.500-  18 1.42  14 1.43  45 1.43
  14  0.114  0.600  0.500-  13 1.43  12 1.44  10 1.44
  15  0.285  0.696  0.500-  53 1.38  16 1.45  12 1.47
  16  0.225  0.797  0.500-  19 1.43  18 1.44  15 1.45
  17  0.056  0.901  0.500-   3 1.42  18 1.43  49 1.43
  18  0.113  0.800  0.500-  13 1.42  17 1.43  16 1.44
  19  0.279  0.898  0.500-  16 1.43  28 1.43   1 1.43
  20  0.554  0.002  0.500-  22 1.43  30 1.43  23 1.44
  21  0.386  0.101  0.500-   4 1.43  22 1.43  25 1.45
  22  0.443  0.000  0.500-  20 1.43  21 1.43  28 1.44
  23  0.607  0.104  0.500-  24 1.44  32 1.44  20 1.44
  24  0.550  0.206  0.500-  23 1.44  25 1.44  26 1.45
  25  0.438  0.205  0.500-  51 1.38  24 1.44  21 1.45
  26  0.605  0.308  0.500-  52 1.34  24 1.45  36 1.45
  27  0.558  0.797  0.500-  54 1.37  30 1.45  29 1.48
  28  0.390  0.898  0.500-  19 1.43  22 1.44  29 1.45
  29  0.444  0.794  0.500-  53 1.38  28 1.45  27 1.48
  30  0.610  0.901  0.500-  20 1.43  47 1.44  27 1.45
  31  0.887  0.003  0.500-  34 1.42  49 1.43  33 1.44
  32  0.718  0.106  0.500-  33 1.43  23 1.44  37 1.44
  33  0.775  0.005  0.500-  47 1.43  32 1.43  31 1.44
  34  0.941  0.103  0.500-  31 1.42  35 1.43   2 1.43
  35  0.885  0.204  0.500-  38 1.43  34 1.43  37 1.44
  36  0.717  0.309  0.500-  37 1.44  40 1.45  26 1.45
  37  0.773  0.207  0.500-  35 1.44  36 1.44  32 1.44
  38  0.941  0.303  0.500-  39 1.42  35 1.43   6 1.43
  39  0.886  0.405  0.500-  38 1.42  41 1.43  40 1.44
  40  0.775  0.409  0.500-  55 1.38  39 1.44  36 1.45
  41  0.945  0.503  0.500-  10 1.42  42 1.42  39 1.43
  42  0.891  0.605  0.500-  44 1.41  41 1.42  45 1.42
  43  0.724  0.706  0.500-  54 1.38  48 1.42  44 1.43
  44  0.781  0.605  0.501-  55 1.38  42 1.41  43 1.43
  45  0.947  0.703  0.500-  46 1.42  42 1.42  13 1.43
  46  0.890  0.803  0.500-  49 1.42  45 1.42  48 1.43
  47  0.721  0.904  0.500-  48 1.42  33 1.43  30 1.44
  48  0.779  0.804  0.500-  43 1.42  47 1.42  46 1.43
  49  0.945  0.903  0.500-  46 1.42  31 1.43  17 1.43
  50  0.275  0.494  0.499-  12 1.39   9 1.39  56 1.89
  51  0.380  0.301  0.499-  25 1.38   8 1.38  56 1.92
  52  0.551  0.401  0.500-  26 1.34  57 1.81  56 1.81
  53  0.392  0.696  0.500-  29 1.38  15 1.38
  54  0.617  0.703  0.501-  27 1.37  43 1.38  57 2.01
  55  0.726  0.510  0.501-  44 1.38  40 1.38  57 1.98
  56  0.417  0.451  0.499-  52 1.81  50 1.89  51 1.92  57 2.36
  57  0.575  0.546  0.501-  52 1.81  55 1.98  54 2.01  56 2.36
 
  LATTYP: Found a triclinic cell.
 ALAT       =    12.8794565394
 B/A-ratio  =     0.9542692561
 C/A-ratio  =     1.5584737488
 COS(alpha) =     0.0005663538
 COS(beta)  =     0.0015289264
 COS(gamma) =     0.0168491939
  
  Lattice vectors:
  
 A1 = (  12.8790052908,   0.1073621865,   0.0098403239)
 A2 = (   0.1046367870,  12.2900234869,   0.0034878162)
 A3 = (   0.0153075209,   0.0055417406,  20.0722883142)


Analysis of symmetry for initial positions (statically):
=====================================================================
 Subroutine PRICEL returns:
 Original cell was already a primitive cell.
 

 Routine SETGRP: Setting up the symmetry group for a 
 triclinic supercell.


 Subroutine GETGRP returns: Found  1 space group operations
 (whereof  1 operations were pure point group operations)
 out of a pool of  2 trial point group operations.


The static configuration has the point symmetry C_1 .


Analysis of symmetry for dynamics (positions and initial velocities):
=====================================================================
 Subroutine PRICEL returns:
 Original cell was already a primitive cell.
 

 Routine SETGRP: Setting up the symmetry group for a 
 triclinic supercell.


 Subroutine GETGRP returns: Found  1 space group operations
 (whereof  1 operations were pure point group operations)
 out of a pool of  2 trial point group operations.


The dynamic configuration has the point symmetry C_1 .


Analysis of structural, dynamic, and magnetic symmetry:
=====================================================================
 Subroutine PRICEL returns:
 Original cell was already a primitive cell.
 

 Routine SETGRP: Setting up the symmetry group for a 
 triclinic supercell.


 Subroutine GETGRP returns: Found  1 space group operations
 (whereof  1 operations were pure point group operations)
 out of a pool of  2 trial point group operations.


The magnetic configuration has the point symmetry C_1 .


 Subroutine INISYM returns: Found  1 space group operations
 (whereof  1 operations are pure point group operations),
 and found     1 'primitive' translations

 
 
 KPOINTS: KPOINTS created by Atomic Simulation Env

Automatic generation of k-mesh.
Space group operators:
 irot       det(A)        alpha          n_x          n_y          n_z        tau_x        tau_y        tau_z
    1     1.000000     0.000000     1.000000     0.000000     0.000000     0.000000     0.000000     0.000000
 
 Subroutine IBZKPT returns following result:
 ===========================================
 
 Found      2 irreducible k-points:
 
 Following reciprocal coordinates:
            Coordinates               Weight
  0.250000  0.250000  0.000000      2.000000
 -0.250000  0.250000  0.000000      2.000000
 
 Following cartesian coordinates:
            Coordinates               Weight
  0.019243  0.020178 -0.000020      2.000000
 -0.019582  0.020508  0.000009      2.000000
 
 
 Subroutine IBZKPT_HF returns following result:
 ==============================================
 
 Found      4 k-points in 1st BZ
 the following      4 k-points will be used (e.g. in the exchange kernel)
 Following reciprocal coordinates:   # in IRBZ
  0.250000  0.250000  0.000000    0.25000000   1 t-inv F
 -0.250000  0.250000  0.000000    0.25000000   2 t-inv F
 -0.250000 -0.250000  0.000000    0.25000000   1 t-inv T
  0.250000 -0.250000 -0.000000    0.25000000   2 t-inv T


--------------------------------------------------------------------------------------------------------




 Dimension of arrays:
   k-points           NKPTS =      2   k-points in BZ     NKDIM =      4   number of bands    NBANDS=    153
   number of dos      NEDOS =    301   number of ions     NIONS =     57
   non local maximal  LDIM  =      6   non local SUM 2l+1 LMDIM =     18
   total plane-waves  NPLWV = ******
   max r-space proj   IRMAX =      1   max aug-charges    IRDMAX=  15196
   dimension x,y,z NGX =    96 NGY =   90 NGZ =  150
   dimension x,y,z NGXF=   192 NGYF=  180 NGZF=  300
   support grid    NGXF=   192 NGYF=  180 NGZF=  300
   ions per type =              49   6   1   1
   NGX,Y,Z   is equivalent  to a cutoff of  12.39, 12.17, 12.42 a.u.
   NGXF,Y,Z  is equivalent  to a cutoff of  24.78, 24.35, 24.85 a.u.

 SYSTEM =  unknown system                          
 POSCAR =   C  N Fe Mn                             

 Startparameter for this run:
   NWRITE =      2    write-flag & timer
   PREC   = accura    normal or accurate (medium, high low for compatibility)
   ISTART =      1    job   : 0-new  1-cont  2-samecut
   ICHARG =      0    charge: 1-file 2-atom 10-const
   ISPIN  =      2    spin polarized calculation?
   LNONCOLLINEAR =      F non collinear calculations
   LSORBIT =      F    spin-orbit coupling
   INIWAV =      1    electr: 0-lowe 1-rand  2-diag
   LASPH  =      T    aspherical Exc in radial PAW
   METAGGA=      F    non-selfconsistent MetaGGA calc.

 Electronic Relaxation 1
   ENCUT  =  500.0 eV  36.75 Ry    6.06 a.u.  23.48 22.41 36.60*2*pi/ulx,y,z
   ENINI  =  500.0     initial cutoff
   ENAUG  =  644.9 eV  augmentation charge cutoff
   NELM   =    250;   NELMIN=  2; NELMDL=  0     # of ELM steps 
   EDIFF  = 0.1E-03   stopping-criterion for ELM
   LREAL  =      F    real-space projection
   NLSPLINE    = F    spline interpolate recip. space projectors
   LCOMPAT=      F    compatible to vasp.4.4
   GGA_COMPAT  = T    GGA compatible to vasp.4.4-vasp.4.6
   LMAXPAW     = -100 max onsite density
   LMAXMIX     =    2 max onsite mixed and CHGCAR
   VOSKOWN=      0    Vosko Wilk Nusair interpolation
   ROPT   =    0.00000   0.00000   0.00000   0.00000
 Ionic relaxation
   EDIFFG = -.3E-01   stopping-criterion for IOM
   NSW    =      0    number of steps for IOM
   NBLOCK =      1;   KBLOCK =      1    inner block; outer block 
   IBRION =     -1    ionic relax: 0-MD 1-quasi-New 2-CG
   NFREE  =      1    steps in history (QN), initial steepest desc. (CG)
   ISIF   =      2    stress and relaxation
   IWAVPR =     10    prediction:  0-non 1-charg 2-wave 3-comb
   ISYM   =      3    0-nonsym 1-usesym 2-fastsym
   LCORR  =      T    Harris-Foulkes like correction to forces

   POTIM  = 0.5000    time-step for ionic-motion
   TEIN   =    0.0    initial temperature
   TEBEG  =    0.0;   TEEND  =   0.0 temperature during run
   SMASS  =  -3.00    Nose mass-parameter (am)
   estimated Nose-frequenzy (Omega)   =  0.10E-29 period in steps =****** mass=  -0.379E-26a.u.
   SCALEE = 1.0000    scale energy and forces
   NPACO  =    256;   APACO  = 16.0  distance and # of slots for P.C.
   PSTRESS=    0.0 pullay stress

  Mass of Ions in am
   POMASS =  12.01 14.00 55.85 54.94
  Ionic Valenz
   ZVAL   =   4.00  5.00  8.00  7.00
  Atomic Wigner-Seitz radii
   RWIGS  =  -1.00 -1.00 -1.00 -1.00
  virtual crystal weights 
   VCA    =   1.00  1.00  1.00  1.00
   NELECT =     241.0000    total number of electrons
   NUPDOWN=      -1.0000    fix difference up-down

 DOS related values:
   EMIN   =  10.00;   EMAX   =-10.00  energy-range for DOS
   EFERMI =   0.00
   ISMEAR =     0;   SIGMA  =   0.10  broadening in eV -4-tet -1-fermi 0-gaus

 Electronic relaxation 2 (details)
   IALGO  =     53    algorithm
   LDIAG  =      T    sub-space diagonalisation (order eigenvalues)
   LSUBROT=      F    optimize rotation matrix (better conditioning)
   TURBO    =      0    0=normal 1=particle mesh
   IRESTART =      0    0=no restart 2=restart with 2 vectors
   NREBOOT  =      0    no. of reboots
   NMIN     =      0    reboot dimension
   EREF     =   0.00    reference energy to select bands
   IMIX   =      4    mixing-type and parameters
     AMIX     =   0.40;   BMIX     =  1.00
     AMIX_MAG =   1.60;   BMIX_MAG =  1.00
     AMIN     =   0.10
     WC   =   100.;   INIMIX=   1;  MIXPRE=   1;  MAXMIX= -45

 Intra band minimization:
   WEIMIN = 0.0000     energy-eigenvalue tresh-hold
   EBREAK =  0.16E-06  absolut break condition
   DEPER  =   0.30     relativ break condition  

   TIME   =   0.20     timestep for ELM

  volume/ion in A,a.u.               =      55.73       376.12
  Fermi-wavevector in a.u.,A,eV,Ry     =   0.693022  1.309621  6.534596  0.480279
  Thomas-Fermi vector in A             =   1.775118
 
 Write flags
   LWAVE        =      T    write WAVECAR
   LDOWNSAMPLE  =      F    k-point downsampling of WAVECAR
   LCHARG       =      T    write CHGCAR
   LVTOT        =      F    write LOCPOT, total local potential
   LVHAR        =      F    write LOCPOT, Hartree potential only
   LELF         =      F    write electronic localiz. function (ELF)
   LORBIT       =     11    0 simple, 1 ext, 2 COOP (PROOUT), +10 PAW based schemes


 Dipole corrections
   LMONO  =      F    monopole corrections only (constant potential shift)
   LDIPOL =      T    correct potential (dipole corrections)
   IDIPOL =      3    1-x, 2-y, 3-z, 4-all directions 
   EPSILON=  1.0000000 bulk dielectric constant

 Exchange correlation treatment:
   GGA     =    PE    GGA type
   LEXCH   =     8    internal setting for exchange type
   VOSKOWN=      0    Vosko Wilk Nusair interpolation
   EXXOEP  =     0    0=HF, 1=EXX-LHF (local Hartree Fock) 2=EXX OEP
   LHFCALC =     T    Hartree Fock is set to
   LSYMGRAD=     F    symmetrize gradient (conserves proper symmetry)
   PRECFOCK=normal    Normal, Fast or Accurate (Low or Medium for compatibility)
   LRHFCALC=     F    long range Hartree Fock
   LRSCOR  =     F    long range correlation only (use DFT for short range part)
   LTHOMAS =     F    Thomas Fermi screening in HF
   LMODELHF=     F    short range full HF, long range fraction AEXX
   ENCUT4O =  -1.0   cutoff for four orbital integrals eV
   LMAXFOCK=     4    L truncation for augmentation on plane wave grid
   LMAXFOCKAE=  -1    L truncation for all-electron charge restoration on plane wave grid
   NMAXFOCKAE=   1    number of basis functions for all-electron charge restoration
   LFOCKAEDFT=     F  apply the AE augmentation even for DFT
   NKREDX  =     1    reduce k-point grid by
   NKREDY  =     1    reduce k-point grid by
   NKREDZ  =     1    reduce k-point grid by
   SHIFTRED=     F    shift reduced grid of Gamma
   HFKIDENT=     F    idential grid for each k-point
   ODDONLY =     F    use only odd q-grid points
   EVENONLY=     F    use only even q-grid points
   HFALPHA =   -1.0000 decay constant for conv. correction
   MCALPHA =    0.0000 extent of test-charge in conv. correction in multipole expansion
   AEXX    =    0.2500 exact exchange contribution
   HFSCREEN=    0.2000 screening length (either q_TF or 0.3 A-1)
   HFSCREENC=   0.2000 screening length for correlation (either q_TF or 0.3 A-1)
   HFRCUT  =    0.0000 spherical cutoff for potential kernel
   ALDAX   =    0.7500 LDA exchange part
   AGGAX   =    0.7500 GGA exchange part
   ALDAC   =    1.0000 LDA correlation
   AGGAC   =    1.0000 GGA correlation
   ENCUTFOCK=  -1.0 apply spherical cutoff to Coloumb kernel
   NBANDSGWLOW=     1    first orbital included in HF term
   NBLOCK_FOCK=    64    blocking factor in FOCK_ACC
 Linear response parameters
   LEPSILON=     F    determine dielectric tensor
   LRPA    =     F    only Hartree local field effects (RPA)
   LNABLA  =     F    use nabla operator in PAW spheres
   LVEL    =     F    velocity operator in full k-point grid
   LINTERFAST=   F  fast interpolation
   KINTER  =     0    interpolate to denser k-point grid
   CSHIFT  =0.1000    complex shift for real part using Kramers Kronig
   OMEGAMAX=  -1.0    maximum frequency
   DEG_THRESHOLD= 0.2000000E-02 threshold for treating states as degnerate
   RTIME   =   -0.100 relaxation time in fs
  (WPLASMAI=    0.000 imaginary part of plasma frequency in eV, 0.658/RTIME)
   DFIELD  = 0.0000000 0.0000000 0.0000000 field for delta impulse in time
 
 Orbital magnetization related:
   ORBITALMAG=     F  switch on orbital magnetization
   LCHIMAG   =     F  perturbation theory with respect to B field
   DQ        =  0.001000  dq finite difference perturbation B field
   LLRAUG    =     F  two centre corrections for induced B field



--------------------------------------------------------------------------------------------------------


 Static calculation
 charge density and potential will be updated during run
 spin polarized calculation
 Conjugate gradient for all bands (Freysoldt, et al. PRB 79, 241103 (2009))
 perform sub-space diagonalisation
    before iterative eigenvector-optimisation
 modified Broyden-mixing scheme, WC =      100.0
 initial mixing is a Kerker type mixing with AMIX =  0.4000 and BMIX =      1.0000
 Hartree-type preconditioning will be used
 using additional bands           32
 reciprocal scheme for non local part
 use partial core corrections
 no Harris-corrections to forces 
 use gradient corrections 
 use of overlap-Matrix (Vanderbilt PP)
 Gauss-broadening in eV      SIGMA  =   0.10


--------------------------------------------------------------------------------------------------------


  energy-cutoff  :      500.00
  volume of cell :     3176.88
      direct lattice vectors                 reciprocal lattice vectors
    12.879005291  0.107362187  0.009840324     0.077651304 -0.000661103 -0.000059036
     0.104636787 12.290023487  0.003487816    -0.000678323  0.081372591 -0.000021949
     0.015307521  0.005541741 20.072288314    -0.000037950 -0.000013815  0.049819963

  length of vectors
    12.879456539 12.290469410 20.072294916     0.077654141  0.081375421  0.049819979


 
 old parameters found on file WAVECAR:
  energy-cutoff  :      500.00
  volume of cell :     3176.88
      direct lattice vectors                 reciprocal lattice vectors
    12.810000000  0.000000000  0.000000000     0.078064012  0.000000000  0.000000000
     0.000000000 12.400000000  0.000000000     0.000000000  0.080645161  0.000000000
     0.000000000  0.000000000 20.000000000     0.000000000  0.000000000  0.050000000

  length of vectors

 
 k-points in units of 2pi/SCALE and weight: KPOINTS created by Atomic Simulation Env
   0.01924325  0.02017787 -0.00002025       0.500
  -0.01958241  0.02050842  0.00000927       0.500
 
 k-points in reciprocal lattice and weights: KPOINTS created by Atomic Simulation Env
   0.25000000  0.25000000  0.00000000       0.500
  -0.25000000  0.25000000  0.00000000       0.500
 
 position of ions in fractional coordinates (direct lattice) 
   0.22118398  0.99894715  0.50012187
   0.05235482  0.10080046  0.50012338
   0.10988242  0.00042604  0.50010848
   0.27504744  0.09898928  0.49999076
   0.21779363  0.19909830  0.49991503
   0.05149461  0.30079058  0.50006299
   0.10687644  0.20025191  0.50008583
   0.27238166  0.29761499  0.49954367
   0.21744913  0.39914529  0.49958312
   0.05497417  0.50146726  0.49994777
   0.10811985  0.39966857  0.49989157
   0.22582508  0.59482034  0.49965993
   0.05815671  0.70085078  0.49992034
   0.11430358  0.59962933  0.49986059
   0.28469755  0.69633125  0.49980343
   0.22487942  0.79722062  0.49999195
   0.05595087  0.90084241  0.50000471
   0.11334059  0.79984096  0.49998245
   0.27853598  0.89806671  0.50007242
   0.55364041  0.00214498  0.49989701
   0.38572629  0.10121458  0.49984287
   0.44301593  0.00024171  0.49996133
   0.60664404  0.10445041  0.49981413
   0.54954755  0.20578288  0.49961194
   0.43751724  0.20492468  0.49951224
   0.60478921  0.30757341  0.49979303
   0.55824427  0.79730614  0.50018088
   0.38964078  0.89784641  0.50003265
   0.44373454  0.79351935  0.50000364
   0.60994339  0.90087316  0.49999230
   0.88674947  0.00296822  0.49994653
   0.71822832  0.10567375  0.49994262
   0.77523791  0.00454301  0.49990890
   0.94114608  0.10267077  0.50007755
   0.88454763  0.20376181  0.50014756
   0.71745826  0.30893444  0.50021350
   0.77306433  0.20660984  0.50010927
   0.94052574  0.30284787  0.50015557
   0.88644227  0.40467751  0.50024237
   0.77503156  0.40931393  0.50047462
   0.94489696  0.50299097  0.50013785
   0.89076770  0.60454431  0.50013993
   0.72392179  0.70577822  0.50035927
   0.78130479  0.60479561  0.50050935
   0.94704562  0.70306106  0.49992139
   0.89040137  0.80323089  0.49986641
   0.72138731  0.90385356  0.49992343
   0.77929923  0.80435153  0.49997780
   0.94457643  0.90275981  0.49989329
   0.27543641  0.49379584  0.49936408
   0.37980353  0.30053136  0.49919036
   0.55062246  0.40147936  0.49961976
   0.39185106  0.69630944  0.49980733
   0.61660932  0.70276317  0.50054585
   0.72575555  0.50989720  0.50091228
   0.41719802  0.45118495  0.49901951
   0.57548930  0.54586166  0.50099128
 
 position of ions in cartesian coordinates  (Angst):
   2.96081189 12.30360226 10.04425113
   0.69248114  1.24723247 10.03948751
   1.42287629  0.01980479 10.03940430
   3.56034894  1.24888107 10.03901055
   2.83345072  2.47307601 10.03727629
   0.70232782  3.70502309 10.03896441
   1.40507098  2.47534652 10.03961720
   3.54679314  3.68970705 10.03070287
   2.84994116  4.93161936 10.03130824
   0.76813748  6.17171711 10.03738568
   1.44194826  4.92631433 10.03642572
   2.97829100  7.33737006 10.03361499
   0.82998790  8.62248679 10.03756200
   1.54251127  7.38450051 10.03656202
   3.74713386  8.59126294 10.03742871
   2.98729550  9.82477451 10.04097604
   0.82250659 11.08015222 10.03993123
   1.55106039  9.84500348 10.03969680
   3.68889203 11.06993642 10.04347090
   7.13821444  0.08857220 10.03953242
   4.98601306  1.28811192 10.03713885
   5.71328297  0.05330448 10.03972825
   7.83155201  1.35159845 10.03874723
   7.10680609  2.59084574 10.03448036
   5.66387586  2.56827017 10.03137378
   7.82891750  3.84778568 10.03901390
   7.28071505  9.86161736 10.04804907
   5.11978763 11.07915715 10.04376514
   5.80554466  9.80278260 10.04335141
   7.95738222 11.14000792 10.04513376
  11.42841467  0.13445344 10.04380718
   9.26877661  1.37861403 10.04242862
   9.99242082  0.14183525 10.04195996
  12.13942347  1.36564092 10.04732008
  11.42107065  2.60197610 10.04852101
   9.28013162  3.87661140 10.04856715
   9.98557405  2.62500909 10.04666525
  12.15238110  3.82575608 10.04957822
  11.46649631  5.07143867 10.05114332
  10.03212588  5.11646037 10.05472508
  12.22962022  6.28598872 10.04996357
  11.54311540  7.52827013 10.04982690
   9.40490217  8.75452554 10.05294072
  10.13337395  7.51960849 10.05616571
  12.27822416  8.74508426 10.04633769
  11.55918322  9.97009209 10.04502602
   9.39297989 11.18860161 10.04485847
  10.12841714  9.97193719 10.04617245
  12.26731891 11.19912132 10.04644592
   3.60666021  6.10110133 10.02781240
   4.93057969  3.73708045 10.02467847
   7.14112701  4.99607556 10.03533041
   5.12716221  8.60249920 10.03856145
   8.02251170  8.70595028 10.05561937
   9.40803128  6.34734321 10.06337589
   5.42794481  5.59263041 10.02214246
   7.47651590  6.77321479 10.06360820
 


--------------------------------------------------------------------------------------------------------


 k-point  1 :   0.2500 0.2500 0.0000  plane waves:   80672
 k-point  2 :  -0.2500 0.2500 0.0000  plane waves:   80668

 maximum and minimum number of plane-waves per node :      2552     2483

 maximum number of plane-waves:     80672
 maximum index in each direction: 
   IXMAX=   23   IYMAX=   22   IZMAX=   36
   IXMIN=  -23   IYMIN=  -22   IZMIN=  -36


 parallel 3D FFT for wavefunctions:
    minimum data exchange during FFTs selected (reduces bandwidth)
 parallel 3D FFT for charge:
    minimum data exchange during FFTs selected (reduces bandwidth)


 FFT grid for exact exchange (Hartree Fock) 
  NGX = 72; NGY = 70; NGZ =112

 
 Radii for the augmentation spheres in the non-local exchange
 for species   1 augmentation radius   0.874 (default was   0.699)
       energy cutoff for augmentation   2000.0
 for species   2 augmentation radius   0.886 (default was   0.709)
       energy cutoff for augmentation   2000.0
 for species   3 augmentation radius   1.263 (default was   1.010)
       energy cutoff for augmentation   2000.0
 for species   4 augmentation radius   1.276 (default was   1.021)
       energy cutoff for augmentation   2000.0

 real space projection operators:
  total allocation   :       2505.26 KBytes
  max/ min on nodes  :        111.39         52.20

 Maximum index for augmentation-charges in exchange          148
  SETUP_FOCK is finished

 total amount of memory used by VASP MPI-rank0   161023. kBytes
=======================================================================

   base      :      30000. kBytes
   nonl-proj :       5283. kBytes
   fftplans  :      13453. kBytes
   grid      :      34560. kBytes
   one-center:         62. kBytes
   HF        :         23. kBytes
   nonlr-proj:       1676. kBytes
   wavefun   :      75966. kBytes
 
     INWAV:  cpu time    3.5533: real time    3.5542
 Broyden mixing: mesh for mixing (old mesh)
   NGX = 47   NGY = 45   NGZ = 73
  (NGX  =192   NGY  =180   NGZ  =300)
  gives a total of 154395 points

 charge density for first step will be calculated from the start-wavefunctions


--------------------------------------------------------------------------------------------------------


 Maximum index for augmentation-charges           98 (set IRDMAX)


--------------------------------------------------------------------------------------------------------


 initial charge from wavefunction
 First call to EWALD:  gamma=   0.121
 Maximum number of real-space cells 3x 3x 2
 Maximum number of reciprocal cells 2x 2x 4

    FEWALD:  cpu time    0.0036: real time    0.0036


--------------------------------------- Iteration      1(   1)  ---------------------------------------


    POTLOK:  cpu time    1.3147: real time    1.3158
    SETDIJ:  cpu time    2.0855: real time    2.0857
    TRIAL :  cpu time  513.9884: real time  514.0431
    CORREC:  cpu time    0.0023: real time    0.0025
    CHARGE:  cpu time    1.6513: real time    1.6514
    --------------------------------------------
      LOOP:  cpu time  519.0577: real time  519.1165

 eigenvalue-minimisations  :     0
 total energy-change (2. order) :-0.6000864E+03  (-0.5492163E+00)
 number of electron     241.0000001 magnetization       2.9507461
 augmentation part       13.3494531 magnetization       1.5922329

 DIPCOR: dipole corrections for dipol
 direction  3 min pos     1,
 dipolmoment          -0.000003     -0.000001     -0.003461 electrons x Angstroem
 Tr[quadrupol]     -6310.863331

 energy correction for charged system         0.000000 eV
 dipol+quadrupol energy correction            0.000000 eV
 added-field ion interaction          0.000000 eV  (added to PSCEN)


 Free energy of the ion-electron system (eV)
  ---------------------------------------------------
  alpha Z        PSCENC =        98.68342945
  Ewald energy   TEWEN  =     38770.18525903
  -Hartree energ DENC   =    -47133.12559527
  -exchange      EXHF   =       548.43327396
  -V(xc)+E(xc)   XCENC  =       604.39308967
  PAW double counting   =     25943.08448253   -25970.47290601
  entropy T*S    EENTRO =        -0.01803969
  eigenvalues    EBANDS =     -3156.42329095
  atomic energy  EATOM  =      9695.17892908
  ---------------------------------------------------
  free energy    TOTEN  =      -600.08636342 eV

  energy without entropy =     -600.06832373  energy(sigma->0) =     -600.07734357
  exchange ACFDT corr.  =        -0.02255964  see jH, gK, PRB 81, 115126


--------------------------------------------------------------------------------------------------------




--------------------------------------- Iteration      1(   2)  ---------------------------------------


    POTLOK:  cpu time    1.3207: real time    1.3207
    SETDIJ:  cpu time    2.0864: real time    2.0864
    TRIAL :  cpu time  513.6675: real time  513.7373
    CORREC:  cpu time    0.0023: real time    0.0025
    CHARGE:  cpu time    1.6320: real time    1.6323
    --------------------------------------------
      LOOP:  cpu time  518.7115: real time  518.7819

 eigenvalue-minimisations  :     0
 total energy-change (2. order) :-0.4280678E+00  (-0.4965318E+00)
 number of electron     241.0000001 magnetization       2.9670095
 augmentation part       13.3048861 magnetization       1.6204011

 DIPCOR: dipole corrections for dipol
 direction  3 min pos     1,
 dipolmoment          -0.000005     -0.000002     -0.005936 electrons x Angstroem
 Tr[quadrupol]     -6310.714888

 energy correction for charged system         0.000000 eV
 dipol+quadrupol energy correction            0.000001 eV
 added-field ion interaction          0.000000 eV  (added to PSCEN)


 Free energy of the ion-electron system (eV)
  ---------------------------------------------------
  alpha Z        PSCENC =        98.68343011
  Ewald energy   TEWEN  =     38770.18525903
  -Hartree energ DENC   =    -47121.05750340
  -exchange      EXHF   =       548.44052221
  -V(xc)+E(xc)   XCENC  =       604.12974633
  PAW double counting   =     26082.47938462   -26109.88313468
  entropy T*S    EENTRO =        -0.01519625
  eigenvalues    EBANDS =     -3168.65302482
  atomic energy  EATOM  =      9695.17892908
  ---------------------------------------------------
  free energy    TOTEN  =      -600.51443121 eV

  energy without entropy =     -600.49923496  energy(sigma->0) =     -600.50683308
  exchange ACFDT corr.  =        -0.01300566  see jH, gK, PRB 81, 115126


--------------------------------------------------------------------------------------------------------




--------------------------------------- Iteration      1(   3)  ---------------------------------------


    POTLOK:  cpu time    1.3233: real time    1.3234
    SETDIJ:  cpu time    2.0849: real time    2.0850
    TRIAL :  cpu time  509.6619: real time  509.7303
    CORREC:  cpu time    0.0023: real time    0.0025
    CHARGE:  cpu time    1.6287: real time    1.6287
    --------------------------------------------
      LOOP:  cpu time  514.7038: real time  514.7726

 eigenvalue-minimisations  :     0
 total energy-change (2. order) :-0.3827417E+00  (-0.3029858E+00)
 number of electron     241.0000001 magnetization       2.9794992
 augmentation part       13.3022541 magnetization       1.6425531

 DIPCOR: dipole corrections for dipol
 direction  3 min pos     1,
 dipolmoment          -0.000005     -0.000002     -0.005965 electrons x Angstroem
 Tr[quadrupol]     -6310.547432

 energy correction for charged system         0.000000 eV
 dipol+quadrupol energy correction            0.000001 eV
 added-field ion interaction          0.000000 eV  (added to PSCEN)


 Free energy of the ion-electron system (eV)
  ---------------------------------------------------
  alpha Z        PSCENC =        98.68343012
  Ewald energy   TEWEN  =     38770.18525903
  -Hartree energ DENC   =    -47104.75374414
  -exchange      EXHF   =       548.48438126
  -V(xc)+E(xc)   XCENC  =       603.81973945
  PAW double counting   =     26253.68671005   -26280.52474419
  entropy T*S    EENTRO =        -0.01325643
  eigenvalues    EBANDS =     -3185.64193734
  atomic energy  EATOM  =      9695.17892908
  ---------------------------------------------------
  free energy    TOTEN  =      -600.89717292 eV

  energy without entropy =     -600.88391649  energy(sigma->0) =     -600.89054471
  exchange ACFDT corr.  =        -0.00951474  see jH, gK, PRB 81, 115126


--------------------------------------------------------------------------------------------------------




--------------------------------------- Iteration      1(   4)  ---------------------------------------


    POTLOK:  cpu time    1.3236: real time    1.3238
    SETDIJ:  cpu time    2.0834: real time    2.0838
    TRIAL :  cpu time  509.6307: real time  509.7366
    CORREC:  cpu time    0.0021: real time    0.0023
    CHARGE:  cpu time    1.6248: real time    1.6251
    --------------------------------------------
      LOOP:  cpu time  514.6673: real time  514.7742

 eigenvalue-minimisations  :     0
 total energy-change (2. order) :-0.2394290E+00  (-0.1985884E+00)
 number of electron     241.0000001 magnetization       2.9877357
 augmentation part       13.3186057 magnetization       1.6516976

 DIPCOR: dipole corrections for dipol
 direction  3 min pos     1,
 dipolmoment          -0.000004     -0.000002     -0.005744 electrons x Angstroem
 Tr[quadrupol]     -6310.494734

 energy correction for charged system         0.000000 eV
 dipol+quadrupol energy correction            0.000001 eV
 added-field ion interaction          0.000000 eV  (added to PSCEN)


 Free energy of the ion-electron system (eV)
  ---------------------------------------------------
  alpha Z        PSCENC =        98.68343005
  Ewald energy   TEWEN  =     38770.18525903
  -Hartree energ DENC   =    -47098.74558800
  -exchange      EXHF   =       548.72880454
  -V(xc)+E(xc)   XCENC  =       603.75382073
  PAW double counting   =     26401.10453417   -26427.97228570
  entropy T*S    EENTRO =        -0.01188841
  eigenvalues    EBANDS =     -3192.04024942
  atomic energy  EATOM  =      9695.17892908
  ---------------------------------------------------
  free energy    TOTEN  =      -601.13660196 eV

  energy without entropy =     -601.12471354  energy(sigma->0) =     -601.13065775
  exchange ACFDT corr.  =        -0.00778766  see jH, gK, PRB 81, 115126


--------------------------------------------------------------------------------------------------------




--------------------------------------- Iteration      1(   5)  ---------------------------------------


    POTLOK:  cpu time    1.3221: real time    1.3223
    SETDIJ:  cpu time    2.0823: real time    2.0826
    TRIAL :  cpu time  509.7250: real time  509.8145
    CORREC:  cpu time    0.0023: real time    0.0025
    CHARGE:  cpu time    1.6252: real time    1.6253
    --------------------------------------------
      LOOP:  cpu time  514.7594: real time  514.8495

 eigenvalue-minimisations  :     0
 total energy-change (2. order) :-0.1614971E+00  (-0.1336389E+00)
 number of electron     241.0000001 magnetization       2.9920943
 augmentation part       13.3257966 magnetization       1.6527997

 DIPCOR: dipole corrections for dipol
 direction  3 min pos     1,
 dipolmoment          -0.000004     -0.000002     -0.005686 electrons x Angstroem
 Tr[quadrupol]     -6310.535371

 energy correction for charged system         0.000000 eV
 dipol+quadrupol energy correction            0.000001 eV
 added-field ion interaction          0.000000 eV  (added to PSCEN)


 Free energy of the ion-electron system (eV)
  ---------------------------------------------------
  alpha Z        PSCENC =        98.68343003
  Ewald energy   TEWEN  =     38770.18525903
  -Hartree energ DENC   =    -47101.07817547
  -exchange      EXHF   =       549.10315825
  -V(xc)+E(xc)   XCENC  =       603.88718635
  PAW double counting   =     26505.48466821   -26532.63441682
  entropy T*S    EENTRO =        -0.01093413
  eigenvalues    EBANDS =     -3190.09624929
  atomic energy  EATOM  =      9695.17892908
  ---------------------------------------------------
  free energy    TOTEN  =      -601.29809905 eV

  energy without entropy =     -601.28716493  energy(sigma->0) =     -601.29263199
  exchange ACFDT corr.  =        -0.00679094  see jH, gK, PRB 81, 115126


--------------------------------------------------------------------------------------------------------




--------------------------------------- Iteration      1(   6)  ---------------------------------------


    POTLOK:  cpu time    1.3246: real time    1.3246
    SETDIJ:  cpu time    2.0847: real time    2.0853
    TRIAL :  cpu time  510.8634: real time  510.9180
    CORREC:  cpu time    0.0020: real time    0.0022
    CHARGE:  cpu time    1.6347: real time    1.6348
    --------------------------------------------
      LOOP:  cpu time  515.9112: real time  515.9668

 eigenvalue-minimisations  :     0
 total energy-change (2. order) :-0.1125143E+00  (-0.9366823E-01)
 number of electron     241.0000001 magnetization       2.9945513
 augmentation part       13.3259180 magnetization       1.6535644

 DIPCOR: dipole corrections for dipol
 direction  3 min pos     1,
 dipolmoment          -0.000004     -0.000002     -0.005551 electrons x Angstroem
 Tr[quadrupol]     -6310.600045

 energy correction for charged system         0.000000 eV
 dipol+quadrupol energy correction            0.000001 eV
 added-field ion interaction          0.000000 eV  (added to PSCEN)


 Free energy of the ion-electron system (eV)
  ---------------------------------------------------
  alpha Z        PSCENC =        98.68342999
  Ewald energy   TEWEN  =     38770.18525903
  -Hartree energ DENC   =    -47105.41960608
  -exchange      EXHF   =       549.46892654
  -V(xc)+E(xc)   XCENC  =       604.07138394
  PAW double counting   =     26570.48475055   -26597.73474376
  entropy T*S    EENTRO =        -0.01021283
  eigenvalues    EBANDS =     -3186.31800850
  atomic energy  EATOM  =      9695.17892908
  ---------------------------------------------------
  free energy    TOTEN  =      -601.41061334 eV

  energy without entropy =     -601.40040051  energy(sigma->0) =     -601.40550693
  exchange ACFDT corr.  =        -0.00614357  see jH, gK, PRB 81, 115126


--------------------------------------------------------------------------------------------------------




--------------------------------------- Iteration      1(   7)  ---------------------------------------


    POTLOK:  cpu time    1.3211: real time    1.3212
    SETDIJ:  cpu time    2.0848: real time    2.0848
    TRIAL :  cpu time  510.4895: real time  510.5374
    CORREC:  cpu time    0.0022: real time    0.0024
    CHARGE:  cpu time    1.6280: real time    1.6281
    --------------------------------------------
      LOOP:  cpu time  515.5277: real time  515.5761

 eigenvalue-minimisations  :     0
 total energy-change (2. order) :-0.8022921E-01  (-0.6522363E-01)
 number of electron     241.0000001 magnetization       2.9961329
 augmentation part       13.3294221 magnetization       1.6560260

 DIPCOR: dipole corrections for dipol
 direction  3 min pos     1,
 dipolmoment          -0.000004     -0.000001     -0.005420 electrons x Angstroem
 Tr[quadrupol]     -6310.652082

 energy correction for charged system         0.000000 eV
 dipol+quadrupol energy correction            0.000001 eV
 added-field ion interaction          0.000000 eV  (added to PSCEN)


 Free energy of the ion-electron system (eV)
  ---------------------------------------------------
  alpha Z        PSCENC =        98.68342994
  Ewald energy   TEWEN  =     38770.18525903
  -Hartree energ DENC   =    -47108.90528760
  -exchange      EXHF   =       549.76088835
  -V(xc)+E(xc)   XCENC  =       604.23074385
  PAW double counting   =     26608.71119809   -26635.92450887
  entropy T*S    EENTRO =        -0.00962271
  eigenvalues    EBANDS =     -3183.40128159
  atomic energy  EATOM  =      9695.17892908
  ---------------------------------------------------
  free energy    TOTEN  =      -601.49084255 eV

  energy without entropy =     -601.48121984  energy(sigma->0) =     -601.48603119
  exchange ACFDT corr.  =        -0.00566910  see jH, gK, PRB 81, 115126


--------------------------------------------------------------------------------------------------------




--------------------------------------- Iteration      1(   8)  ---------------------------------------


    POTLOK:  cpu time    1.3199: real time    1.3200
    SETDIJ:  cpu time    2.0824: real time    2.0825
    TRIAL :  cpu time  509.3720: real time  509.4307
    CORREC:  cpu time    0.0022: real time    0.0024
    CHARGE:  cpu time    1.6394: real time    1.6396
    --------------------------------------------
      LOOP:  cpu time  514.4182: real time  514.4774

 eigenvalue-minimisations  :     0
 total energy-change (2. order) :-0.5713727E-01  (-0.4731299E-01)
 number of electron     241.0000001 magnetization       2.9971746
 augmentation part       13.3370071 magnetization       1.6590101

 DIPCOR: dipole corrections for dipol
 direction  3 min pos     1,
 dipolmoment          -0.000004     -0.000001     -0.005416 electrons x Angstroem
 Tr[quadrupol]     -6310.685407

 energy correction for charged system         0.000000 eV
 dipol+quadrupol energy correction            0.000001 eV
 added-field ion interaction          0.000000 eV  (added to PSCEN)


 Free energy of the ion-electron system (eV)
  ---------------------------------------------------
  alpha Z        PSCENC =        98.68342994
  Ewald energy   TEWEN  =     38770.18525903
  -Hartree energ DENC   =    -47111.32066086
  -exchange      EXHF   =       549.97822794
  -V(xc)+E(xc)   XCENC  =       604.35434656
  PAW double counting   =     26631.67938795   -26658.90920427
  entropy T*S    EENTRO =        -0.00913567
  eigenvalues    EBANDS =     -3181.36807247
  atomic energy  EATOM  =      9695.17892908
  ---------------------------------------------------
  free energy    TOTEN  =      -601.54797982 eV

  energy without entropy =     -601.53884415  energy(sigma->0) =     -601.54341198
  exchange ACFDT corr.  =        -0.00528940  see jH, gK, PRB 81, 115126


--------------------------------------------------------------------------------------------------------




--------------------------------------- Iteration      1(   9)  ---------------------------------------


    POTLOK:  cpu time    1.3205: real time    1.3206
    SETDIJ:  cpu time    2.0823: real time    2.0823
    TRIAL :  cpu time  510.3294: real time  510.3923
    CORREC:  cpu time    0.0022: real time    0.0024
    CHARGE:  cpu time    1.6302: real time    1.6303
    --------------------------------------------
      LOOP:  cpu time  515.3667: real time  515.4300

 eigenvalue-minimisations  :     0
 total energy-change (2. order) :-0.4218456E-01  (-0.3496394E-01)
 number of electron     241.0000001 magnetization       2.9978382
 augmentation part       13.3438681 magnetization       1.6613718

 DIPCOR: dipole corrections for dipol
 direction  3 min pos     1,
 dipolmoment          -0.000004     -0.000002     -0.005497 electrons x Angstroem
 Tr[quadrupol]     -6310.704050

 energy correction for charged system         0.000000 eV
 dipol+quadrupol energy correction            0.000001 eV
 added-field ion interaction          0.000000 eV  (added to PSCEN)


 Free energy of the ion-electron system (eV)
  ---------------------------------------------------
  alpha Z        PSCENC =        98.68342997
  Ewald energy   TEWEN  =     38770.18525903
  -Hartree energ DENC   =    -47112.86579908
  -exchange      EXHF   =       550.13637923
  -V(xc)+E(xc)   XCENC  =       604.44620349
  PAW double counting   =     26645.93744531   -26673.26173735
  entropy T*S    EENTRO =        -0.00874438
  eigenvalues    EBANDS =     -3180.02113838
  atomic energy  EATOM  =      9695.17892908
  ---------------------------------------------------
  free energy    TOTEN  =      -601.59016438 eV

  energy without entropy =     -601.58142000  energy(sigma->0) =     -601.58579219
  exchange ACFDT corr.  =        -0.00498040  see jH, gK, PRB 81, 115126


--------------------------------------------------------------------------------------------------------




--------------------------------------- Iteration      1(  10)  ---------------------------------------


    POTLOK:  cpu time    1.3164: real time    1.3167
    SETDIJ:  cpu time    2.0829: real time    2.0830
    TRIAL :  cpu time  510.3132: real time  510.3729
    CORREC:  cpu time    0.0021: real time    0.0023
    CHARGE:  cpu time    1.6330: real time    1.6332
    --------------------------------------------
      LOOP:  cpu time  515.3501: real time  515.4106

 eigenvalue-minimisations  :     0
 total energy-change (2. order) :-0.3150047E-01  (-0.2623634E-01)
 number of electron     241.0000001 magnetization       2.9982589
 augmentation part       13.3476550 magnetization       1.6626791

 DIPCOR: dipole corrections for dipol
 direction  3 min pos     1,
 dipolmoment          -0.000004     -0.000002     -0.005551 electrons x Angstroem
 Tr[quadrupol]     -6310.712979

 energy correction for charged system         0.000000 eV
 dipol+quadrupol energy correction            0.000001 eV
 added-field ion interaction          0.000000 eV  (added to PSCEN)


 Free energy of the ion-electron system (eV)
  ---------------------------------------------------
  alpha Z        PSCENC =        98.68342999
  Ewald energy   TEWEN  =     38770.18525903
  -Hartree energ DENC   =    -47113.66551580
  -exchange      EXHF   =       550.25066607
  -V(xc)+E(xc)   XCENC  =       604.51136903
  PAW double counting   =     26654.60263839   -26682.02296443
  entropy T*S    EENTRO =        -0.00843228
  eigenvalues    EBANDS =     -3179.33673183
  atomic energy  EATOM  =      9695.17892908
  ---------------------------------------------------
  free energy    TOTEN  =      -601.62166485 eV

  energy without entropy =     -601.61323257  energy(sigma->0) =     -601.61744871
  exchange ACFDT corr.  =        -0.00473353  see jH, gK, PRB 81, 115126


--------------------------------------------------------------------------------------------------------




--------------------------------------- Iteration      1(  11)  ---------------------------------------


    POTLOK:  cpu time    1.3158: real time    1.3158
    SETDIJ:  cpu time    2.0835: real time    2.0836
    TRIAL :  cpu time  510.4993: real time  510.5453
    CORREC:  cpu time    0.0022: real time    0.0022
    CHARGE:  cpu time    1.6283: real time    1.6284
    --------------------------------------------
      LOOP:  cpu time  515.5314: real time  515.5777

 eigenvalue-minimisations  :     0
 total energy-change (2. order) :-0.2390840E-01  (-0.2009354E-01)
 number of electron     241.0000001 magnetization       2.9985374
 augmentation part       13.3493413 magnetization       1.6630331

 DIPCOR: dipole corrections for dipol
 direction  3 min pos     1,
 dipolmoment          -0.000004     -0.000002     -0.005539 electrons x Angstroem
 Tr[quadrupol]     -6310.716806

 energy correction for charged system         0.000000 eV
 dipol+quadrupol energy correction            0.000001 eV
 added-field ion interaction          0.000000 eV  (added to PSCEN)


 Free energy of the ion-electron system (eV)
  ---------------------------------------------------
  alpha Z        PSCENC =        98.68342998
  Ewald energy   TEWEN  =     38770.18525903
  -Hartree energ DENC   =    -47113.96904156
  -exchange      EXHF   =       550.33583680
  -V(xc)+E(xc)   XCENC  =       604.55781457
  PAW double counting   =     26659.69079895   -26687.16611015
  entropy T*S    EENTRO =        -0.00817601
  eigenvalues    EBANDS =     -3179.13405768
  atomic energy  EATOM  =      9695.17892908
  ---------------------------------------------------
  free energy    TOTEN  =      -601.64557325 eV

  energy without entropy =     -601.63739724  energy(sigma->0) =     -601.64148525
  exchange ACFDT corr.  =        -0.00453678  see jH, gK, PRB 81, 115126


--------------------------------------------------------------------------------------------------------




--------------------------------------- Iteration      1(  12)  ---------------------------------------


    POTLOK:  cpu time    1.3175: real time    1.3177
    SETDIJ:  cpu time    2.0814: real time    2.0815
    TRIAL :  cpu time  509.9579: real time  510.0127
    CORREC:  cpu time    0.0022: real time    0.0024
    CHARGE:  cpu time    1.6435: real time    1.6436
    --------------------------------------------
      LOOP:  cpu time  515.0054: real time  515.0607

 eigenvalue-minimisations  :     0
 total energy-change (2. order) :-0.1845789E-01  (-0.1559754E-01)
 number of electron     241.0000001 magnetization       2.9987332
 augmentation part       13.3508473 magnetization       1.6628502

 DIPCOR: dipole corrections for dipol
 direction  3 min pos     1,
 dipolmoment          -0.000004     -0.000002     -0.005493 electrons x Angstroem
 Tr[quadrupol]     -6310.719048

 energy correction for charged system         0.000000 eV
 dipol+quadrupol energy correction            0.000001 eV
 added-field ion interaction          0.000000 eV  (added to PSCEN)


 Free energy of the ion-electron system (eV)
  ---------------------------------------------------
  alpha Z        PSCENC =        98.68342997
  Ewald energy   TEWEN  =     38770.18525903
  -Hartree energ DENC   =    -47114.08606990
  -exchange      EXHF   =       550.40358799
  -V(xc)+E(xc)   XCENC  =       604.59396529
  PAW double counting   =     26662.81747145   -26690.31741679
  entropy T*S    EENTRO =        -0.00795708
  eigenvalues    EBANDS =     -3179.11501125
  atomic energy  EATOM  =      9695.17892908
  ---------------------------------------------------
  free energy    TOTEN  =      -601.66403115 eV

  energy without entropy =     -601.65607407  energy(sigma->0) =     -601.66005261
  exchange ACFDT corr.  =        -0.00437530  see jH, gK, PRB 81, 115126


--------------------------------------------------------------------------------------------------------




--------------------------------------- Iteration      1(  13)  ---------------------------------------


    POTLOK:  cpu time    1.3141: real time    1.3142
    SETDIJ:  cpu time    2.0784: real time    2.0785
    TRIAL :  cpu time  509.5842: real time  509.9005
    CORREC:  cpu time    0.0022: real time    0.0024
    CHARGE:  cpu time    1.6321: real time    1.6324
    --------------------------------------------
      LOOP:  cpu time  514.6137: real time  514.9305

 eigenvalue-minimisations  :     0
 total energy-change (2. order) :-0.1443485E-01  (-0.1227929E-01)
 number of electron     241.0000001 magnetization       2.9988763
 augmentation part       13.3528632 magnetization       1.6625648

 DIPCOR: dipole corrections for dipol
 direction  3 min pos     1,
 dipolmoment          -0.000004     -0.000002     -0.005455 electrons x Angstroem
 Tr[quadrupol]     -6310.721668

 energy correction for charged system         0.000000 eV
 dipol+quadrupol energy correction            0.000001 eV
 added-field ion interaction          0.000000 eV  (added to PSCEN)


 Free energy of the ion-electron system (eV)
  ---------------------------------------------------
  alpha Z        PSCENC =        98.68342996
  Ewald energy   TEWEN  =     38770.18525903
  -Hartree energ DENC   =    -47114.23787434
  -exchange      EXHF   =       550.46143073
  -V(xc)+E(xc)   XCENC  =       604.62576286
  PAW double counting   =     26665.30763560   -26692.83007815
  entropy T*S    EENTRO =        -0.00776619
  eigenvalues    EBANDS =     -3179.04500369
  atomic energy  EATOM  =      9695.17892908
  ---------------------------------------------------
  free energy    TOTEN  =      -601.67846600 eV

  energy without entropy =     -601.67069981  energy(sigma->0) =     -601.67458291
  exchange ACFDT corr.  =        -0.00423770  see jH, gK, PRB 81, 115126


--------------------------------------------------------------------------------------------------------




--------------------------------------- Iteration      1(  14)  ---------------------------------------


    POTLOK:  cpu time    1.3143: real time    1.3145
    SETDIJ:  cpu time    2.0785: real time    2.0788
    TRIAL :  cpu time  511.4116: real time  511.5154
    CORREC:  cpu time    0.0022: real time    0.0024
    CHARGE:  cpu time    1.6310: real time    1.6311
    --------------------------------------------
      LOOP:  cpu time  516.4400: real time  516.5447

 eigenvalue-minimisations  :     0
 total energy-change (2. order) :-0.1144026E-01  (-0.9791158E-02)
 number of electron     241.0000001 magnetization       2.9989819
 augmentation part       13.3549321 magnetization       1.6623223

 DIPCOR: dipole corrections for dipol
 direction  3 min pos     1,
 dipolmoment          -0.000004     -0.000002     -0.005437 electrons x Angstroem
 Tr[quadrupol]     -6310.725044

 energy correction for charged system         0.000000 eV
 dipol+quadrupol energy correction            0.000001 eV
 added-field ion interaction          0.000000 eV  (added to PSCEN)


 Free energy of the ion-electron system (eV)
  ---------------------------------------------------
  alpha Z        PSCENC =        98.68342995
  Ewald energy   TEWEN  =     38770.18525903
  -Hartree energ DENC   =    -47114.47200627
  -exchange      EXHF   =       550.51250326
  -V(xc)+E(xc)   XCENC  =       604.65518330
  PAW double counting   =     26667.91920480   -26695.47216180
  entropy T*S    EENTRO =        -0.00759932
  eigenvalues    EBANDS =     -3178.87248143
  atomic energy  EATOM  =      9695.17892908
  ---------------------------------------------------
  free energy    TOTEN  =      -601.68990626 eV

  energy without entropy =     -601.68230694  energy(sigma->0) =     -601.68610660
  exchange ACFDT corr.  =        -0.00411814  see jH, gK, PRB 81, 115126


--------------------------------------------------------------------------------------------------------




--------------------------------------- Iteration      1(  15)  ---------------------------------------


    POTLOK:  cpu time    1.3107: real time    1.3110
    SETDIJ:  cpu time    2.0822: real time    2.0824
    TRIAL :  cpu time  510.0263: real time  510.1177
    CORREC:  cpu time    0.0021: real time    0.0023
    CHARGE:  cpu time    1.6305: real time    1.6309
    --------------------------------------------
      LOOP:  cpu time  515.0543: real time  515.1468

 eigenvalue-minimisations  :     0
 total energy-change (2. order) :-0.9171484E-02  (-0.7905201E-02)
 number of electron     241.0000001 magnetization       2.9990603
 augmentation part       13.3565386 magnetization       1.6620504

 DIPCOR: dipole corrections for dipol
 direction  3 min pos     1,
 dipolmoment          -0.000004     -0.000001     -0.005425 electrons x Angstroem
 Tr[quadrupol]     -6310.728624

 energy correction for charged system         0.000000 eV
 dipol+quadrupol energy correction            0.000001 eV
 added-field ion interaction          0.000000 eV  (added to PSCEN)


 Free energy of the ion-electron system (eV)
  ---------------------------------------------------
  alpha Z        PSCENC =        98.68342995
  Ewald energy   TEWEN  =     38770.18525903
  -Hartree energ DENC   =    -47114.72673951
  -exchange      EXHF   =       550.55747113
  -V(xc)+E(xc)   XCENC  =       604.68177429
  PAW double counting   =     26670.81796265   -26698.40211908
  entropy T*S    EENTRO =        -0.00745298
  eigenvalues    EBANDS =     -3178.66744597
  atomic energy  EATOM  =      9695.17892908
  ---------------------------------------------------
  free energy    TOTEN  =      -601.69907775 eV

  energy without entropy =     -601.69162476  energy(sigma->0) =     -601.69535126
  exchange ACFDT corr.  =        -0.00401394  see jH, gK, PRB 81, 115126


--------------------------------------------------------------------------------------------------------




--------------------------------------- Iteration      1(  16)  ---------------------------------------


    POTLOK:  cpu time    1.3103: real time    1.3104
    SETDIJ:  cpu time    2.0800: real time    2.0802
    TRIAL :  cpu time  510.5621: real time  510.6411
    CORREC:  cpu time    0.0021: real time    0.0023
    CHARGE:  cpu time    1.6316: real time    1.6317
    --------------------------------------------
      LOOP:  cpu time  515.5886: real time  515.6682

 eigenvalue-minimisations  :     0
 total energy-change (2. order) :-0.7440392E-02  (-0.6461540E-02)
 number of electron     241.0000001 magnetization       2.9991198
 augmentation part       13.3576545 magnetization       1.6616778

 DIPCOR: dipole corrections for dipol
 direction  3 min pos     1,
 dipolmoment          -0.000004     -0.000001     -0.005407 electrons x Angstroem
 Tr[quadrupol]     -6310.731812

 energy correction for charged system         0.000000 eV
 dipol+quadrupol energy correction            0.000001 eV
 added-field ion interaction          0.000000 eV  (added to PSCEN)


 Free energy of the ion-electron system (eV)
  ---------------------------------------------------
  alpha Z        PSCENC =        98.68342994
  Ewald energy   TEWEN  =     38770.18525903
  -Hartree energ DENC   =    -47114.94292717
  -exchange      EXHF   =       550.59661249
  -V(xc)+E(xc)   XCENC  =       604.70496234
  PAW double counting   =     26673.81846541   -26701.42669192
  entropy T*S    EENTRO =        -0.00732307
  eigenvalues    EBANDS =     -3178.49710435
  atomic energy  EATOM  =      9695.17892908
  ---------------------------------------------------
  free energy    TOTEN  =      -601.70651814 eV

  energy without entropy =     -601.69919507  energy(sigma->0) =     -601.70285660
  exchange ACFDT corr.  =        -0.00392274  see jH, gK, PRB 81, 115126


--------------------------------------------------------------------------------------------------------




--------------------------------------- Iteration      1(  17)  ---------------------------------------


    POTLOK:  cpu time    1.3094: real time    1.3095
    SETDIJ:  cpu time    2.0837: real time    2.0838
    TRIAL :  cpu time  509.4589: real time  509.5117
    CORREC:  cpu time    0.0021: real time    0.0023
    CHARGE:  cpu time    1.6309: real time    1.6310
    --------------------------------------------
      LOOP:  cpu time  514.4876: real time  514.5409

 eigenvalue-minimisations  :     0
 total energy-change (2. order) :-0.6106059E-02  (-0.5337917E-02)
 number of electron     241.0000001 magnetization       2.9991660
 augmentation part       13.3585627 magnetization       1.6612432

 DIPCOR: dipole corrections for dipol
 direction  3 min pos     1,
 dipolmoment          -0.000004     -0.000001     -0.005384 electrons x Angstroem
 Tr[quadrupol]     -6310.734330

 energy correction for charged system         0.000000 eV
 dipol+quadrupol energy correction            0.000001 eV
 added-field ion interaction          0.000000 eV  (added to PSCEN)


 Free energy of the ion-electron system (eV)
  ---------------------------------------------------
  alpha Z        PSCENC =        98.68342993
  Ewald energy   TEWEN  =     38770.18525903
  -Hartree energ DENC   =    -47115.10694550
  -exchange      EXHF   =       550.63057754
  -V(xc)+E(xc)   XCENC  =       604.72494572
  PAW double counting   =     26676.65215719   -26704.27734091
  entropy T*S    EENTRO =        -0.00720615
  eigenvalues    EBANDS =     -3178.37631320
  atomic energy  EATOM  =      9695.17892908
  ---------------------------------------------------
  free energy    TOTEN  =      -601.71262420 eV

  energy without entropy =     -601.70541805  energy(sigma->0) =     -601.70902112
  exchange ACFDT corr.  =        -0.00384190  see jH, gK, PRB 81, 115126


--------------------------------------------------------------------------------------------------------




--------------------------------------- Iteration      1(  18)  ---------------------------------------


    POTLOK:  cpu time    1.3154: real time    1.3155
    SETDIJ:  cpu time    2.0788: real time    2.0789
    TRIAL :  cpu time  509.9078: real time  509.9507
    CORREC:  cpu time    0.0022: real time    0.0024
    CHARGE:  cpu time    1.6267: real time    1.6267
    --------------------------------------------
      LOOP:  cpu time  514.9333: real time  514.9765

 eigenvalue-minimisations  :     0
 total energy-change (2. order) :-0.5062376E-02  (-0.4449788E-02)
 number of electron     241.0000001 magnetization       2.9992027
 augmentation part       13.3594327 magnetization       1.6608278

 DIPCOR: dipole corrections for dipol
 direction  3 min pos     1,
 dipolmoment          -0.000004     -0.000001     -0.005363 electrons x Angstroem
 Tr[quadrupol]     -6310.736276

 energy correction for charged system         0.000000 eV
 dipol+quadrupol energy correction            0.000001 eV
 added-field ion interaction          0.000000 eV  (added to PSCEN)


 Free energy of the ion-electron system (eV)
  ---------------------------------------------------
  alpha Z        PSCENC =        98.68342993
  Ewald energy   TEWEN  =     38770.18525903
  -Hartree energ DENC   =    -47115.23829018
  -exchange      EXHF   =       550.66031838
  -V(xc)+E(xc)   XCENC  =       604.74246129
  PAW double counting   =     26679.18951525   -26706.82924011
  entropy T*S    EENTRO =        -0.00710017
  eigenvalues    EBANDS =     -3178.28286309
  atomic energy  EATOM  =      9695.17892908
  ---------------------------------------------------
[...]
  E(xc)    -706.31448  -706.63884  -719.88135    -0.33077    -0.01480     0.00171
  Local  -96323.99519-96253.21396 98437.40893    37.25447   -51.58139  -141.79727
  n-local  -172.81040  -174.45658  -168.80690    -1.04086     0.02886     0.01839
  augment    45.18455    48.10779    51.12342     1.19948     0.03394    -0.04637
  Kinetic  3609.87545  3603.56589  4120.43858    10.45964     0.09536    -0.09529
  Fock     -323.67860  -325.62461  -304.59995    -1.19809     0.00160     0.05322
  -------------------------------------------------------------------------------------
  Total     -39.53626   -41.53080    -0.42570     1.25810     0.03299     0.02307
  in kB     -19.93909   -20.94499    -0.21469     0.63449     0.01664     0.01163
  external pressure =      -13.70 kB  Pullay stress =        0.00 kB


 VOLUME and BASIS-vectors are now :
 -----------------------------------------------------------------------------
  energy-cutoff  :      500.00
  volume of cell :     3176.88
      direct lattice vectors                 reciprocal lattice vectors
    12.879005291  0.107362187  0.009840324     0.077651304 -0.000661103 -0.000059036
     0.104636787 12.290023487  0.003487816    -0.000678323  0.081372591 -0.000021949
     0.015307521  0.005541741 20.072288314    -0.000037950 -0.000013815  0.049819963

  length of vectors
    12.879456539 12.290469410 20.072294916     0.077654141  0.081375421  0.049819979


 FORCES acting on ions:
    Electron-Ion                     Ewald-Force                    Non-Local-Force
 -----------------------------------------------------------------------------------------------
   0.291E+00 0.804E+01 -.114E+01   -.622E+00 -.798E+01 0.114E+01   0.356E+00 0.960E-03 -.909E-02
   0.458E+01 0.566E+01 -.817E+00   -.460E+01 -.578E+01 0.817E+00   0.994E-01 0.966E-01 -.153E-02
   -.218E+01 0.123E+01 -.779E+00   0.204E+01 -.125E+01 0.776E+00   0.434E-01 -.164E-01 0.146E-02
   0.229E+00 0.129E+02 -.674E+00   -.401E+00 -.133E+02 0.668E+00   0.949E-01 0.349E+00 0.817E-03
   0.117E+02 0.140E+02 -.474E+00   -.121E+02 -.141E+02 0.476E+00   0.411E+00 0.184E+00 -.639E-02
   0.798E+01 0.135E+01 -.570E+00   -.814E+01 -.172E+01 0.566E+00   0.200E+00 0.331E+00 0.142E-02
   0.362E+01 0.657E+01 -.950E+00   -.401E+01 -.663E+01 0.951E+00   0.330E+00 0.310E-01 -.511E-02
   0.323E+02 0.129E+02 0.124E+01   -.355E+02 -.133E+02 -.122E+01   0.327E+01 0.179E+00 -.168E-01
   0.244E+02 0.120E+02 0.109E+01   -.261E+02 -.146E+02 -.108E+01   0.184E+01 0.265E+01 -.109E-01
   0.325E+01 -.920E+01 0.546E-01   -.336E+01 0.931E+01 -.624E-01   0.886E-01 -.217E+00 0.688E-02
   0.132E+02 0.425E+01 -.884E-01   -.137E+02 -.461E+01 0.935E-01   0.402E+00 0.319E+00 -.708E-02
   -.764E+01 -.411E+02 0.848E+00   0.639E+01 0.440E+02 -.834E+00   0.118E+01 -.309E+01 -.141E-01
   -.246E+01 -.186E+01 0.222E+00   0.252E+01 0.219E+01 -.222E+00   -.251E-01 -.212E+00 -.174E-02
   -.149E+01 -.949E+01 0.135E+00   0.155E+01 0.992E+01 -.134E+00   0.658E-01 -.287E+00 -.459E-02
   0.106E+02 0.126E+02 0.551E+00   -.131E+02 -.123E+02 -.550E+00   0.250E+01 -.916E-01 0.975E-03
   0.202E+00 0.479E+01 -.429E+00   -.472E+00 -.518E+01 0.432E+00   0.315E+00 0.324E+00 -.574E-02
   0.223E+00 0.373E+01 -.123E+00   -.153E+00 -.364E+01 0.125E+00   -.451E-01 -.440E-01 -.284E-02
   -.639E+01 -.337E+01 -.197E+00   0.611E+01 0.339E+01 0.193E+00   0.181E+00 -.709E-01 -.556E-03
   -.133E+01 0.126E+01 -.729E+00   0.120E+01 -.111E+01 0.723E+00   0.105E+00 -.139E+00 0.333E-02
   -.244E+01 0.968E+00 0.337E+00   0.246E+01 -.595E+00 -.345E+00   0.881E-01 -.320E+00 0.627E-02
   -.807E+01 0.125E+02 -.941E-02   0.821E+01 -.130E+02 0.107E-01   -.743E-01 0.347E+00 -.371E-02
   0.652E+00 0.900E+01 -.338E+00   -.296E+00 -.887E+01 0.341E+00   -.414E+00 -.110E-01 -.752E-02
   -.177E+01 0.496E+01 0.594E+00   0.162E+01 -.494E+01 -.592E+00   0.423E-01 -.113E+00 -.350E-02
   -.828E+01 0.103E+02 0.170E+01   0.879E+01 -.101E+02 -.171E+01   -.347E+00 -.278E+00 0.153E-01
   -.251E+02 0.352E+02 0.157E+01   0.272E+02 -.377E+02 -.154E+01   -.238E+01 0.285E+01 -.224E-01
   -.284E+02 0.372E+02 0.806E+00   0.299E+02 -.397E+02 -.782E+00   -.161E+01 0.270E+01 -.167E-01
   0.361E+02 -.138E+02 -.408E+00   -.381E+02 0.168E+02 0.381E+00   0.232E+01 -.309E+01 0.279E-01
   -.830E+01 0.151E+01 -.461E+00   0.864E+01 -.129E+01 0.459E+00   -.299E+00 -.209E+00 -.711E-04
   -.220E+02 -.345E+01 -.798E-01   0.223E+02 0.554E+01 0.849E-01   -.795E+00 -.224E+01 -.627E-02
   0.788E+01 -.178E+01 0.218E+00   -.816E+01 0.254E+01 -.214E+00   0.177E+00 -.703E+00 -.272E-02
   0.391E+01 0.789E+00 0.385E+00   -.387E+01 -.772E+00 -.381E+00   -.212E-02 -.597E-02 -.972E-03
   0.876E+00 -.176E+00 0.172E+00   -.815E+00 0.258E+00 -.170E+00   0.367E-01 -.108E+00 -.257E-02
   0.879E+00 -.288E+01 0.573E+00   -.702E+00 0.335E+01 -.573E+00   -.161E+00 -.436E+00 0.110E-02
   0.131E+01 0.838E-01 -.354E+00   -.145E+01 -.153E+00 0.353E+00   0.744E-01 0.635E-01 0.168E-02
   0.503E+01 0.410E+01 -.670E+00   -.513E+01 -.430E+01 0.674E+00   0.129E+00 0.137E+00 -.465E-02
   -.238E+01 0.441E+01 -.121E+01   0.199E+01 -.456E+01 0.122E+01   0.421E+00 0.899E-01 -.104E-01
   0.139E+01 0.342E+01 -.516E+00   -.160E+01 -.327E+01 0.511E+00   0.161E+00 -.175E+00 0.256E-02
   0.238E+01 0.476E+01 -.539E+00   -.242E+01 -.503E+01 0.535E+00   0.282E-02 0.327E+00 0.431E-02
   -.179E+01 0.613E+01 -.594E+00   0.209E+01 -.649E+01 0.588E+00   -.134E+00 0.269E+00 0.832E-02
   -.457E+01 0.345E+02 -.171E+01   0.574E+01 -.379E+02 0.167E+01   -.135E+01 0.353E+01 0.379E-01
   -.413E+01 0.360E+01 -.415E+00   0.428E+01 -.377E+01 0.429E+00   -.158E+00 0.847E-01 -.114E-01
   -.999E+01 -.681E+01 0.893E-01   0.105E+02 0.724E+01 -.955E-01   -.527E+00 -.284E+00 0.112E-01
   -.176E+02 -.667E+01 -.107E+01   0.212E+02 0.703E+01 0.105E+01   -.362E+01 -.329E+00 0.165E-01
   -.130E+02 -.249E+02 -.180E+01   0.152E+02 0.273E+02 0.178E+01   -.200E+01 -.259E+01 0.160E-01
   -.727E+01 -.401E+01 0.863E+00   0.751E+01 0.431E+01 -.864E+00   -.244E+00 -.285E+00 0.651E-02
   0.112E+00 -.395E+01 0.122E+01   0.447E+00 0.403E+01 -.122E+01   -.482E+00 -.919E-01 0.449E-02
   0.367E+01 -.886E+01 0.735E+00   -.351E+01 0.934E+01 -.732E+00   -.100E+00 -.502E+00 0.206E-02
   -.692E+01 -.892E+01 0.881E+00   0.760E+01 0.939E+01 -.886E+00   -.668E+00 -.410E+00 0.129E-01
   -.333E+01 -.405E+01 0.770E+00   0.336E+01 0.422E+01 -.771E+00   -.576E-01 -.152E+00 0.530E-02
   -.396E+02 -.475E+02 0.316E+01   0.587E+02 0.473E+02 -.329E+01   -.186E+02 0.427E+00 0.127E+00
   -.307E+02 -.702E+01 0.480E+01   0.402E+02 0.236E+02 -.503E+01   -.922E+01 -.163E+02 0.230E+00
   -.164E+02 -.130E+02 0.315E+01   0.875E+01 0.228E+02 -.332E+01   0.734E+01 -.984E+01 0.150E+00
   -.625E+02 0.969E+02 0.124E+01   0.768E+02 -.122E+03 -.131E+01   -.134E+02 0.235E+02 0.721E-01
   0.630E+02 0.457E+02 -.326E+01   -.729E+02 -.630E+02 0.340E+01   0.930E+01 0.170E+02 -.144E+00
   0.492E+02 0.101E+02 -.640E+01   -.695E+02 -.103E+02 0.667E+01   0.198E+02 -.486E-01 -.269E+00
   -.269E+01 -.137E+03 0.104E+02   0.839E+00 0.132E+03 -.104E+02   0.113E+01 0.486E+01 -.104E+00
   0.666E+02 -.891E+02 -.113E+02   -.634E+02 0.872E+02 0.112E+02   -.286E+01 0.328E+01 0.139E+00
 -----------------------------------------------------------------------------------------------
   0.714E+01 -.225E+02 -.231E+00   0.853E-13 -.711E-13 -.178E-14   -.693E+01 0.212E+02 0.217E+00
 
 
 POSITION                                       TOTAL-FORCE (eV/Angst)
 -----------------------------------------------------------------------------------
      2.96081     12.30360     10.04425         0.046416      0.060307     -0.005325
      0.69248      1.24723     10.03949         0.089750     -0.016273     -0.001575
      1.42288      0.01980     10.03940        -0.101238     -0.037124     -0.001811
      3.56035      1.24888     10.03901        -0.073451     -0.004365     -0.005266
      2.83345      2.47308     10.03728        -0.023165      0.079802     -0.005383
      0.70233      3.70502     10.03896         0.053113     -0.028398     -0.002535
      1.40507      2.47535     10.03962        -0.041575     -0.025573     -0.004569
      3.54679      3.68971     10.03070         0.245891     -0.179616     -0.000374
      2.84994      4.93162     10.03131         0.301284      0.235391     -0.001456
      0.76814      6.17172     10.03739        -0.014008     -0.136312     -0.000508
      1.44195      4.92631     10.03643        -0.117743     -0.016436     -0.002413
      2.97829      7.33737     10.03361        -0.019702     -0.376035     -0.000897
      0.82999      8.62249     10.03756         0.038314      0.110810     -0.001886
      1.54251      7.38450     10.03656         0.123623      0.127226     -0.003798
      3.74713      8.59126     10.03743         0.142495      0.187685      0.001840
      2.98730      9.82477     10.04098         0.065415     -0.037523     -0.003808
      0.82251     11.08015     10.03993         0.026928      0.050818     -0.000951
      1.55106      9.84500     10.03970        -0.096408     -0.057522     -0.004388
      3.68889     11.06994     10.04347        -0.015589     -0.003723     -0.003146
      7.13821      0.08857     10.03953         0.108048      0.032682     -0.001337
      4.98601      1.28811     10.03714         0.058353     -0.193509     -0.002658
      5.71328      0.05330     10.03973        -0.073312      0.118472     -0.004757
      7.83155      1.35160     10.03875        -0.106419     -0.100830     -0.001707
      7.10681      2.59085     10.03448         0.148518     -0.052741      0.004860
      5.66388      2.56827     10.03137        -0.376397      0.528846      0.000223
      7.82892      3.84779     10.03901        -0.226110      0.368706      0.006031
      7.28072      9.86162     10.04805         0.511384     -0.286364      0.003326
      5.11979     11.07916     10.04377         0.017877     -0.001132     -0.001814
      5.80554      9.80278     10.04335        -0.555130     -0.274563     -0.001574
      7.95738     11.14001     10.04513        -0.093744      0.024277      0.000819
     11.42841      0.13445     10.04381         0.044481      0.014248      0.002615
      9.26878      1.37861     10.04243         0.100610     -0.033654     -0.001574
      9.99242      0.14184     10.04196         0.006778      0.009995      0.000795
     12.13942      1.36564     10.04732        -0.059604     -0.005354      0.000460
     11.42107      2.60198     10.04852         0.038072     -0.059242     -0.000774
      9.28013      3.87661     10.04857         0.051797     -0.069484     -0.003292
      9.98557      2.62501     10.04667        -0.034699     -0.037374     -0.001689
     12.15238      3.82576     10.04958        -0.045110      0.075509      0.000820
     11.46650      5.07144     10.05114         0.167894     -0.075958      0.002935
     10.03213      5.11646     10.05473        -0.252232      0.369928      0.002607
     12.22962      6.28599     10.04996        -0.016345     -0.076231      0.001680
     11.54312      7.52827     10.04983        -0.097038      0.130751      0.005799
      9.40490      8.75453     10.05294        -0.258907      0.019530      0.002348
     10.13337      7.51961     10.05617         0.047851     -0.368936      0.000377
     12.27822      8.74508     10.04634        -0.020238      0.003303      0.006598
     11.55918      9.97009     10.04503         0.058004     -0.012657      0.007846
      9.39298     11.18860     10.04486         0.057619     -0.051656      0.005361
     10.12842      9.97194     10.04617        -0.028870      0.030233      0.008315
     12.26732     11.19912     10.04645        -0.042174      0.007872      0.004607
      3.60666      6.10110     10.02781        -1.142982      0.284345      0.012838
      4.93058      3.73708     10.02468        -0.469951     -1.088392      0.025419
      7.14113      4.99608     10.03533         0.304095     -0.946042     -0.003614
      5.12716      8.60250     10.03856        -0.150761      0.924018      0.010883
      8.02251      8.70595     10.05562         0.236954      1.121885     -0.019500
      9.40803      6.34734     10.06338         1.310499     -0.219510     -0.024100
      5.42794      5.59263     10.02214        -0.196216     -0.749020     -0.004363
      7.47652      6.77321     10.06361         0.347054      0.704910      0.003439
 -----------------------------------------------------------------------------------
    total drift:                               -0.000699     -0.004868     -0.000378


--------------------------------------------------------------------------------------------------------



  FREE ENERGIE OF THE ION-ELECTRON SYSTEM (eV)
  ---------------------------------------------------
  free  energy   TOTEN  =      -601.75392755 eV

  energy  without entropy=     -601.74802975  energy(sigma->0) =     -601.75097865
 


--------------------------------------------------------------------------------------------------------


    POTLOK:  cpu time    3.3785: real time    3.3788


--------------------------------------------------------------------------------------------------------


 stress matrix after NEB project (eV)
    -39.53626      1.25819      0.02307
      1.25810    -41.53080      0.03314
      0.02287      0.03299     -0.42570
  FORCES: max atom, RMS     1.328975    0.449710
  FORCE total and by dimension    3.395237    1.310499
  Stress total and by dimension   57.369625   41.530802
 writing wavefunctions
     LOOP+:  cpu time34669.0616: real time34674.8679
    4ORBIT:  cpu time    0.0000: real time    0.0000
 


 total charge     
 
# of ion       s       p       d       tot
------------------------------------------
    1        0.863   1.775   0.000   2.638
    2        0.867   1.771   0.000   2.638
    3        0.866   1.776   0.000   2.642
    4        0.870   1.772   0.000   2.642
    5        0.870   1.788   0.000   2.658
    6        0.866   1.783   0.000   2.649
    7        0.869   1.784   0.000   2.653
    8        0.864   1.768   0.000   2.632
    9        0.863   1.758   0.000   2.621
   10        0.868   1.778   0.000   2.646
   11        0.873   1.792   0.000   2.664
   12        0.851   1.703   0.000   2.554
   13        0.866   1.773   0.000   2.639
   14        0.862   1.763   0.000   2.625
   15        0.848   1.705   0.000   2.552
   16        0.863   1.752   0.000   2.615
   17        0.866   1.767   0.000   2.633
   18        0.863   1.770   0.000   2.634
   19        0.868   1.753   0.000   2.621
   20        0.860   1.770   0.000   2.631
   21        0.862   1.760   0.000   2.622
   22        0.861   1.757   0.000   2.619
   23        0.861   1.741   0.000   2.602
   24        0.856   1.764   0.000   2.620
   25        0.855   1.706   0.000   2.561
   26        0.862   1.714   0.000   2.576
   27        0.853   1.702   0.000   2.555
   28        0.860   1.750   0.000   2.610
   29        0.849   1.699   0.000   2.548
   30        0.861   1.755   0.000   2.616
   31        0.865   1.772   0.000   2.636
   32        0.861   1.756   0.000   2.617
   33        0.863   1.762   0.000   2.625
   34        0.866   1.769   0.000   2.635
   35        0.865   1.766   0.000   2.630
   36        0.854   1.758   0.000   2.612
   37        0.862   1.745   0.000   2.607
   38        0.867   1.773   0.000   2.640
   39        0.865   1.770   0.000   2.636
   40        0.855   1.710   0.000   2.565
   41        0.868   1.778   0.000   2.646
   42        0.872   1.798   0.000   2.669
   43        0.862   1.754   0.000   2.617
   44        0.864   1.760   0.000   2.624
   45        0.866   1.779   0.000   2.646
   46        0.867   1.783   0.000   2.650
   47        0.868   1.761   0.000   2.629
   48        0.869   1.783   0.000   2.652
   49        0.866   1.771   0.000   2.637
   50        1.227   2.681   0.000   3.908
   51        1.230   2.662   0.000   3.892
   52        1.247   2.647   0.000   3.895
   53        1.241   2.590   0.000   3.831
   54        1.231   2.677   0.000   3.908
   55        1.233   2.686   0.000   3.920
   56        0.447   0.579   6.359   7.384
   57        0.351   0.430   4.942   5.724
--------------------------------------------------
tot         50.499 103.154  11.301 164.953
 


 magnetization (x)
 
# of ion       s       p       d       tot
------------------------------------------
    1        0.000   0.001   0.000   0.001
    2       -0.000  -0.001   0.000  -0.001
    3        0.000   0.003   0.000   0.003
    4       -0.000  -0.002   0.000  -0.002
    5        0.000  -0.001   0.000  -0.001
    6       -0.000  -0.002   0.000  -0.002
    7        0.000   0.004   0.000   0.005
    8        0.000   0.006   0.000   0.006
    9       -0.000  -0.000   0.000  -0.001
   10        0.000   0.001   0.000   0.001
   11       -0.000  -0.001   0.000  -0.001
   12        0.000  -0.001   0.000  -0.000
   13       -0.000  -0.002   0.000  -0.002
   14        0.000   0.001   0.000   0.002
   15       -0.000   0.001   0.000   0.001
   16        0.000   0.001   0.000   0.001
   17       -0.000  -0.003   0.000  -0.003
   18        0.000   0.002   0.000   0.003
   19       -0.000  -0.002   0.000  -0.002
   20        0.001   0.007   0.000   0.008
   21        0.001   0.008   0.000   0.008
   22       -0.001  -0.011   0.000  -0.011
   23       -0.001  -0.004   0.000  -0.005
   24       -0.001  -0.004   0.000  -0.005
   25       -0.001  -0.009   0.000  -0.010
   26        0.001  -0.004   0.000  -0.003
   27        0.002   0.016   0.000   0.018
   28        0.001   0.004   0.000   0.005
   29       -0.001  -0.012   0.000  -0.013
   30       -0.000  -0.004   0.000  -0.004
   31       -0.000  -0.003   0.000  -0.003
   32        0.000   0.000   0.000   0.000
   33       -0.000  -0.003   0.000  -0.003
   34        0.000   0.000   0.000   0.000
   35       -0.000  -0.003   0.000  -0.003
   36        0.000  -0.000   0.000  -0.000
   37        0.000   0.001   0.000   0.002
   38        0.000  -0.001   0.000  -0.001
   39        0.000   0.002   0.000   0.003
   40        0.000  -0.000   0.000  -0.000
   41        0.000   0.004   0.000   0.004
   42        0.000  -0.001   0.000  -0.001
   43        0.001   0.004   0.000   0.005
   44        0.001   0.005   0.000   0.006
   45        0.000  -0.001   0.000  -0.001
   46       -0.000  -0.002   0.000  -0.002
   47        0.000  -0.001   0.000  -0.001
   48       -0.000  -0.002   0.000  -0.002
   49        0.000   0.002   0.000   0.002
   50        0.004   0.046   0.000   0.050
   51        0.007   0.046   0.000   0.053
   52       -0.005  -0.073   0.000  -0.078
   53        0.013   0.051   0.000   0.064
   54       -0.006  -0.047   0.000  -0.053
   55        0.006   0.006   0.000   0.013
   56        0.003   0.024  -1.566  -1.539
   57        0.089   0.068   3.942   4.099
--------------------------------------------------
tot          0.116   0.119   2.376   2.611
 

 total amount of memory used by VASP MPI-rank0   174955. kBytes
=======================================================================

   base      :      30000. kBytes
   nonl-proj :       5283. kBytes
   fftplans  :      13453. kBytes
   grid      :      34560. kBytes
   one-center:         62. kBytes
   HF        :         23. kBytes
   nonlr-proj:      15608. kBytes
   wavefun   :      75966. kBytes
 
  
  
 General timing and accounting informations for this job:
 ========================================================
  
                  Total CPU time used (sec):    34758.562
                            User time (sec):    34711.559
                          System time (sec):       47.001
                         Elapsed time (sec):    34767.211
  
                   Maximum memory used (kb):      415180.
                   Average memory used (kb):           0.
  
                          Minor page faults:       347128
                          Major page faults:            1
                 Voluntary context switches:         1317
