 vasp.5.4.4.18Apr17-6-g9f103f2a35 (build Feb 25 2019 10:51:38) complex          
  
 executed on             LinuxIFC date 2021.06.19  02:50:47
 running on   80 total cores
 distrk:  each k-point on   40 cores,    2 groups
 distr:  one band on NCORES_PER_BAND=  40 cores,    1 groups


--------------------------------------------------------------------------------------------------------


 INCAR:
 POTCAR:    PAW_PBE C 08Apr2002                   
 POTCAR:    PAW_PBE N 08Apr2002                   
 POTCAR:    PAW_PBE Fe 06Sep2000                  
 POTCAR:    PAW_PBE V 08Apr2002                   

 ----------------------------------------------------------------------------- 
|                                                                             |
|           W    W    AA    RRRRR   N    N  II  N    N   GGGG   !!!           |
|           W    W   A  A   R    R  NN   N  II  NN   N  G    G  !!!           |
|           W    W  A    A  R    R  N N  N  II  N N  N  G       !!!           |
|           W WW W  AAAAAA  RRRRR   N  N N  II  N  N N  G  GGG   !            |
|           WW  WW  A    A  R   R   N   NN  II  N   NN  G    G                |
|           W    W  A    A  R    R  N    N  II  N    N   GGGG   !!!           |
|                                                                             |
|      For optimal performance we recommend to set                            |
|        NCORE= 4 - approx SQRT( number of cores)                             |
|      NCORE specifies how many cores store one orbital (NPAR=cpu/NCORE).     |
|      This setting can  greatly improve the performance of VASP for DFT.     |
|      The default,   NCORE=1            might be grossly inefficient         |
|      on modern multi-core architectures or massively parallel machines.     |
|      Do your own testing !!!!                                               |
|      Unfortunately you need to use the default for GW and RPA calculations. |
|      (for HF NCORE is supported but not extensively tested yet)             |
|                                                                             |
 ----------------------------------------------------------------------------- 


 ----------------------------------------------------------------------------- 
|                                                                             |
|           W    W    AA    RRRRR   N    N  II  N    N   GGGG   !!!           |
|           W    W   A  A   R    R  NN   N  II  NN   N  G    G  !!!           |
|           W    W  A    A  R    R  N N  N  II  N N  N  G       !!!           |
|           W WW W  AAAAAA  RRRRR   N  N N  II  N  N N  G  GGG   !            |
|           WW  WW  A    A  R   R   N   NN  II  N   NN  G    G                |
|           W    W  A    A  R    R  N    N  II  N    N   GGGG   !!!           |
|                                                                             |
|      You have enabled k-point parallelism (KPAR>1).                         |
|      This developmental code was originally  written by Paul Kent at ORNL,  |
|      and carefully double checked in Vienna.                                |
|      GW as well as linear response parallelism added by Martijn Marsman     |
|      and Georg Kresse.                                                      |
|      Carefully verify results versus KPAR=1.                                |
|      Report problems to Paul Kent and Vienna.                               |
|                                                                             |
 ----------------------------------------------------------------------------- 

 POTCAR:    PAW_PBE C 08Apr2002                   
   VRHFIN =C: s2p2                                                              
   LEXCH  = PE                                                                  
   EATOM  =   147.1560 eV,   10.8157 Ry                                         
                                                                                
   TITEL  = PAW_PBE C 08Apr2002                                                 
   LULTRA =        F    use ultrasoft PP ?                                      
   IUNSCR =        1    unscreen: 0-lin 1-nonlin 2-no                           
   RPACOR =    1.200    partial core radius                                     
   POMASS =   12.011; ZVAL   =    4.000    mass and valenz                      
   RCORE  =    1.500    outmost cutoff radius                                   
   RWIGS  =    1.630; RWIGS  =    0.863    wigner-seitz radius (au A)           
   ENMAX  =  400.000; ENMIN  =  300.000 eV                                      
   ICORE  =        2    local potential                                         
   LCOR   =        T    correct aug charges                                     
   LPAW   =        T    paw PP                                                  
   EAUG   =  644.873                                                            
   DEXC   =    0.000                                                            
   RMAX   =    1.529    core radius for proj-oper                               
   RAUG   =    1.300    factor for augmentation sphere                          
   RDEP   =    1.501    radius for radial grids                                 
   RDEPT  =    1.300    core radius for aug-charge                              
                                                                                
   Atomic configuration                                                         
    4 entries                                                                   
     n  l   j            E        occ.                                          
     1  0  0.50      -273.3789   2.0000                                         
     2  0  0.50       -13.7508   2.0000                                         
     2  1  0.50        -5.2854   2.0000                                         
     3  2  1.50        -5.4423   0.0000                                         
   Description                                                                  
     l       E           TYP  RCUT    TYP  RCUT                                 
     0    -13.7508458     23  1.200                                             
     0     -8.2022199     23  1.200                                             
     1     -5.2854383     23  1.500                                             
     1     34.0145650     23  1.500                                             
     2     -5.4423304      7  1.500                                             
  local pseudopotential read in
  partial core-charges read in
  partial kinetic energy density read in
  atomic valenz-charges read in
  non local Contribution for L=           0  read in
    real space projection operators read in
  non local Contribution for L=           0  read in
    real space projection operators read in
  non local Contribution for L=           1  read in
    real space projection operators read in
  non local Contribution for L=           1  read in
    real space projection operators read in
    PAW grid and wavefunctions read in
 
   number of l-projection  operators is LMAX  =           4
   number of lm-projection operators is LMMAX =           8
 
 POTCAR:    PAW_PBE N 08Apr2002                   
   VRHFIN =N: s2p3                                                              
   LEXCH  = PE                                                                  
   EATOM  =   264.5486 eV,   19.4438 Ry                                         
                                                                                
   TITEL  = PAW_PBE N 08Apr2002                                                 
   LULTRA =        F    use ultrasoft PP ?                                      
   IUNSCR =        1    unscreen: 0-lin 1-nonlin 2-no                           
   RPACOR =    1.200    partial core radius                                     
   POMASS =   14.001; ZVAL   =    5.000    mass and valenz                      
   RCORE  =    1.500    outmost cutoff radius                                   
   RWIGS  =    1.400; RWIGS  =    0.741    wigner-seitz radius (au A)           
   ENMAX  =  400.000; ENMIN  =  300.000 eV                                      
   ICORE  =        2    local potential                                         
   LCOR   =        T    correct aug charges                                     
   LPAW   =        T    paw PP                                                  
   EAUG   =  627.112                                                            
   DEXC   =    0.000                                                            
   RMAX   =    1.529    core radius for proj-oper                               
   RAUG   =    1.300    factor for augmentation sphere                          
   RDEP   =    1.514    radius for radial grids                                 
   RDEPT  =    1.338    core radius for aug-charge                              
                                                                                
   Atomic configuration                                                         
    4 entries                                                                   
     n  l   j            E        occ.                                          
     1  0  0.50      -384.7179   2.0000                                         
     2  0  0.50       -18.5828   2.0000                                         
     2  1  0.50        -7.0898   3.0000                                         
     3  2  1.50        -6.8029   0.0000                                         
   Description                                                                  
     l       E           TYP  RCUT    TYP  RCUT                                 
     0    -18.5828119     23  1.200                                             
     0    -13.5018863     23  1.200                                             
     1     -7.0897853     23  1.500                                             
     1      9.5240782     23  1.500                                             
     2     -6.8029130      7  1.500                                             
  local pseudopotential read in
  partial core-charges read in
  partial kinetic energy density read in
  atomic valenz-charges read in
  non local Contribution for L=           0  read in
    real space projection operators read in
  non local Contribution for L=           0  read in
    real space projection operators read in
  non local Contribution for L=           1  read in
    real space projection operators read in
  non local Contribution for L=           1  read in
    real space projection operators read in
    PAW grid and wavefunctions read in
 
   number of l-projection  operators is LMAX  =           4
   number of lm-projection operators is LMMAX =           8
 
 POTCAR:    PAW_PBE Fe 06Sep2000                  
   VRHFIN =Fe:  d7 s1                                                           
   LEXCH  = PE                                                                  
   EATOM  =   594.3153 eV,   43.6809 Ry                                         
                                                                                
   TITEL  = PAW_PBE Fe 06Sep2000                                                
   LULTRA =        F    use ultrasoft PP ?                                      
   IUNSCR =        1    unscreen: 0-lin 1-nonlin 2-no                           
   RPACOR =    2.000    partial core radius                                     
   POMASS =   55.847; ZVAL   =    8.000    mass and valenz                      
   RCORE  =    2.300    outmost cutoff radius                                   
   RWIGS  =    2.460; RWIGS  =    1.302    wigner-seitz radius (au A)           
   ENMAX  =  267.882; ENMIN  =  200.911 eV                                      
   RCLOC  =    1.701    cutoff for local pot                                    
   LCOR   =        T    correct aug charges                                     
   LPAW   =        T    paw PP                                                  
   EAUG   =  511.368                                                            
   DEXC   =    0.000                                                            
   RMAX   =    2.356    core radius for proj-oper                               
   RAUG   =    1.300    factor for augmentation sphere                          
   RDEP   =    2.442    radius for radial grids                                 
   RDEPT  =    1.890    core radius for aug-charge                              
                                                                                
   Atomic configuration                                                         
    9 entries                                                                   
     n  l   j            E        occ.                                          
     1  0  0.50     -6993.8440   2.0000                                         
     2  0  0.50      -814.6047   2.0000                                         
     2  1  1.50      -693.3689   6.0000                                         
     3  0  0.50       -89.4732   2.0000                                         
     3  1  1.50       -55.6373   6.0000                                         
     3  2  2.50        -3.8151   7.0000                                         
     4  0  0.50        -4.2551   1.0000                                         
     4  1  1.50        -3.4015   0.0000                                         
     4  3  2.50        -1.3606   0.0000                                         
   Description                                                                  
     l       E           TYP  RCUT    TYP  RCUT                                 
     2     -3.8151135     23  2.300                                             
     2     -5.1756961     23  2.300                                             
     0     -4.2550963     23  2.300                                             
     0      7.2035603     23  2.300                                             
     1     -2.7211652     23  2.300                                             
     1     18.4316424     23  2.300                                             
  local pseudopotential read in
  partial core-charges read in
  partial kinetic energy density read in
  atomic valenz-charges read in
  non local Contribution for L=           2  read in
    real space projection operators read in
  non local Contribution for L=           2  read in
    real space projection operators read in
  non local Contribution for L=           0  read in
    real space projection operators read in
  non local Contribution for L=           0  read in
    real space projection operators read in
  non local Contribution for L=           1  read in
    real space projection operators read in
  non local Contribution for L=           1  read in
    real space projection operators read in
    PAW grid and wavefunctions read in
 
   number of l-projection  operators is LMAX  =           6
   number of lm-projection operators is LMMAX =          18
 
 POTCAR:    PAW_PBE V 08Apr2002                   
   VRHFIN =V: p6 d4 s1                                                          
   LEXCH  = PE                                                                  
   EATOM  =   170.8679 eV,   12.5584 Ry                                         
                                                                                
   TITEL  = PAW_PBE V 08Apr2002                                                 
   LULTRA =        F    use ultrasoft PP ?                                      
   IUNSCR =        1    unscreen: 0-lin 1-nonlin 2-no                           
   RPACOR =    2.000    partial core radius                                     
   POMASS =   50.941; ZVAL   =    5.000    mass and valenz                      
   RCORE  =    2.700    outmost cutoff radius                                   
   RWIGS  =    2.500; RWIGS  =    1.323    wigner-seitz radius (au A)           
   ENMAX  =  192.543; ENMIN  =  144.408 eV                                      
   RCLOC  =    1.779    cutoff for local pot                                    
   LCOR   =        T    correct aug charges                                     
   LPAW   =        T    paw PP                                                  
   EAUG   =  358.662                                                            
   DEXC   =    0.000                                                            
   RMAX   =    2.768    core radius for proj-oper                               
   RAUG   =    1.300    factor for augmentation sphere                          
   RDEP   =    2.762    radius for radial grids                                 
   RDEPT  =    2.240    core radius for aug-charge                              
                                                                                
   Atomic configuration                                                         
    9 entries                                                                   
     n  l   j            E        occ.                                          
     1  0  0.50     -5360.7193   2.0000                                         
     2  0  0.50      -598.4546   2.0000                                         
     2  1  1.50      -499.0155   6.0000                                         
     3  0  0.50       -66.5711   2.0000                                         
     3  1  1.50       -40.5282   6.0000                                         
     3  2  2.50        -2.4291   4.0000                                         
     4  0  0.50        -3.8743   1.0000                                         
     4  1  0.50        -2.7212   0.0000                                         
     4  3  2.50        -1.3606   0.0000                                         
   Description                                                                  
     l       E           TYP  RCUT    TYP  RCUT                                 
     2     -2.4290901     23  2.700                                             
     2     -3.7896727     23  2.700                                             
     0     -3.8742752     23  2.700                                             
     0     27.2116520     23  2.700                                             
     1     -2.7211652     23  2.700                                             
     1     27.2116520     23  2.700                                             
  local pseudopotential read in
  partial core-charges read in
  partial kinetic energy density read in
  atomic valenz-charges read in
  non local Contribution for L=           2  read in
    real space projection operators read in
  non local Contribution for L=           2  read in
    real space projection operators read in
  non local Contribution for L=           0  read in
    real space projection operators read in
  non local Contribution for L=           0  read in
    real space projection operators read in
  non local Contribution for L=           1  read in
    real space projection operators read in
  non local Contribution for L=           1  read in
    real space projection operators read in
    PAW grid and wavefunctions read in
 
   number of l-projection  operators is LMAX  =           6
   number of lm-projection operators is LMMAX =          18
 

 ----------------------------------------------------------------------------- 
|                                                                             |
|  ADVICE TO THIS USER RUNNING 'VASP/VAMP'   (HEAR YOUR MASTER'S VOICE ...):  |
|                                                                             |
|      You have a (more or less) 'large supercell' and for larger cells       |
|      it might be more efficient to use real space projection opertators     |
|      So try LREAL= Auto  in the INCAR   file.                               |
|      Mind:          For very  accurate calculation you might also keep the  |
|      reciprocal projection scheme          (i.e. LREAL=.FALSE.)             |
|                                                                             |
 ----------------------------------------------------------------------------- 

  PAW_PBE C 08Apr2002                   :
 energy of atom  1       EATOM= -147.1560
 kinetic energy error for atom=    0.0076 (will be added to EATOM!!)
  PAW_PBE N 08Apr2002                   :
 energy of atom  2       EATOM= -264.5486
 kinetic energy error for atom=    0.0138 (will be added to EATOM!!)
  PAW_PBE Fe 06Sep2000                  :
 energy of atom  3       EATOM= -594.3153
 kinetic energy error for atom=    0.0026 (will be added to EATOM!!)
  PAW_PBE V 08Apr2002                   :
 energy of atom  4       EATOM= -170.8679
 kinetic energy error for atom=    0.0003 (will be added to EATOM!!)
 
 
 POSCAR:  C  N Fe  V                             
  positions in cartesian coordinates
  No initial velocities read in
 exchange correlation table for  LEXCH =        8
   RHO(1)=    0.500       N(1)  =     2000
   RHO(2)=  100.500       N(2)  =     4000

 VTST: version 3.2, (02/03/18)

 CHAIN: initializing optimizer
 
 OPT: Using VASP Conjugate-Gradient optimizer
 CHAIN: Read ICHAIN            0
 
 POSCAR:  C  N Fe  V                             
  positions in cartesian coordinates
  No initial velocities read in
 


--------------------------------------------------------------------------------------------------------


 ion  position               nearest neighbor table
   1  0.221  0.998  0.500-   4 1.41   3 1.41  17 1.42
   2  0.054  0.099  0.500-  34 1.42   7 1.43   3 1.44
   3  0.110  0.999  0.500-   1 1.41  15 1.43   2 1.44
   4  0.277  0.095  0.501-   1 1.41   5 1.42  19 1.42
   5  0.221  0.193  0.501-   8 1.41   7 1.41   4 1.42
   6  0.057  0.300  0.500-   7 1.44  38 1.44  10 1.45
   7  0.109  0.197  0.500-   5 1.41   2 1.43   6 1.44
   8  0.279  0.288  0.501-  53 1.37  51 1.37   5 1.41
   9  0.065  0.498  0.500-  10 1.46  42 1.48  12 1.48
  10  0.120  0.396  0.499-  51 1.42   6 1.45   9 1.46
  11  0.059  0.699  0.500-  46 1.43  16 1.44  12 1.45
  12  0.120  0.601  0.500-  52 1.37  11 1.45   9 1.48
  13  0.278  0.703  0.501-  52 1.37  14 1.42  25 1.44
  14  0.223  0.801  0.501-  13 1.42  16 1.42  17 1.42
  15  0.056  0.899  0.500-  50 1.41   3 1.43  16 1.43
  16  0.112  0.800  0.501-  14 1.42  15 1.43  11 1.44
  17  0.278  0.900  0.500-  28 1.41  14 1.42   1 1.42
  18  0.556  0.999  0.499-  20 1.41  30 1.42  21 1.42
  19  0.388  0.095  0.500-  23 1.41  20 1.42   4 1.42
  20  0.445  0.997  0.500-  18 1.41  19 1.42  28 1.42
  21  0.610  0.098  0.499-  22 1.41  32 1.42  18 1.42
  22  0.555  0.196  0.500-  54 1.38  21 1.41  23 1.43
  23  0.442  0.193  0.502-  53 1.38  19 1.41  22 1.43
  24  0.555  0.610  0.499-  55 1.37  56 1.39  26 1.41
  25  0.392  0.704  0.499-  56 1.39  29 1.41  13 1.44
  26  0.613  0.706  0.499-  24 1.41  27 1.41  44 1.42
  27  0.557  0.804  0.499-  26 1.41  30 1.42  29 1.42
  28  0.389  0.900  0.500-  17 1.41  29 1.42  20 1.42
  29  0.445  0.802  0.499-  25 1.41  28 1.42  27 1.42
  30  0.612  0.901  0.499-  48 1.41  27 1.42  18 1.42
  31  0.889  0.000  0.500-  33 1.41  34 1.44  50 1.44
  32  0.722  0.100  0.499-  21 1.42  33 1.43  37 1.44
  33  0.778  0.000  0.499-  31 1.41  32 1.43  48 1.43
  34  0.942  0.100  0.500-   2 1.42  31 1.44  35 1.44
  35  0.887  0.201  0.500-  37 1.43  34 1.44  38 1.45
  36  0.714  0.299  0.501-  54 1.39  37 1.45  41 1.48
  37  0.775  0.201  0.500-  35 1.43  32 1.44  36 1.45
  38  0.943  0.301  0.500-  39 1.44   6 1.44  35 1.45
  39  0.886  0.401  0.500-  38 1.44  42 1.46  41 1.48
  40  0.716  0.504  0.501-  55 1.40  45 1.44  41 1.45
  41  0.770  0.402  0.501-  40 1.45  39 1.48  36 1.48
  42  0.948  0.498  0.500-  43 1.45  39 1.46   9 1.48
  43  0.891  0.598  0.500-  45 1.44  46 1.44  42 1.45
  44  0.724  0.702  0.499-  26 1.42  49 1.43  45 1.44
  45  0.778  0.600  0.500-  43 1.44  40 1.44  44 1.44
  46  0.946  0.699  0.500-  11 1.43  47 1.44  43 1.44
  47  0.891  0.799  0.500-  49 1.42  50 1.44  46 1.44
  48  0.724  0.900  0.499-  30 1.41  33 1.43  49 1.44
  49  0.779  0.800  0.499-  47 1.42  44 1.43  48 1.44
  50  0.945  0.900  0.500-  15 1.41  47 1.44  31 1.44
  51  0.231  0.387  0.498-   8 1.37  10 1.42  57 1.96
  52  0.228  0.607  0.501-  13 1.37  12 1.37  57 2.08
  53  0.386  0.287  0.504-   8 1.37  23 1.38  58 2.01
  54  0.604  0.293  0.501-  22 1.38  36 1.39  58 2.17
  55  0.606  0.513  0.502-  24 1.37  40 1.40  58 2.02
  56  0.446  0.608  0.497-  24 1.39  25 1.39  57 1.96
  57  0.345  0.491  0.494-  56 1.96  51 1.96  58 2.01  52 2.08
  58  0.482  0.414  0.510-  53 2.01  57 2.01  55 2.02  54 2.17
 
  LATTYP: Found a triclinic cell.
 ALAT       =    34.4351727823
 B/A-ratio  =     0.3649408144
 C/A-ratio  =     0.5786002622
 COS(alpha) =     0.0001658063
 COS(beta)  =     0.5790441199
 COS(gamma) =     0.7273807275
  
  Lattice vectors:
  
 A1 = (  12.5287256046, -25.1364024894, -19.9241920579)
 A2 = (  -0.0885655431, -12.5664879097,   0.0000000000)
 A3 = (   0.0174566909,  -0.0034266700, -19.9241920579)


Analysis of symmetry for initial positions (statically):
=====================================================================
 Subroutine PRICEL returns:
 Original cell was already a primitive cell.
 

 Routine SETGRP: Setting up the symmetry group for a 
 triclinic supercell.


 Subroutine GETGRP returns: Found  1 space group operations
 (whereof  1 operations were pure point group operations)
 out of a pool of  2 trial point group operations.


The static configuration has the point symmetry C_1 .


Analysis of symmetry for dynamics (positions and initial velocities):
=====================================================================
 Subroutine PRICEL returns:
 Original cell was already a primitive cell.
 

 Routine SETGRP: Setting up the symmetry group for a 
 triclinic supercell.


 Subroutine GETGRP returns: Found  1 space group operations
 (whereof  1 operations were pure point group operations)
 out of a pool of  2 trial point group operations.


The dynamic configuration has the point symmetry C_1 .


Analysis of structural, dynamic, and magnetic symmetry:
=====================================================================
 Subroutine PRICEL returns:
 Original cell was already a primitive cell.
 

 Routine SETGRP: Setting up the symmetry group for a 
 triclinic supercell.


 Subroutine GETGRP returns: Found  1 space group operations
 (whereof  1 operations were pure point group operations)
 out of a pool of  2 trial point group operations.


The magnetic configuration has the point symmetry C_1 .


 Subroutine INISYM returns: Found  1 space group operations
 (whereof  1 operations are pure point group operations),
 and found     1 'primitive' translations

 
 
 KPOINTS: KPOINTS created by Atomic Simulation Env

Automatic generation of k-mesh.
Space group operators:
 irot       det(A)        alpha          n_x          n_y          n_z        tau_x        tau_y        tau_z
    1     1.000000     0.000000     1.000000     0.000000     0.000000     0.000000     0.000000     0.000000
 
 Subroutine IBZKPT returns following result:
 ===========================================
 
 Found      2 irreducible k-points:
 
 Following reciprocal coordinates:
            Coordinates               Weight
  0.250000  0.250000 -0.000000      2.000000
 -0.250000  0.250000  0.000000      2.000000
 
 Following cartesian coordinates:
            Coordinates               Weight
  0.019703  0.019755  0.000014      2.000000
 -0.019703  0.020033 -0.000021      2.000000
 
 
 Subroutine IBZKPT_HF returns following result:
 ==============================================
 
 Found      4 k-points in 1st BZ
 the following      4 k-points will be used (e.g. in the exchange kernel)
 Following reciprocal coordinates:   # in IRBZ
  0.250000  0.250000 -0.000000    0.25000000   1 t-inv F
 -0.250000  0.250000  0.000000    0.25000000   2 t-inv F
 -0.250000 -0.250000  0.000000    0.25000000   1 t-inv T
  0.250000 -0.250000 -0.000000    0.25000000   2 t-inv T


--------------------------------------------------------------------------------------------------------




 Dimension of arrays:
   k-points           NKPTS =      2   k-points in BZ     NKDIM =      4   number of bands    NBANDS=    155
   number of dos      NEDOS =    301   number of ions     NIONS =     58
   non local maximal  LDIM  =      6   non local SUM 2l+1 LMDIM =     18
   total plane-waves  NPLWV = ******
   max r-space proj   IRMAX =      1   max aug-charges    IRDMAX=  26585
   dimension x,y,z NGX =    96 NGY =   96 NGZ =  150
   dimension x,y,z NGXF=   192 NGYF=  192 NGZF=  300
   support grid    NGXF=   192 NGYF=  192 NGZF=  300
   ions per type =              50   6   1   1
   NGX,Y,Z   is equivalent  to a cutoff of  12.58, 12.70, 12.52 a.u.
   NGXF,Y,Z  is equivalent  to a cutoff of  25.16, 25.40, 25.03 a.u.

 SYSTEM =  unknown system                          
 POSCAR =   C  N Fe  V                             

 Startparameter for this run:
   NWRITE =      2    write-flag & timer
   PREC   = accura    normal or accurate (medium, high low for compatibility)
   ISTART =      1    job   : 0-new  1-cont  2-samecut
   ICHARG =      0    charge: 1-file 2-atom 10-const
   ISPIN  =      2    spin polarized calculation?
   LNONCOLLINEAR =      F non collinear calculations
   LSORBIT =      F    spin-orbit coupling
   INIWAV =      1    electr: 0-lowe 1-rand  2-diag
   LASPH  =      T    aspherical Exc in radial PAW
   METAGGA=      F    non-selfconsistent MetaGGA calc.

 Electronic Relaxation 1
   ENCUT  =  500.0 eV  36.75 Ry    6.06 a.u.  23.13 22.91 36.33*2*pi/ulx,y,z
   ENINI  =  500.0     initial cutoff
   ENAUG  =  644.9 eV  augmentation charge cutoff
   NELM   =    250;   NELMIN=  2; NELMDL=  0     # of ELM steps 
   EDIFF  = 0.1E-03   stopping-criterion for ELM
   LREAL  =      F    real-space projection
   NLSPLINE    = F    spline interpolate recip. space projectors
   LCOMPAT=      F    compatible to vasp.4.4
   GGA_COMPAT  = T    GGA compatible to vasp.4.4-vasp.4.6
   LMAXPAW     = -100 max onsite density
   LMAXMIX     =    2 max onsite mixed and CHGCAR
   VOSKOWN=      0    Vosko Wilk Nusair interpolation
   ROPT   =    0.00000   0.00000   0.00000   0.00000
 Ionic relaxation
   EDIFFG = -.3E-01   stopping-criterion for IOM
   NSW    =      0    number of steps for IOM
   NBLOCK =      1;   KBLOCK =      1    inner block; outer block 
   IBRION =     -1    ionic relax: 0-MD 1-quasi-New 2-CG
   NFREE  =      1    steps in history (QN), initial steepest desc. (CG)
   ISIF   =      2    stress and relaxation
   IWAVPR =     10    prediction:  0-non 1-charg 2-wave 3-comb
   ISYM   =      3    0-nonsym 1-usesym 2-fastsym
   LCORR  =      T    Harris-Foulkes like correction to forces

   POTIM  = 0.5000    time-step for ionic-motion
   TEIN   =    0.0    initial temperature
   TEBEG  =    0.0;   TEEND  =   0.0 temperature during run
   SMASS  =  -3.00    Nose mass-parameter (am)
   estimated Nose-frequenzy (Omega)   =  0.10E-29 period in steps =****** mass=  -0.368E-26a.u.
   SCALEE = 1.0000    scale energy and forces
   NPACO  =    256;   APACO  = 16.0  distance and # of slots for P.C.
   PSTRESS=    0.0 pullay stress

  Mass of Ions in am
   POMASS =  12.01 14.00 55.85 50.94
  Ionic Valenz
   ZVAL   =   4.00  5.00  8.00  5.00
  Atomic Wigner-Seitz radii
   RWIGS  =  -1.00 -1.00 -1.00 -1.00
  virtual crystal weights 
   VCA    =   1.00  1.00  1.00  1.00
   NELECT =     243.0000    total number of electrons
   NUPDOWN=      -1.0000    fix difference up-down

 DOS related values:
   EMIN   =  10.00;   EMAX   =-10.00  energy-range for DOS
   EFERMI =   0.00
   ISMEAR =     0;   SIGMA  =   0.10  broadening in eV -4-tet -1-fermi 0-gaus

 Electronic relaxation 2 (details)
   IALGO  =     53    algorithm
   LDIAG  =      T    sub-space diagonalisation (order eigenvalues)
   LSUBROT=      F    optimize rotation matrix (better conditioning)
   TURBO    =      0    0=normal 1=particle mesh
   IRESTART =      0    0=no restart 2=restart with 2 vectors
   NREBOOT  =      0    no. of reboots
   NMIN     =      0    reboot dimension
   EREF     =   0.00    reference energy to select bands
   IMIX   =      4    mixing-type and parameters
     AMIX     =   0.40;   BMIX     =  1.00
     AMIX_MAG =   1.60;   BMIX_MAG =  1.00
     AMIN     =   0.10
     WC   =   100.;   INIMIX=   1;  MIXPRE=   1;  MAXMIX= -45

 Intra band minimization:
   WEIMIN = 0.0000     energy-eigenvalue tresh-hold
   EBREAK =  0.16E-06  absolut break condition
   DEPER  =   0.30     relativ break condition  

   TIME   =   0.20     timestep for ELM

  volume/ion in A,a.u.               =      54.77       369.63
  Fermi-wavevector in a.u.,A,eV,Ry     =   0.694933  1.313233  6.570692  0.482932
  Thomas-Fermi vector in A             =   1.777565
 
 Write flags
   LWAVE        =      T    write WAVECAR
   LDOWNSAMPLE  =      F    k-point downsampling of WAVECAR
   LCHARG       =      T    write CHGCAR
   LVTOT        =      F    write LOCPOT, total local potential
   LVHAR        =      F    write LOCPOT, Hartree potential only
   LELF         =      F    write electronic localiz. function (ELF)
   LORBIT       =     11    0 simple, 1 ext, 2 COOP (PROOUT), +10 PAW based schemes


 Dipole corrections
   LMONO  =      F    monopole corrections only (constant potential shift)
   LDIPOL =      T    correct potential (dipole corrections)
   IDIPOL =      3    1-x, 2-y, 3-z, 4-all directions 
   EPSILON=  1.0000000 bulk dielectric constant

 Exchange correlation treatment:
   GGA     =    PE    GGA type
   LEXCH   =     8    internal setting for exchange type
   VOSKOWN=      0    Vosko Wilk Nusair interpolation
   EXXOEP  =     0    0=HF, 1=EXX-LHF (local Hartree Fock) 2=EXX OEP
   LHFCALC =     T    Hartree Fock is set to
   LSYMGRAD=     F    symmetrize gradient (conserves proper symmetry)
   PRECFOCK=normal    Normal, Fast or Accurate (Low or Medium for compatibility)
   LRHFCALC=     F    long range Hartree Fock
   LRSCOR  =     F    long range correlation only (use DFT for short range part)
   LTHOMAS =     F    Thomas Fermi screening in HF
   LMODELHF=     F    short range full HF, long range fraction AEXX
   ENCUT4O =  -1.0   cutoff for four orbital integrals eV
   LMAXFOCK=     4    L truncation for augmentation on plane wave grid
   LMAXFOCKAE=  -1    L truncation for all-electron charge restoration on plane wave grid
   NMAXFOCKAE=   1    number of basis functions for all-electron charge restoration
   LFOCKAEDFT=     F  apply the AE augmentation even for DFT
   NKREDX  =     1    reduce k-point grid by
   NKREDY  =     1    reduce k-point grid by
   NKREDZ  =     1    reduce k-point grid by
   SHIFTRED=     F    shift reduced grid of Gamma
   HFKIDENT=     F    idential grid for each k-point
   ODDONLY =     F    use only odd q-grid points
   EVENONLY=     F    use only even q-grid points
   HFALPHA =   -1.0000 decay constant for conv. correction
   MCALPHA =    0.0000 extent of test-charge in conv. correction in multipole expansion
   AEXX    =    0.2500 exact exchange contribution
   HFSCREEN=    0.2000 screening length (either q_TF or 0.3 A-1)
   HFSCREENC=   0.2000 screening length for correlation (either q_TF or 0.3 A-1)
   HFRCUT  =    0.0000 spherical cutoff for potential kernel
   ALDAX   =    0.7500 LDA exchange part
   AGGAX   =    0.7500 GGA exchange part
   ALDAC   =    1.0000 LDA correlation
   AGGAC   =    1.0000 GGA correlation
   ENCUTFOCK=  -1.0 apply spherical cutoff to Coloumb kernel
   NBANDSGWLOW=     1    first orbital included in HF term
   NBLOCK_FOCK=    64    blocking factor in FOCK_ACC
 Linear response parameters
   LEPSILON=     F    determine dielectric tensor
   LRPA    =     F    only Hartree local field effects (RPA)
   LNABLA  =     F    use nabla operator in PAW spheres
   LVEL    =     F    velocity operator in full k-point grid
   LINTERFAST=   F  fast interpolation
   KINTER  =     0    interpolate to denser k-point grid
   CSHIFT  =0.1000    complex shift for real part using Kramers Kronig
   OMEGAMAX=  -1.0    maximum frequency
   DEG_THRESHOLD= 0.2000000E-02 threshold for treating states as degnerate
   RTIME   =   -0.100 relaxation time in fs
  (WPLASMAI=    0.000 imaginary part of plasma frequency in eV, 0.658/RTIME)
   DFIELD  = 0.0000000 0.0000000 0.0000000 field for delta impulse in time
 
 Orbital magnetization related:
   ORBITALMAG=     F  switch on orbital magnetization
   LCHIMAG   =     F  perturbation theory with respect to B field
   DQ        =  0.001000  dq finite difference perturbation B field
   LLRAUG    =     F  two centre corrections for induced B field



--------------------------------------------------------------------------------------------------------


 Static calculation
 charge density and potential will be updated during run
 spin polarized calculation
 Conjugate gradient for all bands (Freysoldt, et al. PRB 79, 241103 (2009))
 perform sub-space diagonalisation
    before iterative eigenvector-optimisation
 modified Broyden-mixing scheme, WC =      100.0
 initial mixing is a Kerker type mixing with AMIX =  0.4000 and BMIX =      1.0000
 Hartree-type preconditioning will be used
 using additional bands           33
 reciprocal scheme for non local part
 use partial core corrections
 no Harris-corrections to forces 
 use gradient corrections 
 use of overlap-Matrix (Vanderbilt PP)
 Gauss-broadening in eV      SIGMA  =   0.10


--------------------------------------------------------------------------------------------------------


  energy-cutoff  :      500.00
  volume of cell :     3176.89
      direct lattice vectors                 reciprocal lattice vectors
    12.688400000  0.000000000  0.000000000     0.078812143 -0.000555449  0.000069147
     0.088565543 12.566487910  0.000000000     0.000000000  0.079576729 -0.000013686
    -0.017456691  0.003426670 19.924192058     0.000000000  0.000000000  0.050190241

  length of vectors
    12.688400000 12.566800000 19.924200000     0.078814131  0.079576730  0.050190241


 
 old parameters found on file WAVECAR:
  energy-cutoff  :      500.00
  volume of cell :     3176.89
      direct lattice vectors                 reciprocal lattice vectors
    12.688400000  0.000000000  0.000000000     0.078812143 -0.000555449  0.000069147
     0.088565543 12.566487910  0.000000000     0.000000000  0.079576729 -0.000013686
    -0.017456691  0.003426670 19.924192058     0.000000000  0.000000000  0.050190241

  length of vectors

 
 k-points in units of 2pi/SCALE and weight: KPOINTS created by Atomic Simulation Env
   0.01970304  0.01975532  0.00001387       0.500
  -0.01970304  0.02003304 -0.00002071       0.500
 
 k-points in reciprocal lattice and weights: KPOINTS created by Atomic Simulation Env
   0.25000000  0.25000000 -0.00000000       0.500
  -0.25000000  0.25000000  0.00000000       0.500
 
 position of ions in fractional coordinates (direct lattice) 
   0.22117094  0.99776700  0.50037935
   0.05413413  0.09897425  0.49984401
   0.10973918  0.99900257  0.50021457
   0.27655214  0.09494057  0.50067002
   0.22089839  0.19306738  0.50054365
   0.05715900  0.29963907  0.49955708
   0.10949624  0.19746867  0.49973066
   0.27874717  0.28849016  0.50099541
   0.06474972  0.49759538  0.49970952
   0.11987319  0.39554422  0.49897646
   0.05883161  0.69895615  0.50032667
   0.11959898  0.60087330  0.50039229
   0.27840615  0.70292797  0.50053286
   0.22326847  0.80128434  0.50075181
   0.05574886  0.89929759  0.50031296
   0.11158558  0.79979354  0.50066682
   0.27768310  0.89964911  0.50037405
   0.55593645  0.99902663  0.49908668
   0.38837385  0.09497519  0.50036299
   0.44478449  0.99744555  0.49951513
   0.61028815  0.09777941  0.49934300
   0.55482698  0.19582261  0.50043821
   0.44189377  0.19273612  0.50155694
   0.55540435  0.60966180  0.49869682
   0.39153900  0.70403432  0.49898655
   0.61260537  0.70557407  0.49863157
   0.55700279  0.80355149  0.49854082
   0.38887506  0.90000639  0.49979887
   0.44515381  0.80209642  0.49919682
   0.61232505  0.90094498  0.49881981
   0.88897491  0.00003765  0.49962554
   0.72201553  0.09973137  0.49935793
   0.77770683  0.00017073  0.49928757
   0.94233663  0.10037573  0.49972621
   0.88734343  0.20138379  0.49985997
   0.71357776  0.29922568  0.50054585
   0.77455499  0.20099587  0.49987619
   0.94335631  0.30131468  0.49992771
   0.88621506  0.40097405  0.50017279
   0.71633713  0.50444069  0.50091908
   0.76988297  0.40175345  0.50075254
   0.94845537  0.49834829  0.49999180
   0.89146081  0.59835467  0.49997578
   0.72434315  0.70166450  0.49949934
   0.77807153  0.60019911  0.49998862
   0.94646484  0.69850043  0.49998577
   0.89113727  0.79920353  0.49983648
   0.72373937  0.90025516  0.49910913
   0.77935413  0.80039781  0.49948328
   0.94450220  0.89950566  0.49989406
   0.23117670  0.38685352  0.49786254
   0.22763482  0.60678315  0.50096490
   0.38648024  0.28717163  0.50408192
   0.60449352  0.29335429  0.50111034
   0.60618917  0.51303477  0.50216100
   0.44629530  0.60810971  0.49685449
   0.34525187  0.49101906  0.49427691
   0.48231619  0.41356477  0.51046986
 
 position of ions in cartesian coordinates  (Angst):
   2.88593820 12.54014151  9.96965425
   0.68691562  1.24547146  9.95898806
   1.47215974 12.55566777  9.96637112
   3.50867257  1.19478521  9.97544557
   2.81120839  2.42789413  9.97292782
   0.74307329  3.76712251  9.95327121
   1.39809735  2.48320012  9.95672968
   3.55366017  3.62702488  9.98192877
   0.85691683  6.25473866  9.95630848
   1.54732005  4.97231151  9.94170286
   0.79964837  8.78513850  9.96860464
   1.56200119  7.55258170  9.96991208
   3.58604610  8.83505101  9.97271283
   2.89514436 10.07104593  9.97707520
   0.77827675 11.30272672  9.96833154
   1.47793665 10.05231145  9.97538180
   3.59429735 11.30714433  9.96954860
   7.13371105 12.55596623  9.94389884
   4.92751962  1.19521914  9.96932840
   5.72322295 12.53609911  9.95243541
   7.74352313  1.23045483  9.94900578
   7.04847385  2.46251732  9.97082696
   5.61523917  2.42373484  9.99311679
   7.09248193  7.66301651  9.93613126
   5.02164594  8.84894858  9.94190384
   7.82676713  8.86829663  9.93483127
   7.12993836 10.09952838  9.93302306
   5.00518702 11.31163211  9.95808876
   5.71061337 10.08124553  9.94609336
   7.84051004 11.32342343  9.93858172
  11.27095082  0.00218515  9.95463528
   9.16133742  1.25498424  9.94930329
   9.85915461  0.00385632  9.94790137
  11.95691042  1.26308278  9.95664100
  11.26807820  2.53239987  9.95930610
   9.07192326  3.76193107  9.97297172
   9.83693867  2.52752506  9.95962924
  11.98764117  3.78818040  9.96065562
  11.27143224  5.04054950  9.96553872
   9.12510369  6.34076437  9.98040786
   9.79542307  5.05034579  9.97708970
  12.06978940  6.26420105  9.96193259
  11.35547704  7.52092996  9.96161355
   9.24417926  8.81917008  9.95212078
   9.91691162  7.54410820  9.96186927
  12.06225949  8.77941045  9.96181242
  11.36916255 10.04489430  9.95883812
   9.25411343 11.31475586  9.94434612
   9.95092528 10.05990098  9.95180073
  12.05516042 11.30533993  9.95998535
   2.95883334  4.86309610  9.91950896
   2.93331657  7.62684980  9.98132081
   4.92044983  3.61046619 10.04342492
   7.68728888  3.68815022  9.98421874
   7.72824181  6.44876598 10.00515224
   5.70795741  7.64350590  9.89942435
   4.41555275  6.17207878  9.84806810
   6.14753722  5.19880587 10.17069949
 


--------------------------------------------------------------------------------------------------------


 k-point  1 :   0.2500 0.2500-0.0000  plane waves:   80672
 k-point  2 :  -0.2500 0.2500 0.0000  plane waves:   80655

 maximum and minimum number of plane-waves per node :      2044     1982

 maximum number of plane-waves:     80672
 maximum index in each direction: 
   IXMAX=   23   IYMAX=   22   IZMAX=   36
   IXMIN=  -23   IYMIN=  -23   IZMIN=  -36


 parallel 3D FFT for wavefunctions:
    minimum data exchange during FFTs selected (reduces bandwidth)
 parallel 3D FFT for charge:
    minimum data exchange during FFTs selected (reduces bandwidth)


 FFT grid for exact exchange (Hartree Fock) 
  NGX = 70; NGY = 70; NGZ =112

 
 Radii for the augmentation spheres in the non-local exchange
 for species   1 augmentation radius   0.874 (default was   0.699)
       energy cutoff for augmentation   2000.0
 for species   2 augmentation radius   0.886 (default was   0.709)
       energy cutoff for augmentation   2000.0
 for species   3 augmentation radius   1.263 (default was   1.010)
       energy cutoff for augmentation   2000.0
 for species   4 augmentation radius   1.508 (default was   1.206)
       energy cutoff for augmentation   2000.0

 real space projection operators:
  total allocation   :       2661.11 KBytes
  max/ min on nodes  :        100.66         49.64

 Maximum index for augmentation-charges in exchange           98
  SETUP_FOCK is finished

 total amount of memory used by VASP MPI-rank0   141937. kBytes
=======================================================================

   base      :      30000. kBytes
   nonl-proj :       4268. kBytes
   fftplans  :      11851. kBytes
   grid      :      31266. kBytes
   one-center:         62. kBytes
   HF        :         23. kBytes
   nonlr-proj:       2628. kBytes
   wavefun   :      61839. kBytes
 
     INWAV:  cpu time    3.0458: real time    5.5601
 Broyden mixing: mesh for mixing (old mesh)
   NGX = 47   NGY = 45   NGZ = 73
  (NGX  =192   NGY  =192   NGZ  =300)
  gives a total of 154395 points

 charge density for first step will be calculated from the start-wavefunctions


--------------------------------------------------------------------------------------------------------


 Maximum index for augmentation-charges          548 (set IRDMAX)


--------------------------------------------------------------------------------------------------------


 initial charge from wavefunction
 First call to EWALD:  gamma=   0.121
 Maximum number of real-space cells 3x 3x 2
 Maximum number of reciprocal cells 2x 2x 4

    FEWALD:  cpu time    0.0032: real time    0.0033


--------------------------------------- Iteration      1(   1)  ---------------------------------------


    POTLOK:  cpu time    1.1071: real time    1.1136
    SETDIJ:  cpu time    1.2107: real time    1.2144
    TRIAL :  cpu time  189.5897: real time  190.3598
    CORREC:  cpu time    0.0010: real time    0.0010
    CHARGE:  cpu time    0.9116: real time    0.9154
    --------------------------------------------
      LOOP:  cpu time  192.8412: real time  193.6268

 eigenvalue-minimisations  :     0
 total energy-change (2. order) :-0.6097111E+03  (-0.4400031E+00)
 number of electron     243.0000001 magnetization       0.6929784
 augmentation part       12.1060281 magnetization      -0.3110651

 DIPCOR: dipole corrections for dipol
 direction  3 min pos     1,
 dipolmoment           0.000027     -0.000005     -0.031216 electrons x Angstroem
 Tr[quadrupol]     -6440.880817

 energy correction for charged system         0.000000 eV
 dipol+quadrupol energy correction            0.000028 eV
 added-field ion interaction          0.000000 eV  (added to PSCEN)


 Free energy of the ion-electron system (eV)
  ---------------------------------------------------
  alpha Z        PSCENC =        99.78242880
  Ewald energy   TEWEN  =     38786.19509760
  -Hartree energ DENC   =    -47052.33681619
  -exchange      EXHF   =       550.66347182
  -V(xc)+E(xc)   XCENC  =       588.21201479
  PAW double counting   =     26128.48875234   -26127.90887065
  entropy T*S    EENTRO =        -0.03045883
  eigenvalues    EBANDS =     -3178.93030938
  atomic energy  EATOM  =      9596.15507312
  ---------------------------------------------------
  free energy    TOTEN  =      -609.71106709 eV

  energy without entropy =     -609.68060826  energy(sigma->0) =     -609.69583768
  exchange ACFDT corr.  =        -0.02120589  see jH, gK, PRB 81, 115126


--------------------------------------------------------------------------------------------------------




--------------------------------------- Iteration      1(   2)  ---------------------------------------


    POTLOK:  cpu time    1.1255: real time    1.1298
    SETDIJ:  cpu time    1.2021: real time    1.2054
    TRIAL :  cpu time  189.1285: real time  189.8521
    CORREC:  cpu time    0.0009: real time    0.0009
    CHARGE:  cpu time    0.9162: real time    0.9187
    --------------------------------------------
      LOOP:  cpu time  192.3757: real time  193.1137

 eigenvalue-minimisations  :     0
 total energy-change (2. order) :-0.3639803E+00  (-0.3908903E+00)
 number of electron     243.0000001 magnetization       0.7302825
 augmentation part       12.0704803 magnetization      -0.3475046

 DIPCOR: dipole corrections for dipol
 direction  3 min pos     1,
 dipolmoment           0.000022     -0.000004     -0.025130 electrons x Angstroem
 Tr[quadrupol]     -6440.674300

 energy correction for charged system         0.000000 eV
 dipol+quadrupol energy correction            0.000018 eV
 added-field ion interaction          0.000000 eV  (added to PSCEN)


 Free energy of the ion-electron system (eV)
  ---------------------------------------------------
  alpha Z        PSCENC =        99.78241899
  Ewald energy   TEWEN  =     38786.19509760
  -Hartree energ DENC   =    -47034.39364408
  -exchange      EXHF   =       550.49885062
  -V(xc)+E(xc)   XCENC  =       587.85299791
  PAW double counting   =     26253.03056025   -26251.82695070
  entropy T*S    EENTRO =        -0.02797771
  eigenvalues    EBANDS =     -3197.33899226
  atomic energy  EATOM  =      9596.15507312
  ---------------------------------------------------
  free energy    TOTEN  =      -610.07504737 eV

  energy without entropy =     -610.04706966  energy(sigma->0) =     -610.06105852
  exchange ACFDT corr.  =        -0.01968725  see jH, gK, PRB 81, 115126


--------------------------------------------------------------------------------------------------------




--------------------------------------- Iteration      1(   3)  ---------------------------------------


    POTLOK:  cpu time    1.1347: real time    1.1381
    SETDIJ:  cpu time    1.1852: real time    1.1890
    TRIAL :  cpu time  189.0514: real time  189.8142
    CORREC:  cpu time    0.0010: real time    0.0010
    CHARGE:  cpu time    0.9144: real time    0.9169
    --------------------------------------------
      LOOP:  cpu time  192.2885: real time  193.0652

 eigenvalue-minimisations  :     0
 total energy-change (2. order) :-0.3108534E+00  (-0.2611373E+00)
 number of electron     243.0000001 magnetization       0.7688010
 augmentation part       12.0790363 magnetization      -0.3735126

 DIPCOR: dipole corrections for dipol
 direction  3 min pos     1,
 dipolmoment           0.000016     -0.000003     -0.018384 electrons x Angstroem
 Tr[quadrupol]     -6440.490095

 energy correction for charged system         0.000000 eV
 dipol+quadrupol energy correction            0.000010 eV
 added-field ion interaction          0.000000 eV  (added to PSCEN)


 Free energy of the ion-electron system (eV)
  ---------------------------------------------------
  alpha Z        PSCENC =        99.78241060
  Ewald energy   TEWEN  =     38786.19509760
  -Hartree energ DENC   =    -47017.79887233
  -exchange      EXHF   =       550.43012591
  -V(xc)+E(xc)   XCENC  =       587.52430542
  PAW double counting   =     26411.03217514   -26409.56007909
  entropy T*S    EENTRO =        -0.02522882
  eigenvalues    EBANDS =     -3214.11815942
  atomic energy  EATOM  =      9596.15507312
  ---------------------------------------------------
  free energy    TOTEN  =      -610.38590077 eV

  energy without entropy =     -610.36067196  energy(sigma->0) =     -610.37328636
  exchange ACFDT corr.  =        -0.02371306  see jH, gK, PRB 81, 115126


--------------------------------------------------------------------------------------------------------




--------------------------------------- Iteration      1(   4)  ---------------------------------------


    POTLOK:  cpu time    1.1349: real time    1.1392
    SETDIJ:  cpu time    1.1685: real time    1.1717
    TRIAL :  cpu time  189.8758: real time  190.6643
    CORREC:  cpu time    0.0009: real time    0.0009
    CHARGE:  cpu time    0.9134: real time    0.9160
    --------------------------------------------
      LOOP:  cpu time  193.0954: real time  193.8993

 eigenvalue-minimisations  :     0
 total energy-change (2. order) :-0.2117533E+00  (-0.1763105E+00)
 number of electron     243.0000002 magnetization       0.8021254
 augmentation part       12.0980460 magnetization      -0.3942699

 DIPCOR: dipole corrections for dipol
 direction  3 min pos     1,
 dipolmoment           0.000011     -0.000002     -0.012982 electrons x Angstroem
 Tr[quadrupol]     -6440.435630

 energy correction for charged system         0.000000 eV
 dipol+quadrupol energy correction            0.000005 eV
 added-field ion interaction          0.000000 eV  (added to PSCEN)


 Free energy of the ion-electron system (eV)
  ---------------------------------------------------
  alpha Z        PSCENC =        99.78240575
  Ewald energy   TEWEN  =     38786.19509760
  -Hartree energ DENC   =    -47011.26120368
  -exchange      EXHF   =       550.59479092
  -V(xc)+E(xc)   XCENC  =       587.43331203
  PAW double counting   =     26544.41120111   -26543.06603958
  entropy T*S    EENTRO =        -0.02269174
  eigenvalues    EBANDS =     -3220.81706249
  atomic energy  EATOM  =      9596.15507312
  ---------------------------------------------------
  free energy    TOTEN  =      -610.59765402 eV

  energy without entropy =     -610.57496228  energy(sigma->0) =     -610.58630815
  exchange ACFDT corr.  =        -0.02046689  see jH, gK, PRB 81, 115126


--------------------------------------------------------------------------------------------------------




--------------------------------------- Iteration      1(   5)  ---------------------------------------


    POTLOK:  cpu time    1.1358: real time    1.1482
    SETDIJ:  cpu time    1.1682: real time    1.1712
    TRIAL :  cpu time  189.0075: real time  189.7442
    CORREC:  cpu time    0.0009: real time    0.0009
    CHARGE:  cpu time    0.9215: real time    0.9243
    --------------------------------------------
      LOOP:  cpu time  192.2354: real time  192.9952

 eigenvalue-minimisations  :     0
 total energy-change (2. order) :-0.1488402E+00  (-0.1309780E+00)
 number of electron     243.0000002 magnetization       0.8299679
 augmentation part       12.1082474 magnetization      -0.4140904

 DIPCOR: dipole corrections for dipol
 direction  3 min pos     1,
 dipolmoment           0.000009     -0.000002     -0.010475 electrons x Angstroem
 Tr[quadrupol]     -6440.474694

 energy correction for charged system         0.000000 eV
 dipol+quadrupol energy correction            0.000003 eV
 added-field ion interaction          0.000000 eV  (added to PSCEN)


 Free energy of the ion-electron system (eV)
  ---------------------------------------------------
  alpha Z        PSCENC =        99.78240407
  Ewald energy   TEWEN  =     38786.19509760
  -Hartree energ DENC   =    -47012.62151160
  -exchange      EXHF   =       550.92669903
  -V(xc)+E(xc)   XCENC  =       587.55138211
  PAW double counting   =     26640.19548407   -26639.02570807
  entropy T*S    EENTRO =        -0.02042768
  eigenvalues    EBANDS =     -3219.88272278
  atomic energy  EATOM  =      9596.15507312
  ---------------------------------------------------
  free energy    TOTEN  =      -610.74649420 eV

  energy without entropy =     -610.72606652  energy(sigma->0) =     -610.73628036
  exchange ACFDT corr.  =        -0.01758040  see jH, gK, PRB 81, 115126


--------------------------------------------------------------------------------------------------------




--------------------------------------- Iteration      1(   6)  ---------------------------------------


    POTLOK:  cpu time    1.1345: real time    1.1381
    SETDIJ:  cpu time    1.1824: real time    1.1856
    TRIAL :  cpu time  189.1971: real time  189.9160
    CORREC:  cpu time    0.0010: real time    0.0010
    CHARGE:  cpu time    0.9139: real time    0.9163
    --------------------------------------------
      LOOP:  cpu time  192.4300: real time  193.1637

 eigenvalue-minimisations  :     0
 total energy-change (2. order) :-0.1145730E+00  (-0.1010593E+00)
 number of electron     243.0000002 magnetization       0.8537695
 augmentation part       12.1121747 magnetization      -0.4319785

 DIPCOR: dipole corrections for dipol
 direction  3 min pos     1,
 dipolmoment           0.000009     -0.000002     -0.009931 electrons x Angstroem
 Tr[quadrupol]     -6440.537478

 energy correction for charged system         0.000000 eV
 dipol+quadrupol energy correction            0.000003 eV
 added-field ion interaction          0.000000 eV  (added to PSCEN)


 Free energy of the ion-electron system (eV)
  ---------------------------------------------------
  alpha Z        PSCENC =        99.78240375
  Ewald energy   TEWEN  =     38786.19509760
  -Hartree energ DENC   =    -47016.70179444
  -exchange      EXHF   =       551.29246186
  -V(xc)+E(xc)   XCENC  =       587.75377615
  PAW double counting   =     26703.22775496   -26702.12516004
  entropy T*S    EENTRO =        -0.01835406
  eigenvalues    EBANDS =     -3216.42025246
  atomic energy  EATOM  =      9596.15507312
  ---------------------------------------------------
  free energy    TOTEN  =      -610.86106717 eV

  energy without entropy =     -610.84271311  energy(sigma->0) =     -610.85189014
  exchange ACFDT corr.  =        -0.01513117  see jH, gK, PRB 81, 115126


--------------------------------------------------------------------------------------------------------




--------------------------------------- Iteration      1(   7)  ---------------------------------------


    POTLOK:  cpu time    1.1335: real time    1.1366
    SETDIJ:  cpu time    1.2118: real time    1.2156
    TRIAL :  cpu time  189.3572: real time  190.0778
    CORREC:  cpu time    0.0009: real time    0.0009
    CHARGE:  cpu time    0.9133: real time    0.9158
    --------------------------------------------
      LOOP:  cpu time  192.6187: real time  193.3536

 eigenvalue-minimisations  :     0
 total energy-change (2. order) :-0.8959127E-01  (-0.7769677E-01)
 number of electron     243.0000002 magnetization       0.8744492
 augmentation part       12.1180163 magnetization      -0.4454994

 DIPCOR: dipole corrections for dipol
 direction  3 min pos     1,
 dipolmoment           0.000008     -0.000002     -0.009171 electrons x Angstroem
 Tr[quadrupol]     -6440.587159

 energy correction for charged system         0.000000 eV
 dipol+quadrupol energy correction            0.000002 eV
 added-field ion interaction          0.000000 eV  (added to PSCEN)


 Free energy of the ion-electron system (eV)
  ---------------------------------------------------
  alpha Z        PSCENC =        99.78240334
  Ewald energy   TEWEN  =     38786.19509760
  -Hartree energ DENC   =    -47020.32008800
  -exchange      EXHF   =       551.60651055
  -V(xc)+E(xc)   XCENC  =       587.94652183
  PAW double counting   =     26741.80031826   -26740.70212389
  entropy T*S    EENTRO =        -0.01642325
  eigenvalues    EBANDS =     -3213.39601720
  atomic energy  EATOM  =      9596.15507312
  ---------------------------------------------------
  free energy    TOTEN  =      -610.95065844 eV

  energy without entropy =     -610.93423520  energy(sigma->0) =     -610.94244682
  exchange ACFDT corr.  =        -0.01303955  see jH, gK, PRB 81, 115126


--------------------------------------------------------------------------------------------------------




--------------------------------------- Iteration      1(   8)  ---------------------------------------


    POTLOK:  cpu time    1.1266: real time    1.1561
    SETDIJ:  cpu time    1.1696: real time    1.1736
    TRIAL :  cpu time  188.6704: real time  189.3787
    CORREC:  cpu time    0.0009: real time    0.0009
    CHARGE:  cpu time    0.9126: real time    0.9151
    --------------------------------------------
      LOOP:  cpu time  191.8824: real time  192.6307

 eigenvalue-minimisations  :     0
 total energy-change (2. order) :-0.7006903E-01  (-0.6141441E-01)
 number of electron     243.0000002 magnetization       0.8921498
 augmentation part       12.1269540 magnetization      -0.4556378

 DIPCOR: dipole corrections for dipol
 direction  3 min pos     1,
 dipolmoment           0.000007     -0.000001     -0.007472 electrons x Angstroem
 Tr[quadrupol]     -6440.617614

 energy correction for charged system         0.000000 eV
 dipol+quadrupol energy correction            0.000002 eV
 added-field ion interaction          0.000000 eV  (added to PSCEN)


 Free energy of the ion-electron system (eV)
  ---------------------------------------------------
  alpha Z        PSCENC =        99.78240253
  Ewald energy   TEWEN  =     38786.19509760
  -Hartree energ DENC   =    -47022.63422558
  -exchange      EXHF   =       551.84615857
  -V(xc)+E(xc)   XCENC  =       588.09480271
  PAW double counting   =     26763.85671888   -26762.78859357
  entropy T*S    EENTRO =        -0.01466174
  eigenvalues    EBANDS =     -3211.51173848
  atomic energy  EATOM  =      9596.15507312
  ---------------------------------------------------
  free energy    TOTEN  =      -611.02072747 eV

  energy without entropy =     -611.00606573  energy(sigma->0) =     -611.01339660
  exchange ACFDT corr.  =        -0.01122926  see jH, gK, PRB 81, 115126


--------------------------------------------------------------------------------------------------------




--------------------------------------- Iteration      1(   9)  ---------------------------------------


    POTLOK:  cpu time    1.1294: real time    1.1327
    SETDIJ:  cpu time    1.1818: real time    1.1858
    TRIAL :  cpu time  189.5542: real time  190.2776
    CORREC:  cpu time    0.0009: real time    0.0009
    CHARGE:  cpu time    0.9117: real time    0.9141
    --------------------------------------------
      LOOP:  cpu time  192.7797: real time  193.5177

 eigenvalue-minimisations  :     0
 total energy-change (2. order) :-0.5606896E-01  (-0.4911480E-01)
 number of electron     243.0000002 magnetization       0.9068144
 augmentation part       12.1359434 magnetization      -0.4645870

 DIPCOR: dipole corrections for dipol
 direction  3 min pos     1,
 dipolmoment           0.000005     -0.000001     -0.005541 electrons x Angstroem
 Tr[quadrupol]     -6440.633769

 energy correction for charged system         0.000000 eV
 dipol+quadrupol energy correction            0.000001 eV
 added-field ion interaction          0.000000 eV  (added to PSCEN)


 Free energy of the ion-electron system (eV)
  ---------------------------------------------------
  alpha Z        PSCENC =        99.78240181
  Ewald energy   TEWEN  =     38786.19509760
  -Hartree energ DENC   =    -47023.86144296
  -exchange      EXHF   =       552.02308605
  -V(xc)+E(xc)   XCENC  =       588.20112515
  PAW double counting   =     26775.89078203   -26774.89535092
  entropy T*S    EENTRO =        -0.01312032
  eigenvalues    EBANDS =     -3210.55290656
  atomic energy  EATOM  =      9596.15507312
  ---------------------------------------------------
  free energy    TOTEN  =      -611.07679643 eV

  energy without entropy =     -611.06367611  energy(sigma->0) =     -611.07023627
  exchange ACFDT corr.  =        -0.00967796  see jH, gK, PRB 81, 115126


--------------------------------------------------------------------------------------------------------




--------------------------------------- Iteration      1(  10)  ---------------------------------------


    POTLOK:  cpu time    1.1264: real time    1.1307
    SETDIJ:  cpu time    1.1837: real time    1.1870
    TRIAL :  cpu time  189.8466: real time  190.5596
    CORREC:  cpu time    0.0013: real time    0.0013
    CHARGE:  cpu time    0.9108: real time    0.9133
    --------------------------------------------
      LOOP:  cpu time  193.0701: real time  193.7978

 eigenvalue-minimisations  :     0
 total energy-change (2. order) :-0.4513753E-01  (-0.3941543E-01)
 number of electron     243.0000002 magnetization       0.9186245
 augmentation part       12.1426536 magnetization      -0.4736355

 DIPCOR: dipole corrections for dipol
 direction  3 min pos     1,
 dipolmoment           0.000004     -0.000001     -0.004118 electrons x Angstroem
 Tr[quadrupol]     -6440.641717

 energy correction for charged system         0.000000 eV
 dipol+quadrupol energy correction            0.000000 eV
 added-field ion interaction          0.000000 eV  (added to PSCEN)


 Free energy of the ion-electron system (eV)
  ---------------------------------------------------
  alpha Z        PSCENC =        99.78240142
  Ewald energy   TEWEN  =     38786.19509760
  -Hartree energ DENC   =    -47024.43234300
  -exchange      EXHF   =       552.15811728
  -V(xc)+E(xc)   XCENC  =       588.27967243
  PAW double counting   =     26782.38058570   -26781.46949538
  entropy T*S    EENTRO =        -0.01182144
  eigenvalues    EBANDS =     -3210.15792281
  atomic energy  EATOM  =      9596.15507312
  ---------------------------------------------------
  free energy    TOTEN  =      -611.12193396 eV

  energy without entropy =     -611.11011252  energy(sigma->0) =     -611.11602324
  exchange ACFDT corr.  =        -0.00838595  see jH, gK, PRB 81, 115126


--------------------------------------------------------------------------------------------------------




--------------------------------------- Iteration      1(  11)  ---------------------------------------


    POTLOK:  cpu time    1.1245: real time    1.1316
    SETDIJ:  cpu time    1.1696: real time    1.1725
    TRIAL :  cpu time  189.5099: real time  190.1959
    CORREC:  cpu time    0.0009: real time    0.0009
    CHARGE:  cpu time    0.9106: real time    0.9131
    --------------------------------------------
      LOOP:  cpu time  192.7169: real time  193.4200

 eigenvalue-minimisations  :     0
 total energy-change (2. order) :-0.3645249E-01  (-0.3187894E-01)
 number of electron     243.0000002 magnetization       0.9280149
 augmentation part       12.1469346 magnetization      -0.4828982

 DIPCOR: dipole corrections for dipol
 direction  3 min pos     1,
 dipolmoment           0.000003     -0.000001     -0.003364 electrons x Angstroem
 Tr[quadrupol]     -6440.645971

 energy correction for charged system         0.000000 eV
 dipol+quadrupol energy correction            0.000000 eV
 added-field ion interaction          0.000000 eV  (added to PSCEN)


 Free energy of the ion-electron system (eV)
  ---------------------------------------------------
  alpha Z        PSCENC =        99.78240126
  Ewald energy   TEWEN  =     38786.19509760
  -Hartree energ DENC   =    -47024.68961001
  -exchange      EXHF   =       552.26839707
  -V(xc)+E(xc)   XCENC  =       588.34278421
  PAW double counting   =     26786.06921939   -26785.22532771
  entropy T*S    EENTRO =        -0.01074914
  eigenvalues    EBANDS =     -3210.04459994
  atomic energy  EATOM  =      9596.15507312
  ---------------------------------------------------
  free energy    TOTEN  =      -611.15838645 eV

  energy without entropy =     -611.14763731  energy(sigma->0) =     -611.15301188
  exchange ACFDT corr.  =        -0.00733887  see jH, gK, PRB 81, 115126


--------------------------------------------------------------------------------------------------------




--------------------------------------- Iteration      1(  12)  ---------------------------------------


    POTLOK:  cpu time    1.1201: real time    1.1252
    SETDIJ:  cpu time    1.1923: real time    1.1961
    TRIAL :  cpu time  189.4736: real time  190.1848
    CORREC:  cpu time    0.0009: real time    0.0009
    CHARGE:  cpu time    0.9094: real time    0.9119
    --------------------------------------------
      LOOP:  cpu time  192.6980: real time  193.4258

 eigenvalue-minimisations  :     0
 total energy-change (2. order) :-0.2962928E-01  (-0.2589110E-01)
 number of electron     243.0000002 magnetization       0.9354918
 augmentation part       12.1500395 magnetization      -0.4917095

 DIPCOR: dipole corrections for dipol
 direction  3 min pos     1,
 dipolmoment           0.000003     -0.000001     -0.003005 electrons x Angstroem
 Tr[quadrupol]     -6440.648865

 energy correction for charged system         0.000000 eV
 dipol+quadrupol energy correction            0.000000 eV
 added-field ion interaction          0.000000 eV  (added to PSCEN)


 Free energy of the ion-electron system (eV)
  ---------------------------------------------------
  alpha Z        PSCENC =        99.78240119
  Ewald energy   TEWEN  =     38786.19509760
  -Hartree energ DENC   =    -47024.82494917
  -exchange      EXHF   =       552.36346850
  -V(xc)+E(xc)   XCENC  =       588.39707115
  PAW double counting   =     26788.58238847   -26787.78249394
  entropy T*S    EENTRO =        -0.00986752
  eigenvalues    EBANDS =     -3210.04532350
  atomic energy  EATOM  =      9596.15507312
  ---------------------------------------------------
  free energy    TOTEN  =      -611.18801573 eV

  energy without entropy =     -611.17814821  energy(sigma->0) =     -611.18308197
  exchange ACFDT corr.  =        -0.00650189  see jH, gK, PRB 81, 115126


--------------------------------------------------------------------------------------------------------




--------------------------------------- Iteration      1(  13)  ---------------------------------------


    POTLOK:  cpu time    1.1195: real time    1.1235
    SETDIJ:  cpu time    1.1956: real time    1.1988
    TRIAL :  cpu time  189.6875: real time  190.3774
    CORREC:  cpu time    0.0012: real time    0.0012
    CHARGE:  cpu time    0.9111: real time    0.9135
    --------------------------------------------
      LOOP:  cpu time  192.9164: real time  193.6200

 eigenvalue-minimisations  :     0
 total energy-change (2. order) :-0.2414957E-01  (-0.2105913E-01)
 number of electron     243.0000002 magnetization       0.9414840
 augmentation part       12.1531567 magnetization      -0.4994129

 DIPCOR: dipole corrections for dipol
 direction  3 min pos     1,
 dipolmoment           0.000002     -0.000000     -0.002744 electrons x Angstroem
 Tr[quadrupol]     -6440.651516

 energy correction for charged system         0.000000 eV
 dipol+quadrupol energy correction            0.000000 eV
 added-field ion interaction          0.000000 eV  (added to PSCEN)


 Free energy of the ion-electron system (eV)
  ---------------------------------------------------
  alpha Z        PSCENC =        99.78240115
  Ewald energy   TEWEN  =     38786.19509760
  -Hartree energ DENC   =    -47024.94096234
  -exchange      EXHF   =       552.44760974
  -V(xc)+E(xc)   XCENC  =       588.44521314
  PAW double counting   =     26790.90663216   -26790.13900677
  entropy T*S    EENTRO =        -0.00914090
  eigenvalues    EBANDS =     -3210.05435558
  atomic energy  EATOM  =      9596.15507312
  ---------------------------------------------------
  free energy    TOTEN  =      -611.21216530 eV

  energy without entropy =     -611.20302440  energy(sigma->0) =     -611.20759485
  exchange ACFDT corr.  =        -0.00583296  see jH, gK, PRB 81, 115126


--------------------------------------------------------------------------------------------------------




--------------------------------------- Iteration      1(  14)  ---------------------------------------


    POTLOK:  cpu time    1.1187: real time    1.1243
    SETDIJ:  cpu time    1.1686: real time    1.1718
    TRIAL :  cpu time  189.1062: real time  189.8175
    CORREC:  cpu time    0.0009: real time    0.0009
    CHARGE:  cpu time    0.9102: real time    0.9126
    --------------------------------------------
      LOOP:  cpu time  192.3061: real time  193.0332

 eigenvalue-minimisations  :     0
 total energy-change (2. order) :-0.1970877E-01  (-0.1715686E-01)
 number of electron     243.0000002 magnetization       0.9463007
 augmentation part       12.1565001 magnetization      -0.5059323

 DIPCOR: dipole corrections for dipol
 direction  3 min pos     1,
 dipolmoment           0.000002     -0.000000     -0.002465 electrons x Angstroem
 Tr[quadrupol]     -6440.654395

 energy correction for charged system         0.000000 eV
 dipol+quadrupol energy correction            0.000000 eV
 added-field ion interaction          0.000000 eV  (added to PSCEN)


 Free energy of the ion-electron system (eV)
  ---------------------------------------------------
  alpha Z        PSCENC =        99.78240111
  Ewald energy   TEWEN  =     38786.19509760
  -Hartree energ DENC   =    -47025.08746561
  -exchange      EXHF   =       552.52280160
  -V(xc)+E(xc)   XCENC  =       588.48825365
  PAW double counting   =     26793.48642978   -26792.75182697
  entropy T*S    EENTRO =        -0.00854259
  eigenvalues    EBANDS =     -3210.01349744
  atomic energy  EATOM  =      9596.15507312
  ---------------------------------------------------
  free energy    TOTEN  =      -611.23187407 eV

  energy without entropy =     -611.22333148  energy(sigma->0) =     -611.22760277
  exchange ACFDT corr.  =        -0.00529551  see jH, gK, PRB 81, 115126


--------------------------------------------------------------------------------------------------------




--------------------------------------- Iteration      1(  15)  ---------------------------------------


    POTLOK:  cpu time    1.1240: real time    1.1361
    SETDIJ:  cpu time    1.1692: real time    1.1724
    TRIAL :  cpu time  190.3631: real time  191.0833
    CORREC:  cpu time    0.0009: real time    0.0009
    CHARGE:  cpu time    0.9078: real time    0.9103
    --------------------------------------------
      LOOP:  cpu time  193.5672: real time  194.3093

 eigenvalue-minimisations  :     0
 total energy-change (2. order) :-0.1610070E-01  (-0.1399520E-01)
 number of electron     243.0000002 magnetization       0.9501640
 augmentation part       12.1596444 magnetization      -0.5116027

 DIPCOR: dipole corrections for dipol
 direction  3 min pos     1,
 dipolmoment           0.000002     -0.000000     -0.002186 electrons x Angstroem
 Tr[quadrupol]     -6440.657367

 energy correction for charged system         0.000000 eV
 dipol+quadrupol energy correction            0.000000 eV
 added-field ion interaction          0.000000 eV  (added to PSCEN)


 Free energy of the ion-electron system (eV)
  ---------------------------------------------------
  alpha Z        PSCENC =        99.78240107
  Ewald energy   TEWEN  =     38786.19509760
  -Hartree energ DENC   =    -47025.26067442
  -exchange      EXHF   =       552.59009023
  -V(xc)+E(xc)   XCENC  =       588.52664826
  PAW double counting   =     26796.39996095   -26795.70136940
  entropy T*S    EENTRO =        -0.00805307
  eigenvalues    EBANDS =     -3209.92665959
  atomic energy  EATOM  =      9596.15507312
  ---------------------------------------------------
  free energy    TOTEN  =      -611.24797477 eV

  energy without entropy =     -611.23992171  energy(sigma->0) =     -611.24394824
  exchange ACFDT corr.  =        -0.00486267  see jH, gK, PRB 81, 115126


--------------------------------------------------------------------------------------------------------




--------------------------------------- Iteration      1(  16)  ---------------------------------------


    POTLOK:  cpu time    1.1156: real time    1.1205
    SETDIJ:  cpu time    1.1714: real time    1.1747
    TRIAL :  cpu time  190.0305: real time  190.7245
    CORREC:  cpu time    0.0010: real time    0.0010
    CHARGE:  cpu time    0.9065: real time    0.9360
    --------------------------------------------
      LOOP:  cpu time  193.2260: real time  193.9624

 eigenvalue-minimisations  :     0
 total energy-change (2. order) :-0.1316257E-01  (-0.1143644E-01)
 number of electron     243.0000002 magnetization       0.9532497
 augmentation part       12.1622433 magnetization      -0.5167255

 DIPCOR: dipole corrections for dipol
 direction  3 min pos     1,
 dipolmoment           0.000002     -0.000000     -0.001980 electrons x Angstroem
 Tr[quadrupol]     -6440.660007

 energy correction for charged system         0.000000 eV
 dipol+quadrupol energy correction            0.000000 eV
 added-field ion interaction          0.000000 eV  (added to PSCEN)


 Free energy of the ion-electron system (eV)
  ---------------------------------------------------
  alpha Z        PSCENC =        99.78240105
  Ewald energy   TEWEN  =     38786.19509760
  -Hartree energ DENC   =    -47025.42734898
  -exchange      EXHF   =       552.65015724
  -V(xc)+E(xc)   XCENC  =       588.56066382
  PAW double counting   =     26799.47568072   -26798.81145269
  entropy T*S    EENTRO =        -0.00765578
  eigenvalues    EBANDS =     -3209.83335614
  atomic energy  EATOM  =      9596.15507312
  ---------------------------------------------------
  free energy    TOTEN  =      -611.26113734 eV

  energy without entropy =     -611.25348156  energy(sigma->0) =     -611.25730945
  exchange ACFDT corr.  =        -0.00451492  see jH, gK, PRB 81, 115126


--------------------------------------------------------------------------------------------------------




--------------------------------------- Iteration      1(  17)  ---------------------------------------


    POTLOK:  cpu time    1.1163: real time    1.1205
    SETDIJ:  cpu time    1.1827: real time    1.1863
    TRIAL :  cpu time  189.9062: real time  190.5935
    CORREC:  cpu time    0.0009: real time    0.0009
    CHARGE:  cpu time    0.9088: real time    0.9111
    --------------------------------------------
      LOOP:  cpu time  193.1171: real time  193.8184

 eigenvalue-minimisations  :     0
 total energy-change (2. order) :-0.1077775E-01  (-0.9369314E-02)
 number of electron     243.0000002 magnetization       0.9557074
 augmentation part       12.1642986 magnetization      -0.5214046

 DIPCOR: dipole corrections for dipol
 direction  3 min pos     1,
 dipolmoment           0.000002     -0.000000     -0.001877 electrons x Angstroem
 Tr[quadrupol]     -6440.661973

 energy correction for charged system         0.000000 eV
 dipol+quadrupol energy correction            0.000000 eV
 added-field ion interaction          0.000000 eV  (added to PSCEN)


 Free energy of the ion-electron system (eV)
  ---------------------------------------------------
  alpha Z        PSCENC =        99.78240103
  Ewald energy   TEWEN  =     38786.19509760
  -Hartree energ DENC   =    -47025.55865004
  -exchange      EXHF   =       552.70351149
  -V(xc)+E(xc)   XCENC  =       588.59052454
  PAW double counting   =     26802.46711232   -26801.83177616
  entropy T*S    EENTRO =        -0.00733534
  eigenvalues    EBANDS =     -3209.76755320
  atomic energy  EATOM  =      9596.15507312
  ---------------------------------------------------
  free energy    TOTEN  =      -611.27191509 eV

  energy without entropy =     -611.26457975  energy(sigma->0) =     -611.26824742
  exchange ACFDT corr.  =        -0.00423671  see jH, gK, PRB 81, 115126


--------------------------------------------------------------------------------------------------------




[...]
  augment    37.94824    41.25549    40.04160     0.07350    -0.20702     1.10918
  Kinetic  3616.72736  3655.09611  4162.31047     9.21601    -0.21512     0.58643
  Fock     -305.09054  -306.57769  -278.31714     0.67073     0.01638    -1.50356
  -------------------------------------------------------------------------------------
  Total     -40.82644   -44.11605    -0.42666     0.73108    -0.17596     0.54408
  in kB     -20.58973   -22.24876    -0.21517     0.36870    -0.08874     0.27439
  external pressure =      -14.35 kB  Pullay stress =        0.00 kB


 VOLUME and BASIS-vectors are now :
 -----------------------------------------------------------------------------
  energy-cutoff  :      500.00
  volume of cell :     3176.89
      direct lattice vectors                 reciprocal lattice vectors
    12.688400000  0.000000000  0.000000000     0.078812143 -0.000555449  0.000069147
     0.088565543 12.566487910  0.000000000     0.000000000  0.079576729 -0.000013686
    -0.017456691  0.003426670 19.924192058     0.000000000  0.000000000  0.050190241

  length of vectors
    12.688400000 12.566800000 19.924200000     0.078814131  0.079576730  0.050190241


 FORCES acting on ions:
    Electron-Ion                     Ewald-Force                    Non-Local-Force
 -----------------------------------------------------------------------------------------------
   0.567E+01 0.231E+01 -.116E+01   -.586E+01 -.261E+01 0.114E+01   0.109E+00 0.301E+00 0.280E-01
   0.512E+01 -.239E+00 0.115E+01   -.529E+01 0.159E+00 -.114E+01   0.201E+00 0.976E-01 -.479E-03
   0.126E+02 -.147E+01 -.791E+00   -.127E+02 0.153E+01 0.800E+00   0.118E+00 -.633E-02 -.578E-02
   0.566E+01 0.590E+01 -.293E+01   -.570E+01 -.627E+01 0.302E+01   0.186E-01 0.435E+00 -.885E-01
   0.148E+02 0.101E+02 -.217E+01   -.156E+02 -.110E+02 0.214E+01   0.623E+00 0.693E+00 0.335E-02
   0.175E+02 -.688E+01 0.170E+01   -.180E+02 0.730E+01 -.170E+01   0.453E+00 -.315E+00 -.593E-02
   0.201E+02 -.226E+01 0.250E+01   -.207E+02 0.231E+01 -.259E+01   0.642E+00 -.849E-01 0.958E-01
   0.175E+02 0.202E+02 -.557E+01   -.197E+02 -.231E+02 0.556E+01   0.238E+01 0.294E+01 0.635E-02
   0.106E+02 -.932E+00 0.785E+00   -.105E+02 0.847E+00 -.763E+00   -.364E-01 -.130E-01 -.268E-01
   0.345E+02 -.165E+02 0.439E+01   -.381E+02 0.171E+02 -.428E+01   0.348E+01 -.606E+00 -.894E-01
   0.119E+02 0.640E+01 -.153E+01   -.123E+02 -.667E+01 0.152E+01   0.313E+00 0.234E+00 0.239E-01
   0.456E+02 0.209E+02 -.311E+01   -.488E+02 -.212E+02 0.307E+01   0.325E+01 0.426E+00 0.444E-01
   -.477E+01 -.261E+02 -.651E+01   0.584E+01 0.288E+02 0.655E+01   -.100E+01 -.258E+01 -.425E-01
   0.680E+01 -.964E+01 -.531E+01   -.659E+01 0.998E+01 0.532E+01   -.161E+00 -.326E+00 -.229E-01
   0.117E+01 0.306E-01 -.173E+01   -.129E+01 0.145E-01 0.172E+01   0.927E-01 -.103E+00 0.230E-02
   0.160E+02 -.162E+01 -.407E+01   -.163E+02 0.170E+01 0.409E+01   0.250E+00 -.284E-01 -.292E-01
   0.704E+01 -.275E+01 -.228E+01   -.687E+01 0.285E+01 0.228E+01   -.938E-01 -.117E+00 -.186E-02
   -.889E+01 -.235E+01 0.471E+01   0.871E+01 0.227E+01 -.469E+01   0.834E-01 0.118E+00 -.561E-02
   -.197E+01 0.775E+01 0.106E+01   0.220E+01 -.831E+01 -.109E+01   -.170E+00 0.543E+00 0.401E-01
   -.160E+01 0.146E+01 0.357E+01   0.195E+01 -.171E+01 -.360E+01   -.248E+00 0.287E+00 0.316E-01
   -.642E+01 0.317E+01 0.529E+01   0.622E+01 -.355E+01 -.532E+01   0.104E+00 0.406E+00 0.319E-01
   0.360E+01 0.560E+01 0.237E+01   -.455E+01 -.829E+01 -.249E+01   0.102E+01 0.263E+01 0.137E+00
   -.260E+02 0.126E+02 -.366E+01   0.278E+02 -.157E+02 0.349E+01   -.185E+01 0.315E+01 0.169E+00
   -.197E+02 -.740E+01 0.101E+02   0.224E+02 0.106E+02 -.103E+02   -.228E+01 -.352E+01 0.173E+00
   0.124E+02 -.253E+02 0.140E+01   -.146E+02 0.286E+02 -.125E+01   0.194E+01 -.315E+01 -.147E+00
   -.164E+02 -.674E+01 0.696E+01   0.171E+02 0.766E+01 -.698E+01   -.628E+00 -.885E+00 0.418E-02
   -.788E+01 -.738E+01 0.662E+01   0.798E+01 0.795E+01 -.670E+01   -.147E-01 -.481E+00 0.788E-01
   -.137E+01 -.373E+01 -.233E+00   0.107E+01 0.393E+01 0.256E+00   0.209E+00 -.244E+00 -.270E-01
   -.202E+01 -.105E+02 0.148E+01   0.178E+01 0.110E+02 -.146E+01   0.107E+00 -.517E+00 -.337E-01
   -.627E+01 -.348E+01 0.457E+01   0.634E+01 0.370E+01 -.456E+01   -.111E+00 -.320E+00 -.155E-01
   -.678E+01 -.920E+00 0.116E+01   0.672E+01 0.968E+00 -.115E+01   0.611E-02 -.277E-01 -.421E-02
   -.136E+02 -.379E+01 0.369E+01   0.139E+02 0.375E+01 -.369E+01   -.246E+00 0.746E-01 0.895E-02
   0.812E+00 -.221E+01 0.277E+01   -.683E+00 0.213E+01 -.277E+01   -.876E-01 0.982E-01 0.186E-02
   0.917E+01 -.597E+01 0.116E+01   -.932E+01 0.612E+01 -.117E+01   0.125E+00 -.120E+00 0.826E-02
   -.187E+01 -.798E+01 0.471E+00   0.208E+01 0.824E+01 -.467E+00   -.228E+00 -.295E+00 -.795E-02
   -.289E+02 -.248E+02 -.156E+00   0.321E+02 0.253E+02 0.142E+00   -.328E+01 -.420E+00 0.267E-01
   -.634E+01 -.100E+02 0.134E+01   0.670E+01 0.102E+02 -.134E+01   -.325E+00 -.222E+00 -.181E-01
   0.712E+01 -.552E+01 -.565E-01   -.733E+01 0.594E+01 0.728E-01   0.203E+00 -.336E+00 -.179E-01
   0.838E+01 -.452E+01 -.386E+00   -.852E+01 0.462E+01 0.375E+00   0.188E+00 -.123E+00 0.125E-01
   -.256E+02 0.257E+02 -.276E+01   0.294E+02 -.263E+02 0.269E+01   -.385E+01 0.620E+00 0.836E-01
   0.397E+00 0.531E+01 -.271E+01   -.424E+00 -.524E+01 0.274E+01   0.281E-01 -.268E-01 -.237E-01
   -.194E+01 0.657E+01 -.121E+00   0.209E+01 -.672E+01 0.130E+00   -.206E+00 0.160E+00 -.107E-01
   -.362E+01 0.826E+01 0.279E+00   0.391E+01 -.863E+01 -.287E+00   -.260E+00 0.328E+00 0.463E-03
   -.171E+02 0.385E+01 0.105E+01   0.177E+02 -.400E+01 -.967E+00   -.589E+00 0.522E-01 -.892E-01
   -.133E+02 0.827E+01 0.890E+00   0.138E+02 -.854E+01 -.896E+00   -.520E+00 0.299E+00 0.246E-02
   0.679E+01 0.644E+01 0.184E+00   -.697E+01 -.672E+01 -.206E+00   0.199E+00 0.263E+00 0.195E-01
   -.623E+01 0.452E+01 -.388E-01   0.634E+01 -.466E+01 0.493E-01   -.114E+00 0.129E+00 -.141E-01
   -.119E+02 -.811E+00 0.304E+01   0.120E+02 0.753E+00 -.305E+01   -.775E-01 -.165E-01 0.761E-02
   -.324E+01 0.627E-01 0.107E+01   0.339E+01 0.967E-01 -.107E+01   -.163E+00 -.874E-01 -.396E-02
   0.892E+01 -.107E+01 0.205E+00   -.889E+01 0.102E+01 -.214E+00   0.255E-02 0.232E-01 0.116E-01
   0.176E+02 -.525E+02 0.187E+02   -.777E+01 0.705E+02 -.199E+02   -.960E+01 -.174E+02 0.134E+01
   0.314E+01 0.544E+02 -.160E+02   0.923E+01 -.752E+02 0.164E+02   -.118E+02 0.196E+02 -.481E+00
   -.579E+02 -.578E+02 -.330E+02   0.680E+02 0.753E+02 0.347E+02   -.101E+02 -.167E+02 -.163E+01
   0.274E+02 -.870E+02 -.904E+00   -.395E+02 0.107E+03 0.114E+01   0.115E+02 -.189E+02 -.136E+00
   0.978E+01 0.930E+02 -.170E+02   -.198E+02 -.112E+03 0.183E+02   0.962E+01 0.188E+02 -.131E+01
   0.614E+01 0.442E+02 0.262E+02   -.150E+02 -.591E+02 -.277E+02   0.882E+01 0.140E+02 0.155E+01
   -.697E+01 0.250E+02 0.844E+02   -.290E+01 -.204E+02 -.844E+02   0.653E+01 -.307E+01 -.517E+00
   -.486E+02 0.202E+02 -.911E+02   0.538E+02 -.241E+02 0.905E+02   -.158E+01 0.239E+01 0.965E+00
 -----------------------------------------------------------------------------------------------
   -.308E+01 0.208E+01 -.700E-01   -.327E-12 -.554E-12 -.142E-13   0.305E+01 -.207E+01 0.101E+00
 
 
 POSITION                                       TOTAL-FORCE (eV/Angst)
 -----------------------------------------------------------------------------------
      2.88594     12.54014      9.96965        -0.074028      0.021698      0.010348
      0.68692      1.24547      9.95899         0.033559      0.026342      0.005254
      1.47216     12.55567      9.96637         0.104535      0.051716      0.003132
      3.50867      1.19479      9.97545        -0.024866      0.084326     -0.000469
      2.81121      2.42789      9.97293        -0.055617     -0.152656     -0.023029
      0.74307      3.76712      9.95327        -0.034660      0.088050     -0.003343
      1.39810      2.48320      9.95673         0.105688     -0.038676      0.010310
      3.55366      3.62702      9.98193         0.347131      0.239684     -0.000051
      0.85692      6.25474      9.95631        -0.002409     -0.102418     -0.005765
      1.54732      4.97231      9.94170         0.027243     -0.064807      0.007140
      0.79965      8.78514      9.96860        -0.022965     -0.021498      0.017361
      1.56200      7.55258      9.96991         0.273605      0.123231      0.003087
      3.58605      8.83505      9.97271         0.008383      0.007966     -0.007829
      2.89514     10.07105      9.97708         0.036169     -0.014848     -0.013736
      0.77828     11.30273      9.96833        -0.030356     -0.062100     -0.001701
      1.47794     10.05231      9.97538         0.043469      0.048892     -0.011586
      3.59430     11.30714      9.96955         0.078301     -0.022512     -0.002858
      7.13371     12.55597      9.94390        -0.093719      0.042163      0.005981
      4.92752      1.19522      9.96933         0.060537      0.016941      0.019403
      5.72322     12.53610      9.95244         0.088740      0.052771      0.010997
      7.74352      1.23045      9.94901        -0.091525      0.046129      0.012916
      7.04847      2.46252      9.97083         0.124930      0.082044      0.019975
      5.61524      2.42373      9.99312        -0.146938      0.223167      0.010472
      7.09248      7.66302      9.93613         0.305792     -0.476454      0.053628
      5.02165      8.84895      9.94190        -0.137110      0.050975     -0.007168
      7.82677      8.86830      9.93483         0.036242     -0.016741     -0.014300
      7.12994     10.09953      9.93302         0.088228      0.055831      0.002948
      5.00519     11.31163      9.95809        -0.081920     -0.053362     -0.005724
      5.71061     10.08125      9.94609        -0.130983     -0.067212     -0.018937
      7.84051     11.32342      9.93858        -0.048901     -0.115612     -0.003773
     11.27095      0.00219      9.95464        -0.060921      0.022200      0.001495
      9.16134      1.25498      9.94930         0.019645      0.030751      0.007120
      9.85915      0.00386      9.94790         0.049249      0.020969      0.002147
     11.95691      1.26308      9.95664         0.000383      0.021448      0.001606
     11.26808      2.53240      9.95931        -0.034453     -0.044657     -0.003674
      9.07192      3.76193      9.97297        -0.347580      0.000650      0.014824
      9.83694      2.52753      9.95963         0.023694     -0.097301     -0.014791
     11.98764      3.78818      9.96066         0.009435      0.067197     -0.002345
     11.27143      5.04055      9.96554         0.070393     -0.032071      0.002445
      9.12510      6.34076      9.98041        -0.262867      0.091913      0.018075
      9.79542      5.05035      9.97709         0.005281      0.044810      0.002316
     12.06979      6.26420      9.96193        -0.073490      0.020143     -0.002009
     11.35548      7.52093      9.96161         0.010701     -0.020993     -0.006564
      9.24418      8.81917      9.95212        -0.074979     -0.085230     -0.008494
      9.91691      7.54411      9.96187        -0.009467      0.042612     -0.002673
     12.06226      8.77941      9.96181         0.034661     -0.005848     -0.001468
     11.36916     10.04489      9.95884        -0.016797      0.004617     -0.004261
      9.25411     11.31476      9.94435        -0.005077     -0.074316     -0.000068
      9.95093     10.05990      9.95180        -0.010370      0.065092     -0.005256
     12.05516     11.30534      9.95999         0.045721     -0.027581      0.003857
      2.95883      4.86310      9.91951        -0.621265     -0.926287      0.188173
      2.93332      7.62685      9.98132        -0.448983      0.491527     -0.101616
      4.92045      3.61047     10.04342        -0.930927     -0.699313     -0.128353
      7.68729      3.68815      9.98422         0.365252     -0.420367      0.085860
      7.72824      6.44877     10.00515         0.425805      0.993151     -0.067754
      5.70796      7.64351      9.89942         0.675991      0.242749      0.146576
      4.41555      6.17208      9.84807        -1.692075      0.834836     -0.250908
      6.14754      5.19881     10.17070         2.066482     -0.613730      0.053060
 -----------------------------------------------------------------------------------
    total drift:                               -0.000023     -0.009317     -0.012656


--------------------------------------------------------------------------------------------------------



  FREE ENERGIE OF THE ION-ELECTRON SYSTEM (eV)
  ---------------------------------------------------
  free  energy   TOTEN  =      -611.32774769 eV

  energy  without entropy=     -611.32119638  energy(sigma->0) =     -611.32447203
 


--------------------------------------------------------------------------------------------------------


    POTLOK:  cpu time    2.2827: real time    2.2893


--------------------------------------------------------------------------------------------------------


 stress matrix after NEB project (eV)
    -40.82644      0.73160      0.54408
      0.73108    -44.11605     -0.17580
      0.54424     -0.17596     -0.42666
  FORCES: max atom, RMS     2.156346    0.501559
  FORCE total and by dimension    3.819763    2.066482
  Stress total and by dimension   60.124292   44.116052
 writing wavefunctions
     LOOP+:  cpu time10460.1207: real time10504.9924
    4ORBIT:  cpu time    0.0000: real time    0.0000
 


 total charge     
 
# of ion       s       p       d       tot
------------------------------------------
    1        0.872   1.795   0.000   2.667
    2        0.866   1.773   0.000   2.639
    3        0.866   1.770   0.000   2.636
    4        0.873   1.789   0.000   2.662
    5        0.873   1.814   0.000   2.687
    6        0.857   1.743   0.000   2.600
    7        0.867   1.766   0.000   2.633
    8        0.864   1.726   0.000   2.591
    9        0.840   1.709   0.000   2.550
   10        0.844   1.676   0.000   2.520
   11        0.862   1.758   0.000   2.620
   12        0.850   1.689   0.000   2.539
   13        0.862   1.758   0.000   2.620
   14        0.872   1.794   0.000   2.666
   15        0.867   1.779   0.000   2.646
   16        0.867   1.762   0.000   2.629
   17        0.869   1.796   0.000   2.666
   18        0.868   1.796   0.000   2.665
   19        0.873   1.806   0.000   2.679
   20        0.872   1.798   0.000   2.669
   21        0.871   1.792   0.000   2.663
   22        0.862   1.753   0.000   2.615
   23        0.865   1.761   0.000   2.626
   24        0.860   1.718   0.000   2.578
   25        0.861   1.751   0.000   2.612
   26        0.872   1.811   0.000   2.683
   27        0.872   1.791   0.000   2.663
   28        0.871   1.795   0.000   2.666
   29        0.871   1.799   0.000   2.670
   30        0.872   1.794   0.000   2.666
   31        0.866   1.766   0.000   2.631
   32        0.866   1.760   0.000   2.626
   33        0.866   1.778   0.000   2.644
   34        0.864   1.760   0.000   2.624
   35        0.859   1.744   0.000   2.603
   36        0.847   1.678   0.000   2.524
   37        0.860   1.748   0.000   2.609
   38        0.856   1.737   0.000   2.593
   39        0.850   1.705   0.000   2.555
   40        0.847   1.692   0.000   2.539
   41        0.840   1.711   0.000   2.551
   42        0.849   1.703   0.000   2.552
   43        0.857   1.742   0.000   2.599
   44        0.866   1.764   0.000   2.629
   45        0.859   1.751   0.000   2.610
   46        0.861   1.751   0.000   2.612
   47        0.864   1.761   0.000   2.625
   48        0.866   1.770   0.000   2.636
   49        0.866   1.773   0.000   2.640
   50        0.866   1.766   0.000   2.632
   51        1.228   2.668   0.000   3.896
   52        1.237   2.668   0.000   3.905
   53        1.234   2.705   0.000   3.939
   54        1.233   2.650   0.000   3.883
   55        1.232   2.681   0.000   3.914
   56        1.219   2.687   0.000   3.906
   57        0.440   0.488   6.338   7.266
   58        0.464   0.638   3.689   4.791
--------------------------------------------------
tot         51.425 105.107  10.028 166.560
 


 magnetization (x)
 
# of ion       s       p       d       tot
------------------------------------------
    1        0.000   0.004   0.000   0.004
    2       -0.000   0.002   0.000   0.002
    3        0.000   0.006   0.000   0.007
    4        0.001   0.013   0.000   0.013
    5       -0.000   0.004   0.000   0.004
    6        0.000   0.011   0.000   0.012
    7       -0.000   0.002   0.000   0.002
    8        0.002   0.020   0.000   0.023
    9        0.000   0.009   0.000   0.010
   10        0.001   0.010   0.000   0.011
   11        0.000   0.011   0.000   0.011
   12       -0.001   0.005   0.000   0.004
   13        0.000   0.004   0.000   0.004
   14       -0.000   0.002   0.000   0.001
   15        0.000   0.010   0.000   0.011
   16        0.000   0.006   0.000   0.006
   17        0.000   0.003   0.000   0.003
   18        0.000   0.008   0.000   0.008
   19       -0.001  -0.007   0.000  -0.007
   20        0.000   0.008   0.000   0.008
   21       -0.000  -0.001   0.000  -0.002
   22        0.001   0.008   0.000   0.009
   23        0.003   0.034   0.000   0.037
   24        0.004   0.031   0.000   0.035
   25        0.003   0.032   0.000   0.035
   26       -0.000   0.003   0.000   0.003
   27        0.001   0.019   0.000   0.020
   28        0.001   0.010   0.000   0.011
   29       -0.001  -0.007   0.000  -0.007
   30       -0.000  -0.000   0.000  -0.001
   31        0.001   0.012   0.000   0.012
   32        0.001   0.013   0.000   0.014
   33       -0.000   0.005   0.000   0.005
   34       -0.000   0.002   0.000   0.002
   35        0.000   0.008   0.000   0.009
   36        0.001   0.020   0.000   0.021
   37       -0.000   0.001   0.000   0.001
   38        0.001   0.014   0.000   0.014
   39       -0.000   0.001   0.000   0.001
   40        0.002   0.025   0.000   0.027
   41        0.000   0.007   0.000   0.007
   42       -0.001  -0.005   0.000  -0.006
   43        0.001   0.020   0.000   0.021
   44        0.001   0.013   0.000   0.014
   45       -0.001   0.001   0.000  -0.000
   46       -0.000   0.003   0.000   0.002
   47        0.000   0.009   0.000   0.010
   48        0.001   0.012   0.000   0.013
   49       -0.001  -0.005   0.000  -0.006
   50       -0.000   0.003   0.000   0.003
   51        0.002   0.018   0.000   0.020
   52       -0.006   0.029   0.000   0.023
   53       -0.011  -0.036   0.000  -0.047
   54        0.000   0.036   0.000   0.036
   55       -0.006  -0.039   0.000  -0.045
   56        0.003   0.029   0.000   0.032
   57       -0.014   0.036  -2.878  -2.856
   58        0.082   0.051   2.611   2.745
--------------------------------------------------
tot          0.071   0.543  -0.267   0.347
 

 total amount of memory used by VASP MPI-rank0   164770. kBytes
=======================================================================

   base      :      30000. kBytes
   nonl-proj :       4268. kBytes
   fftplans  :      11851. kBytes
   grid      :      31266. kBytes
   one-center:         62. kBytes
   HF        :         23. kBytes
   nonlr-proj:      25461. kBytes
   wavefun   :      61839. kBytes
 
  
  
 General timing and accounting informations for this job:
 ========================================================
  
                  Total CPU time used (sec):    10504.393
                            User time (sec):    10471.524
                          System time (sec):       32.869
                         Elapsed time (sec):    10555.788
  
                   Maximum memory used (kb):      396184.
                   Average memory used (kb):           0.
  
                          Minor page faults:       815417
                          Major page faults:          185
                 Voluntary context switches:       156110
