 vasp.5.4.4.18Apr17-6-g9f103f2a35 (build Feb 25 2019 10:51:38) complex          
  
 executed on             LinuxIFC date 2021.06.16  13:52:46
 running on   48 total cores
 distrk:  each k-point on   24 cores,    2 groups
 distr:  one band on NCORES_PER_BAND=  24 cores,    1 groups


--------------------------------------------------------------------------------------------------------


 INCAR:
 POTCAR:    PAW_PBE C 08Apr2002                   
 POTCAR:    PAW_PBE N 08Apr2002                   
 POTCAR:    PAW_PBE Co 02Aug2007                  
 POTCAR:    PAW_PBE Fe 06Sep2000                  

 ----------------------------------------------------------------------------- 
|                                                                             |
|           W    W    AA    RRRRR   N    N  II  N    N   GGGG   !!!           |
|           W    W   A  A   R    R  NN   N  II  NN   N  G    G  !!!           |
|           W    W  A    A  R    R  N N  N  II  N N  N  G       !!!           |
|           W WW W  AAAAAA  RRRRR   N  N N  II  N  N N  G  GGG   !            |
|           WW  WW  A    A  R   R   N   NN  II  N   NN  G    G                |
|           W    W  A    A  R    R  N    N  II  N    N   GGGG   !!!           |
|                                                                             |
|      For optimal performance we recommend to set                            |
|        NCORE= 4 - approx SQRT( number of cores)                             |
|      NCORE specifies how many cores store one orbital (NPAR=cpu/NCORE).     |
|      This setting can  greatly improve the performance of VASP for DFT.     |
|      The default,   NCORE=1            might be grossly inefficient         |
|      on modern multi-core architectures or massively parallel machines.     |
|      Do your own testing !!!!                                               |
|      Unfortunately you need to use the default for GW and RPA calculations. |
|      (for HF NCORE is supported but not extensively tested yet)             |
|                                                                             |
 ----------------------------------------------------------------------------- 


 ----------------------------------------------------------------------------- 
|                                                                             |
|           W    W    AA    RRRRR   N    N  II  N    N   GGGG   !!!           |
|           W    W   A  A   R    R  NN   N  II  NN   N  G    G  !!!           |
|           W    W  A    A  R    R  N N  N  II  N N  N  G       !!!           |
|           W WW W  AAAAAA  RRRRR   N  N N  II  N  N N  G  GGG   !            |
|           WW  WW  A    A  R   R   N   NN  II  N   NN  G    G                |
|           W    W  A    A  R    R  N    N  II  N    N   GGGG   !!!           |
|                                                                             |
|      You have enabled k-point parallelism (KPAR>1).                         |
|      This developmental code was originally  written by Paul Kent at ORNL,  |
|      and carefully double checked in Vienna.                                |
|      GW as well as linear response parallelism added by Martijn Marsman     |
|      and Georg Kresse.                                                      |
|      Carefully verify results versus KPAR=1.                                |
|      Report problems to Paul Kent and Vienna.                               |
|                                                                             |
 ----------------------------------------------------------------------------- 

 POTCAR:    PAW_PBE C 08Apr2002                   
   VRHFIN =C: s2p2                                                              
   LEXCH  = PE                                                                  
   EATOM  =   147.1560 eV,   10.8157 Ry                                         
                                                                                
   TITEL  = PAW_PBE C 08Apr2002                                                 
   LULTRA =        F    use ultrasoft PP ?                                      
   IUNSCR =        1    unscreen: 0-lin 1-nonlin 2-no                           
   RPACOR =    1.200    partial core radius                                     
   POMASS =   12.011; ZVAL   =    4.000    mass and valenz                      
   RCORE  =    1.500    outmost cutoff radius                                   
   RWIGS  =    1.630; RWIGS  =    0.863    wigner-seitz radius (au A)           
   ENMAX  =  400.000; ENMIN  =  300.000 eV                                      
   ICORE  =        2    local potential                                         
   LCOR   =        T    correct aug charges                                     
   LPAW   =        T    paw PP                                                  
   EAUG   =  644.873                                                            
   DEXC   =    0.000                                                            
   RMAX   =    1.529    core radius for proj-oper                               
   RAUG   =    1.300    factor for augmentation sphere                          
   RDEP   =    1.501    radius for radial grids                                 
   RDEPT  =    1.300    core radius for aug-charge                              
                                                                                
   Atomic configuration                                                         
    4 entries                                                                   
     n  l   j            E        occ.                                          
     1  0  0.50      -273.3789   2.0000                                         
     2  0  0.50       -13.7508   2.0000                                         
     2  1  0.50        -5.2854   2.0000                                         
     3  2  1.50        -5.4423   0.0000                                         
   Description                                                                  
     l       E           TYP  RCUT    TYP  RCUT                                 
     0    -13.7508458     23  1.200                                             
     0     -8.2022199     23  1.200                                             
     1     -5.2854383     23  1.500                                             
     1     34.0145650     23  1.500                                             
     2     -5.4423304      7  1.500                                             
  local pseudopotential read in
  partial core-charges read in
  partial kinetic energy density read in
  atomic valenz-charges read in
  non local Contribution for L=           0  read in
    real space projection operators read in
  non local Contribution for L=           0  read in
    real space projection operators read in
  non local Contribution for L=           1  read in
    real space projection operators read in
  non local Contribution for L=           1  read in
    real space projection operators read in
    PAW grid and wavefunctions read in
 
   number of l-projection  operators is LMAX  =           4
   number of lm-projection operators is LMMAX =           8
 
 POTCAR:    PAW_PBE N 08Apr2002                   
   VRHFIN =N: s2p3                                                              
   LEXCH  = PE                                                                  
   EATOM  =   264.5486 eV,   19.4438 Ry                                         
                                                                                
   TITEL  = PAW_PBE N 08Apr2002                                                 
   LULTRA =        F    use ultrasoft PP ?                                      
   IUNSCR =        1    unscreen: 0-lin 1-nonlin 2-no                           
   RPACOR =    1.200    partial core radius                                     
   POMASS =   14.001; ZVAL   =    5.000    mass and valenz                      
   RCORE  =    1.500    outmost cutoff radius                                   
   RWIGS  =    1.400; RWIGS  =    0.741    wigner-seitz radius (au A)           
   ENMAX  =  400.000; ENMIN  =  300.000 eV                                      
   ICORE  =        2    local potential                                         
   LCOR   =        T    correct aug charges                                     
   LPAW   =        T    paw PP                                                  
   EAUG   =  627.112                                                            
   DEXC   =    0.000                                                            
   RMAX   =    1.529    core radius for proj-oper                               
   RAUG   =    1.300    factor for augmentation sphere                          
   RDEP   =    1.514    radius for radial grids                                 
   RDEPT  =    1.338    core radius for aug-charge                              
                                                                                
   Atomic configuration                                                         
    4 entries                                                                   
     n  l   j            E        occ.                                          
     1  0  0.50      -384.7179   2.0000                                         
     2  0  0.50       -18.5828   2.0000                                         
     2  1  0.50        -7.0898   3.0000                                         
     3  2  1.50        -6.8029   0.0000                                         
   Description                                                                  
     l       E           TYP  RCUT    TYP  RCUT                                 
     0    -18.5828119     23  1.200                                             
     0    -13.5018863     23  1.200                                             
     1     -7.0897853     23  1.500                                             
     1      9.5240782     23  1.500                                             
     2     -6.8029130      7  1.500                                             
  local pseudopotential read in
  partial core-charges read in
  partial kinetic energy density read in
  atomic valenz-charges read in
  non local Contribution for L=           0  read in
    real space projection operators read in
  non local Contribution for L=           0  read in
    real space projection operators read in
  non local Contribution for L=           1  read in
    real space projection operators read in
  non local Contribution for L=           1  read in
    real space projection operators read in
    PAW grid and wavefunctions read in
 
   number of l-projection  operators is LMAX  =           4
   number of lm-projection operators is LMMAX =           8
 
 POTCAR:    PAW_PBE Co 02Aug2007                  
   VRHFIN =Co: d8 s1                                                            
   LEXCH  = PE                                                                  
   EATOM  =   813.3670 eV,   59.7808 Ry                                         
                                                                                
   TITEL  = PAW_PBE Co 02Aug2007                                                
   LULTRA =        F    use ultrasoft PP ?                                      
   IUNSCR =        1    unscreen: 0-lin 1-nonlin 2-no                           
   RPACOR =    2.000    partial core radius                                     
   POMASS =   58.933; ZVAL   =    9.000    mass and valenz                      
   RCORE  =    2.300    outmost cutoff radius                                   
   RWIGS  =    2.460; RWIGS  =    1.302    wigner-seitz radius (au A)           
   ENMAX  =  267.968; ENMIN  =  200.976 eV                                      
   RCLOC  =    1.203    cutoff for local pot                                    
   LCOR   =        T    correct aug charges                                     
   LPAW   =        T    paw PP                                                  
   EAUG   =  477.818                                                            
   DEXC   =    0.000                                                            
   RMAX   =    2.360    core radius for proj-oper                               
   RAUG   =    1.300    factor for augmentation sphere                          
   RDEP   =    2.393    radius for radial grids                                 
   RDEPT  =    1.864    core radius for aug-charge                              
                                                                                
   Atomic configuration                                                         
    9 entries                                                                   
     n  l   j            E        occ.                                          
     1  0  0.50     -7587.6674   2.0000                                         
     2  0  0.50      -893.6084   2.0000                                         
     2  1  1.50      -764.5805   6.0000                                         
     3  0  0.50       -97.5973   2.0000                                         
     3  1  1.50       -60.9648   6.0000                                         
     3  2  2.50        -4.2382   8.0000                                         
     4  0  0.50        -4.3746   1.0000                                         
     4  1  1.50        -4.0817   0.0000                                         
     4  3  2.50        -1.3606   0.0000                                         
   Description                                                                  
     l       E           TYP  RCUT    TYP  RCUT                                 
     2     -4.2382362     23  2.300                                             
     2     -5.5988188     23  2.300                                             
     0     -4.3745797     23  2.300                                             
     0      5.7660125     23  2.300                                             
     1     -2.7211652     23  2.300                                             
     1     16.9860234     23  2.300                                             
  local pseudopotential read in
  partial core-charges read in
  partial kinetic energy density read in
  atomic valenz-charges read in
  non local Contribution for L=           2  read in
    real space projection operators read in
  non local Contribution for L=           2  read in
    real space projection operators read in
  non local Contribution for L=           0  read in
    real space projection operators read in
  non local Contribution for L=           0  read in
    real space projection operators read in
  non local Contribution for L=           1  read in
    real space projection operators read in
  non local Contribution for L=           1  read in
    real space projection operators read in
    PAW grid and wavefunctions read in
 
   number of l-projection  operators is LMAX  =           6
   number of lm-projection operators is LMMAX =          18
 
 POTCAR:    PAW_PBE Fe 06Sep2000                  
   VRHFIN =Fe:  d7 s1                                                           
   LEXCH  = PE                                                                  
   EATOM  =   594.3153 eV,   43.6809 Ry                                         
                                                                                
   TITEL  = PAW_PBE Fe 06Sep2000                                                
   LULTRA =        F    use ultrasoft PP ?                                      
   IUNSCR =        1    unscreen: 0-lin 1-nonlin 2-no                           
   RPACOR =    2.000    partial core radius                                     
   POMASS =   55.847; ZVAL   =    8.000    mass and valenz                      
   RCORE  =    2.300    outmost cutoff radius                                   
   RWIGS  =    2.460; RWIGS  =    1.302    wigner-seitz radius (au A)           
   ENMAX  =  267.882; ENMIN  =  200.911 eV                                      
   RCLOC  =    1.701    cutoff for local pot                                    
   LCOR   =        T    correct aug charges                                     
   LPAW   =        T    paw PP                                                  
   EAUG   =  511.368                                                            
   DEXC   =    0.000                                                            
   RMAX   =    2.356    core radius for proj-oper                               
   RAUG   =    1.300    factor for augmentation sphere                          
   RDEP   =    2.442    radius for radial grids                                 
   RDEPT  =    1.890    core radius for aug-charge                              
                                                                                
   Atomic configuration                                                         
    9 entries                                                                   
     n  l   j            E        occ.                                          
     1  0  0.50     -6993.8440   2.0000                                         
     2  0  0.50      -814.6047   2.0000                                         
     2  1  1.50      -693.3689   6.0000                                         
     3  0  0.50       -89.4732   2.0000                                         
     3  1  1.50       -55.6373   6.0000                                         
     3  2  2.50        -3.8151   7.0000                                         
     4  0  0.50        -4.2551   1.0000                                         
     4  1  1.50        -3.4015   0.0000                                         
     4  3  2.50        -1.3606   0.0000                                         
   Description                                                                  
     l       E           TYP  RCUT    TYP  RCUT                                 
     2     -3.8151135     23  2.300                                             
     2     -5.1756961     23  2.300                                             
     0     -4.2550963     23  2.300                                             
     0      7.2035603     23  2.300                                             
     1     -2.7211652     23  2.300                                             
     1     18.4316424     23  2.300                                             
  local pseudopotential read in
  partial core-charges read in
  partial kinetic energy density read in
  atomic valenz-charges read in
  non local Contribution for L=           2  read in
    real space projection operators read in
  non local Contribution for L=           2  read in
    real space projection operators read in
  non local Contribution for L=           0  read in
    real space projection operators read in
  non local Contribution for L=           0  read in
    real space projection operators read in
  non local Contribution for L=           1  read in
    real space projection operators read in
  non local Contribution for L=           1  read in
    real space projection operators read in
    PAW grid and wavefunctions read in
 
   number of l-projection  operators is LMAX  =           6
   number of lm-projection operators is LMMAX =          18
 

 ----------------------------------------------------------------------------- 
|                                                                             |
|  ADVICE TO THIS USER RUNNING 'VASP/VAMP'   (HEAR YOUR MASTER'S VOICE ...):  |
|                                                                             |
|      You have a (more or less) 'large supercell' and for larger cells       |
|      it might be more efficient to use real space projection opertators     |
|      So try LREAL= Auto  in the INCAR   file.                               |
|      Mind:          For very  accurate calculation you might also keep the  |
|      reciprocal projection scheme          (i.e. LREAL=.FALSE.)             |
|                                                                             |
 ----------------------------------------------------------------------------- 

  PAW_PBE C 08Apr2002                   :
 energy of atom  1       EATOM= -147.1560
 kinetic energy error for atom=    0.0076 (will be added to EATOM!!)
  PAW_PBE N 08Apr2002                   :
 energy of atom  2       EATOM= -264.5486
 kinetic energy error for atom=    0.0138 (will be added to EATOM!!)
  PAW_PBE Co 02Aug2007                  :
 energy of atom  3       EATOM= -813.3670
 kinetic energy error for atom=    0.0028 (will be added to EATOM!!)
  PAW_PBE Fe 06Sep2000                  :
 energy of atom  4       EATOM= -594.3153
 kinetic energy error for atom=    0.0026 (will be added to EATOM!!)
 
 
 POSCAR:  C  N Co Fe                             
  positions in cartesian coordinates
  No initial velocities read in
 exchange correlation table for  LEXCH =        8
   RHO(1)=    0.500       N(1)  =     2000
   RHO(2)=  100.500       N(2)  =     4000

 VTST: version 3.2, (02/03/18)

 CHAIN: initializing optimizer
 
 OPT: Using VASP Conjugate-Gradient optimizer
 CHAIN: Read ICHAIN            0
 
 POSCAR:  C  N Co Fe                             
  positions in cartesian coordinates
  No initial velocities read in
 


--------------------------------------------------------------------------------------------------------


 ion  position               nearest neighbor table
   1  0.222  0.001  0.500-   3 1.42  19 1.42   4 1.43
   2  0.056  0.102  0.500-   3 1.42   7 1.43  33 1.43
   3  0.110  0.001  0.500-   1 1.42   2 1.42  17 1.42
   4  0.278  0.102  0.499-  21 1.42   5 1.43   1 1.43
   5  0.225  0.204  0.499-   4 1.43   7 1.44   8 1.44
   6  0.056  0.302  0.500-   7 1.42  11 1.43  37 1.44
   7  0.112  0.203  0.500-   6 1.42   2 1.43   5 1.44
   8  0.284  0.303  0.498-  50 1.38   5 1.44   9 1.46
   9  0.227  0.406  0.499-  49 1.36  11 1.45   8 1.46
  10  0.056  0.501  0.500-  14 1.42  11 1.42  40 1.45
  11  0.113  0.402  0.499-  10 1.42   6 1.43   9 1.45
  12  0.226  0.597  0.501-  49 1.36  14 1.45  15 1.45
  13  0.055  0.700  0.500-  18 1.42  14 1.42  44 1.44
  14  0.112  0.600  0.500-  10 1.42  13 1.42  12 1.45
  15  0.282  0.700  0.503-  52 1.37  16 1.43  12 1.45
  16  0.223  0.799  0.501-  19 1.43  18 1.43  15 1.43
  17  0.055  0.900  0.500-   3 1.42  18 1.43  48 1.43
  18  0.111  0.799  0.500-  13 1.42  17 1.43  16 1.43
  19  0.277  0.900  0.501-  27 1.42   1 1.42  16 1.43
  20  0.555  0.000  0.501-  22 1.41  23 1.42  29 1.42
  21  0.389  0.101  0.499-   4 1.42  25 1.42  22 1.43
  22  0.444  0.001  0.501-  20 1.41  27 1.42  21 1.43
  23  0.610  0.101  0.499-  31 1.42  24 1.42  20 1.42
  24  0.556  0.202  0.497-  51 1.37  23 1.42  25 1.45
  25  0.443  0.203  0.497-  50 1.38  21 1.42  24 1.45
  26  0.555  0.798  0.504-  53 1.38  29 1.43  28 1.44
  27  0.389  0.900  0.502-  19 1.42  22 1.42  28 1.43
  28  0.442  0.798  0.504-  52 1.37  27 1.43  26 1.44
  29  0.609  0.899  0.502-  46 1.42  20 1.42  26 1.43
  30  0.888  0.000  0.500-  48 1.42  32 1.42  33 1.43
  31  0.721  0.101  0.500-  23 1.42  36 1.42  32 1.43
  32  0.777  0.000  0.501-  30 1.42  46 1.43  31 1.43
  33  0.943  0.101  0.500-  30 1.43  34 1.43   2 1.43
  34  0.888  0.202  0.500-  37 1.42  33 1.43  36 1.43
  35  0.716  0.302  0.498-  51 1.37  36 1.44  39 1.46
  36  0.775  0.202  0.499-  31 1.42  34 1.43  35 1.44
  37  0.943  0.302  0.500-  34 1.42  38 1.43   6 1.44
  38  0.886  0.401  0.499-  40 1.42  37 1.43  39 1.45
  39  0.772  0.405  0.499-  54 1.36  38 1.45  35 1.46
  40  0.942  0.501  0.500-  38 1.42  41 1.42  10 1.45
  41  0.885  0.600  0.500-  40 1.42  44 1.42  43 1.45
  42  0.714  0.698  0.502-  53 1.38  47 1.44  43 1.46
  43  0.771  0.596  0.500-  54 1.36  41 1.45  42 1.46
  44  0.942  0.699  0.500-  45 1.42  41 1.42  13 1.44
  45  0.887  0.799  0.500-  44 1.42  48 1.43  47 1.43
  46  0.721  0.899  0.501-  29 1.42  32 1.43  47 1.43
  47  0.774  0.798  0.501-  46 1.43  45 1.43  42 1.44
  48  0.943  0.900  0.500-  30 1.42  17 1.43  45 1.43
  49  0.280  0.502  0.500-   9 1.36  12 1.36
  50  0.393  0.302  0.495-   8 1.38  25 1.38  55 1.94
  51  0.608  0.300  0.495-  35 1.37  24 1.37  55 1.93
  52  0.390  0.701  0.505-  28 1.37  15 1.37  56 2.06
  53  0.606  0.699  0.504-  26 1.38  42 1.38  56 2.10
  54  0.718  0.500  0.499-  39 1.36  43 1.36
  55  0.502  0.407  0.476-  51 1.93  50 1.94  56 2.20
  56  0.494  0.574  0.515-  52 2.06  53 2.10  55 2.20
 
  LATTYP: Found a triclinic cell.
 ALAT       =    12.7423000000
 B/A-ratio  =     1.5903957684
 C/A-ratio  =     0.9655321253
 COS(alpha) =     0.0003892084
 COS(beta)  =     0.0024731290
 COS(gamma) =     0.0069323923
  
  Lattice vectors:
  
 A1 = (  12.7423000000,   0.0000000000,   0.0000000000)
 A2 = (   0.1404870089,  -0.0075400058,  20.2648116359)
 A3 = (   0.0304271538, -12.3030623748,   0.0000000000)


Analysis of symmetry for initial positions (statically):
=====================================================================
 Subroutine PRICEL returns:
 Original cell was already a primitive cell.
 

 Routine SETGRP: Setting up the symmetry group for a 
 triclinic supercell.


 Subroutine GETGRP returns: Found  1 space group operations
 (whereof  1 operations were pure point group operations)
 out of a pool of  2 trial point group operations.


The static configuration has the point symmetry C_1 .


Analysis of symmetry for dynamics (positions and initial velocities):
=====================================================================
 Subroutine PRICEL returns:
 Original cell was already a primitive cell.
 

 Routine SETGRP: Setting up the symmetry group for a 
 triclinic supercell.


 Subroutine GETGRP returns: Found  1 space group operations
 (whereof  1 operations were pure point group operations)
 out of a pool of  2 trial point group operations.


The dynamic configuration has the point symmetry C_1 .


Analysis of structural, dynamic, and magnetic symmetry:
=====================================================================
 Subroutine PRICEL returns:
 Original cell was already a primitive cell.
 

 Routine SETGRP: Setting up the symmetry group for a 
 triclinic supercell.


 Subroutine GETGRP returns: Found  1 space group operations
 (whereof  1 operations were pure point group operations)
 out of a pool of  2 trial point group operations.


The magnetic configuration has the point symmetry C_1 .


 Subroutine INISYM returns: Found  1 space group operations
 (whereof  1 operations are pure point group operations),
 and found     1 'primitive' translations

 
 
 KPOINTS: KPOINTS created by Atomic Simulation Env

Automatic generation of k-mesh.
Space group operators:
 irot       det(A)        alpha          n_x          n_y          n_z        tau_x        tau_y        tau_z
    1     1.000000     0.000001     1.000000     0.000000     0.000000     0.000000     0.000000     0.000000
 
 Subroutine IBZKPT returns following result:
 ===========================================
 
 Found      2 irreducible k-points:
 
 Following reciprocal coordinates:
            Coordinates               Weight
  0.250000  0.250000  0.000000      2.000000
 -0.250000  0.250000  0.000000      2.000000
 
 Following cartesian coordinates:
            Coordinates               Weight
  0.019620  0.020369 -0.000128      2.000000
 -0.019620  0.020272  0.000144      2.000000
 
 
 Subroutine IBZKPT_HF returns following result:
 ==============================================
 
 Found      4 k-points in 1st BZ
 the following      4 k-points will be used (e.g. in the exchange kernel)
 Following reciprocal coordinates:   # in IRBZ
  0.250000  0.250000  0.000000    0.25000000   1 t-inv F
 -0.250000  0.250000  0.000000    0.25000000   2 t-inv F
 -0.250000 -0.250000  0.000000    0.25000000   1 t-inv T
  0.250000 -0.250000 -0.000000    0.25000000   2 t-inv T


--------------------------------------------------------------------------------------------------------




 Dimension of arrays:
   k-points           NKPTS =      2   k-points in BZ     NKDIM =      4   number of bands    NBANDS=    152
   number of dos      NEDOS =    301   number of ions     NIONS =     56
   non local maximal  LDIM  =      6   non local SUM 2l+1 LMDIM =     18
   total plane-waves  NPLWV = ******
   max r-space proj   IRMAX =      1   max aug-charges    IRDMAX=  16287
   dimension x,y,z NGX =    96 NGY =   90 NGZ =  150
   dimension x,y,z NGXF=   192 NGYF=  180 NGZF=  300
   support grid    NGXF=   192 NGYF=  180 NGZF=  300
   ions per type =              48   6   1   1
   NGX,Y,Z   is equivalent  to a cutoff of  12.52, 12.16, 12.31 a.u.
   NGXF,Y,Z  is equivalent  to a cutoff of  25.05, 24.32, 24.61 a.u.

 SYSTEM =  unknown system                          
 POSCAR =   C  N Co Fe                             

 Startparameter for this run:
   NWRITE =      2    write-flag & timer
   PREC   = accura    normal or accurate (medium, high low for compatibility)
   ISTART =      1    job   : 0-new  1-cont  2-samecut
   ICHARG =      0    charge: 1-file 2-atom 10-const
   ISPIN  =      2    spin polarized calculation?
   LNONCOLLINEAR =      F non collinear calculations
   LSORBIT =      F    spin-orbit coupling
   INIWAV =      1    electr: 0-lowe 1-rand  2-diag
   LASPH  =      T    aspherical Exc in radial PAW
   METAGGA=      F    non-selfconsistent MetaGGA calc.

 Electronic Relaxation 1
   ENCUT  =  500.0 eV  36.75 Ry    6.06 a.u.  23.23 22.43 36.95*2*pi/ulx,y,z
   ENINI  =  500.0     initial cutoff
   ENAUG  =  644.9 eV  augmentation charge cutoff
   NELM   =    250;   NELMIN=  2; NELMDL=  0     # of ELM steps 
   EDIFF  = 0.1E-03   stopping-criterion for ELM
   LREAL  =      F    real-space projection
   NLSPLINE    = F    spline interpolate recip. space projectors
   LCOMPAT=      F    compatible to vasp.4.4
   GGA_COMPAT  = T    GGA compatible to vasp.4.4-vasp.4.6
   LMAXPAW     = -100 max onsite density
   LMAXMIX     =    2 max onsite mixed and CHGCAR
   VOSKOWN=      0    Vosko Wilk Nusair interpolation
   ROPT   =    0.00000   0.00000   0.00000   0.00000
 Ionic relaxation
   EDIFFG = -.3E-01   stopping-criterion for IOM
   NSW    =      0    number of steps for IOM
   NBLOCK =      1;   KBLOCK =      1    inner block; outer block 
   IBRION =     -1    ionic relax: 0-MD 1-quasi-New 2-CG
   NFREE  =      1    steps in history (QN), initial steepest desc. (CG)
   ISIF   =      2    stress and relaxation
   IWAVPR =     10    prediction:  0-non 1-charg 2-wave 3-comb
   ISYM   =      3    0-nonsym 1-usesym 2-fastsym
   LCORR  =      T    Harris-Foulkes like correction to forces

   POTIM  = 0.5000    time-step for ionic-motion
   TEIN   =    0.0    initial temperature
   TEBEG  =    0.0;   TEEND  =   0.0 temperature during run
   SMASS  =  -3.00    Nose mass-parameter (am)
   estimated Nose-frequenzy (Omega)   =  0.10E-29 period in steps =****** mass=  -0.371E-26a.u.
   SCALEE = 1.0000    scale energy and forces
   NPACO  =    256;   APACO  = 16.0  distance and # of slots for P.C.
   PSTRESS=    0.0 pullay stress

  Mass of Ions in am
   POMASS =  12.01 14.00 58.93 55.85
  Ionic Valenz
   ZVAL   =   4.00  5.00  9.00  8.00
  Atomic Wigner-Seitz radii
   RWIGS  =  -1.00 -1.00 -1.00 -1.00
  virtual crystal weights 
   VCA    =   1.00  1.00  1.00  1.00
   NELECT =     239.0000    total number of electrons
   NUPDOWN=      -1.0000    fix difference up-down

 DOS related values:
   EMIN   =  10.00;   EMAX   =-10.00  energy-range for DOS
   EFERMI =   0.00
   ISMEAR =     0;   SIGMA  =   0.10  broadening in eV -4-tet -1-fermi 0-gaus

 Electronic relaxation 2 (details)
   IALGO  =     53    algorithm
   LDIAG  =      T    sub-space diagonalisation (order eigenvalues)
   LSUBROT=      F    optimize rotation matrix (better conditioning)
   TURBO    =      0    0=normal 1=particle mesh
   IRESTART =      0    0=no restart 2=restart with 2 vectors
   NREBOOT  =      0    no. of reboots
   NMIN     =      0    reboot dimension
   EREF     =   0.00    reference energy to select bands
   IMIX   =      4    mixing-type and parameters
     AMIX     =   0.40;   BMIX     =  1.00
     AMIX_MAG =   1.60;   BMIX_MAG =  1.00
     AMIN     =   0.10
     WC   =   100.;   INIMIX=   1;  MIXPRE=   1;  MAXMIX= -45

 Intra band minimization:
   WEIMIN = 0.0000     energy-eigenvalue tresh-hold
   EBREAK =  0.16E-06  absolut break condition
   DEPER  =   0.30     relativ break condition  

   TIME   =   0.20     timestep for ELM

  volume/ion in A,a.u.               =      56.73       382.84
  Fermi-wavevector in a.u.,A,eV,Ry     =   0.691098  1.305986  6.498365  0.477616
  Thomas-Fermi vector in A             =   1.772653
 
 Write flags
   LWAVE        =      T    write WAVECAR
   LDOWNSAMPLE  =      F    k-point downsampling of WAVECAR
   LCHARG       =      T    write CHGCAR
   LVTOT        =      F    write LOCPOT, total local potential
   LVHAR        =      F    write LOCPOT, Hartree potential only
   LELF         =      F    write electronic localiz. function (ELF)
   LORBIT       =     11    0 simple, 1 ext, 2 COOP (PROOUT), +10 PAW based schemes


 Dipole corrections
   LMONO  =      F    monopole corrections only (constant potential shift)
   LDIPOL =      T    correct potential (dipole corrections)
   IDIPOL =      3    1-x, 2-y, 3-z, 4-all directions 
   EPSILON=  1.0000000 bulk dielectric constant

 Exchange correlation treatment:
   GGA     =    PE    GGA type
   LEXCH   =     8    internal setting for exchange type
   VOSKOWN=      0    Vosko Wilk Nusair interpolation
   EXXOEP  =     0    0=HF, 1=EXX-LHF (local Hartree Fock) 2=EXX OEP
   LHFCALC =     T    Hartree Fock is set to
   LSYMGRAD=     F    symmetrize gradient (conserves proper symmetry)
   PRECFOCK=normal    Normal, Fast or Accurate (Low or Medium for compatibility)
   LRHFCALC=     F    long range Hartree Fock
   LRSCOR  =     F    long range correlation only (use DFT for short range part)
   LTHOMAS =     F    Thomas Fermi screening in HF
   LMODELHF=     F    short range full HF, long range fraction AEXX
   ENCUT4O =  -1.0   cutoff for four orbital integrals eV
   LMAXFOCK=     4    L truncation for augmentation on plane wave grid
   LMAXFOCKAE=  -1    L truncation for all-electron charge restoration on plane wave grid
   NMAXFOCKAE=   1    number of basis functions for all-electron charge restoration
   LFOCKAEDFT=     F  apply the AE augmentation even for DFT
   NKREDX  =     1    reduce k-point grid by
   NKREDY  =     1    reduce k-point grid by
   NKREDZ  =     1    reduce k-point grid by
   SHIFTRED=     F    shift reduced grid of Gamma
   HFKIDENT=     F    idential grid for each k-point
   ODDONLY =     F    use only odd q-grid points
   EVENONLY=     F    use only even q-grid points
   HFALPHA =   -1.0000 decay constant for conv. correction
   MCALPHA =    0.0000 extent of test-charge in conv. correction in multipole expansion
   AEXX    =    0.2500 exact exchange contribution
   HFSCREEN=    0.2000 screening length (either q_TF or 0.3 A-1)
   HFSCREENC=   0.2000 screening length for correlation (either q_TF or 0.3 A-1)
   HFRCUT  =    0.0000 spherical cutoff for potential kernel
   ALDAX   =    0.7500 LDA exchange part
   AGGAX   =    0.7500 GGA exchange part
   ALDAC   =    1.0000 LDA correlation
   AGGAC   =    1.0000 GGA correlation
   ENCUTFOCK=  -1.0 apply spherical cutoff to Coloumb kernel
   NBANDSGWLOW=     1    first orbital included in HF term
   NBLOCK_FOCK=    64    blocking factor in FOCK_ACC
 Linear response parameters
   LEPSILON=     F    determine dielectric tensor
   LRPA    =     F    only Hartree local field effects (RPA)
   LNABLA  =     F    use nabla operator in PAW spheres
   LVEL    =     F    velocity operator in full k-point grid
   LINTERFAST=   F  fast interpolation
   KINTER  =     0    interpolate to denser k-point grid
   CSHIFT  =0.1000    complex shift for real part using Kramers Kronig
   OMEGAMAX=  -1.0    maximum frequency
   DEG_THRESHOLD= 0.2000000E-02 threshold for treating states as degnerate
   RTIME   =   -0.100 relaxation time in fs
  (WPLASMAI=    0.000 imaginary part of plasma frequency in eV, 0.658/RTIME)
   DFIELD  = 0.0000000 0.0000000 0.0000000 field for delta impulse in time
 
 Orbital magnetization related:
   ORBITALMAG=     F  switch on orbital magnetization
   LCHIMAG   =     F  perturbation theory with respect to B field
   DQ        =  0.001000  dq finite difference perturbation B field
   LLRAUG    =     F  two centre corrections for induced B field



--------------------------------------------------------------------------------------------------------


 Static calculation
 charge density and potential will be updated during run
 spin polarized calculation
 Conjugate gradient for all bands (Freysoldt, et al. PRB 79, 241103 (2009))
 perform sub-space diagonalisation
    before iterative eigenvector-optimisation
 modified Broyden-mixing scheme, WC =      100.0
 initial mixing is a Kerker type mixing with AMIX =  0.4000 and BMIX =      1.0000
 Hartree-type preconditioning will be used
 using additional bands           32
 reciprocal scheme for non local part
 use partial core corrections
 no Harris-corrections to forces 
 use gradient corrections 
 use of overlap-Matrix (Vanderbilt PP)
 Gauss-broadening in eV      SIGMA  =   0.10


--------------------------------------------------------------------------------------------------------


  energy-cutoff  :      500.00
  volume of cell :     3176.90
      direct lattice vectors                 reciprocal lattice vectors
    12.742300000  0.000000000  0.000000000     0.078478768  0.000194089 -0.000543986
    -0.030427154 12.303062375  0.000000000     0.000000000  0.081280576  0.000030242
     0.140487009 -0.007540006 20.264811636     0.000000000  0.000000000  0.049346622

  length of vectors
    12.742300000 12.303100000 20.265300000     0.078480893  0.081280582  0.049346622


 
 old parameters found on file WAVECAR:
  energy-cutoff  :      500.00
  volume of cell :     3176.90
      direct lattice vectors                 reciprocal lattice vectors
    12.742300000  0.000000000  0.000000000     0.078478768  0.000194089 -0.000543986
    -0.030427154 12.303062375  0.000000000     0.000000000  0.081280576  0.000030242
     0.140487009 -0.007540006 20.264811636     0.000000000  0.000000000  0.049346622

  length of vectors

 
 k-points in units of 2pi/SCALE and weight: KPOINTS created by Atomic Simulation Env
   0.01961969  0.02036867 -0.00012844       0.500
  -0.01961969  0.02027162  0.00014356       0.500
 
 k-points in reciprocal lattice and weights: KPOINTS created by Atomic Simulation Env
   0.25000000  0.25000000  0.00000000       0.500
  -0.25000000  0.25000000  0.00000000       0.500
 
 position of ions in fractional coordinates (direct lattice) 
   0.22197101  0.00093725  0.50019375
   0.05573137  0.10175307  0.49988366
   0.11020122  0.00078613  0.50000125
   0.27761573  0.10175623  0.49929636
   0.22471267  0.20367018  0.49889967
   0.05613880  0.30222353  0.49953041
   0.11195812  0.20256443  0.49957700
   0.28430263  0.30340493  0.49767157
   0.22732891  0.40620689  0.49913984
   0.05594802  0.50076736  0.49986167
   0.11334014  0.40190102  0.49949241
   0.22584207  0.59699039  0.50114784
   0.05507938  0.69951551  0.50029207
   0.11239661  0.60028574  0.50040201
   0.28215880  0.69964294  0.50266983
   0.22326422  0.79879796  0.50141582
   0.05506452  0.89989197  0.50003424
   0.11085087  0.79938252  0.50040902
   0.27716582  0.90043931  0.50129381
   0.55457287  0.00008572  0.50085199
   0.38901317  0.10146057  0.49898142
   0.44388965  0.00064817  0.50074776
   0.61000362  0.10063038  0.49927753
   0.55648896  0.20181929  0.49702081
   0.44309243  0.20260284  0.49685625
   0.55534583  0.79769739  0.50384354
   0.38867852  0.90005864  0.50212040
   0.44208365  0.79848324  0.50397547
   0.60928772  0.89928665  0.50214527
   0.88829766  0.00035813  0.50019077
   0.72136914  0.10073237  0.49974406
   0.77653110  0.00002429  0.50050377
   0.94337898  0.10142266  0.50002830
   0.88751189  0.20195037  0.49982377
   0.71584581  0.30173659  0.49777768
   0.77491870  0.20243497  0.49932247
   0.94328639  0.30192184  0.49957989
   0.88587377  0.40120672  0.49929177
   0.77218544  0.40479330  0.49860085
   0.94248470  0.50055991  0.49965946
   0.88524871  0.59960164  0.49999150
   0.71442717  0.69801079  0.50205076
   0.77149569  0.59553151  0.50024848
   0.94238977  0.69919006  0.50014555
   0.88661591  0.79877715  0.50027828
   0.72080322  0.89942164  0.50135036
   0.77400632  0.79755946  0.50117735
   0.94283207  0.89953993  0.50005795
   0.28049448  0.50204141  0.50032498
   0.39253655  0.30164519  0.49513179
   0.60815391  0.29995558  0.49523644
   0.38997290  0.70071078  0.50489260
   0.60623372  0.69917102  0.50436238
   0.71798275  0.49968000  0.49908826
   0.50197890  0.40747250  0.47632661
   0.49409702  0.57445994  0.51528123
 
 position of ions in cartesian coordinates  (Angst):
   2.89866338  0.00775962 10.13633214
   0.77727693  1.24810526 10.13004816
   1.47443677  0.00590180 10.13243118
   3.60451138  1.24814851 10.11814667
   2.92724805  2.50200521 10.11010775
   0.77631916  3.71450849 10.12288958
   1.49062461  2.48839604 10.12383374
   3.68335409  3.72905735 10.08522066
   2.95445615  4.99382521 10.11497484
   0.76789357  6.15720306 10.12960252
   1.50215750  4.94084712 10.12211954
   2.92998747  7.34103134 10.15566661
   0.75083824  8.60241071 10.13832461
   1.48422626  7.38157983 10.14055253
   3.64468255  8.60396059 10.18650938
   2.89103692  9.82388051 10.16109724
   0.74451580 11.06765681 10.13309969
   1.45847303  9.83107994 10.14069452
   3.57475744 11.07438127 10.15862472
   7.13689451 -0.00272178 10.14967121
   5.02393574  1.24451337 10.11176442
   5.72650393  0.00419889 10.14755905
   7.83992930  1.23429732 10.11776503
   7.15463341  2.47924775 10.07203318
   5.70965395  2.48888905 10.06869841
   7.12289494  9.81032174 10.21029442
   4.99581343 11.06969162 10.17537537
   5.67966897  9.81998910 10.21296805
   7.80690911 11.06019362 10.17587927
  11.38921469  0.00063462 10.13627178
   9.25904460  1.23554852 10.12721920
   9.96510583 -0.00347494 10.14261470
  12.08797945  1.24403912 10.13297924
  11.37301668  2.48083931 10.12883449
   9.18227235  3.70853086 10.08737101
   9.93823537  2.48680516 10.11867589
  12.08063609  3.71079638 10.12389234
  11.34600571  4.93230669 10.11805375
   9.89714879  4.97643779 10.10405233
  12.06438788  6.15465232 10.12550482
  11.33210280  7.37316639 10.13223363
   9.15273845  8.58388485 10.17396418
   9.88278764  7.32308942 10.13744114
  12.05720278  8.59840786 10.13535537
  11.34350395  9.82363296 10.13804517
   9.22775727 11.06186032 10.15977061
   9.90876213  9.80864485 10.15626460
  12.05673030 11.06332542 10.13358006
   3.62915825  6.17287428 10.13899152
   5.06219988  3.70742633 10.03375243
   7.80972708  3.68663807 10.03587315
   5.01876192  8.61708154 10.23155348
   7.77439451  8.59814180 10.22080859
   9.20366312  6.14383110 10.11392966
   6.45088517  5.00956805  9.65266905
   6.35084363  7.06373127 10.44207709
 


--------------------------------------------------------------------------------------------------------


 k-point  1 :   0.2500 0.2500 0.0000  plane waves:   80644
 k-point  2 :  -0.2500 0.2500 0.0000  plane waves:   80641

 maximum and minimum number of plane-waves per node :      3394     3323

 maximum number of plane-waves:     80644
 maximum index in each direction: 
   IXMAX=   23   IYMAX=   22   IZMAX=   36
   IXMIN=  -23   IYMIN=  -22   IZMIN=  -36


 parallel 3D FFT for wavefunctions:
    minimum data exchange during FFTs selected (reduces bandwidth)
 parallel 3D FFT for charge:
    minimum data exchange during FFTs selected (reduces bandwidth)


 FFT grid for exact exchange (Hartree Fock) 
  NGX = 70; NGY = 70; NGZ =112

 
 Radii for the augmentation spheres in the non-local exchange
 for species   1 augmentation radius   0.874 (default was   0.699)
       energy cutoff for augmentation   2000.0
 for species   2 augmentation radius   0.886 (default was   0.709)
       energy cutoff for augmentation   2000.0
 for species   3 augmentation radius   1.307 (default was   1.045)
       energy cutoff for augmentation   2000.0
 for species   4 augmentation radius   1.263 (default was   1.010)
       energy cutoff for augmentation   2000.0

 real space projection operators:
  total allocation   :       2426.11 KBytes
  max/ min on nodes  :        145.87         36.56

 Maximum index for augmentation-charges in exchange           63
  SETUP_FOCK is finished

 total amount of memory used by VASP MPI-rank0   202622. kBytes
=======================================================================

   base      :      30000. kBytes
   nonl-proj :       6967. kBytes
   fftplans  :      17535. kBytes
   grid      :      46049. kBytes
   one-center:         93. kBytes
   HF        :         46. kBytes
   nonlr-proj:       1657. kBytes
   wavefun   :     100275. kBytes
 
     INWAV:  cpu time    3.2876: real time    5.7480
 Broyden mixing: mesh for mixing (old mesh)
   NGX = 47   NGY = 45   NGZ = 73
  (NGX  =192   NGY  =180   NGZ  =300)
  gives a total of 154395 points

 charge density for first step will be calculated from the start-wavefunctions


--------------------------------------------------------------------------------------------------------


 Maximum index for augmentation-charges          743 (set IRDMAX)


--------------------------------------------------------------------------------------------------------


 initial charge from wavefunction
 First call to EWALD:  gamma=   0.121
 Maximum number of real-space cells 3x 3x 2
 Maximum number of reciprocal cells 2x 2x 4

    FEWALD:  cpu time    0.0022: real time    0.0022


--------------------------------------- Iteration      1(   1)  ---------------------------------------


    POTLOK:  cpu time    2.0583: real time    2.0632
    SETDIJ:  cpu time    2.0775: real time    2.0830
    TRIAL :  cpu time  317.4570: real time  317.8137
    CORREC:  cpu time    0.0010: real time    0.0010
    CHARGE:  cpu time    1.3472: real time    1.3497
    --------------------------------------------
      LOOP:  cpu time  322.9758: real time  323.3470

 eigenvalue-minimisations  :     0
 total energy-change (2. order) :-0.5841069E+03  (-0.5897965E+00)
 number of electron     239.0000021 magnetization       2.9706304
 augmentation part       15.3642468 magnetization       2.1658076

 DIPCOR: dipole corrections for dipol
 direction  3 min pos     1,
 dipolmoment          -0.000090      0.000005     -0.013016 electrons x Angstroem
 Tr[quadrupol]     -6283.332575

 energy correction for charged system         0.000000 eV
 dipol+quadrupol energy correction            0.000005 eV
 added-field ion interaction          0.000000 eV  (added to PSCEN)


 Free energy of the ion-electron system (eV)
  ---------------------------------------------------
  alpha Z        PSCENC =        93.92626489
  Ewald energy   TEWEN  =     38774.04385486
  -Hartree energ DENC   =    -47359.93677662
  -exchange      EXHF   =       545.78781680
  -V(xc)+E(xc)   XCENC  =       615.03206206
  PAW double counting   =     25822.72692180   -25909.57925337
  entropy T*S    EENTRO =        -0.00537452
  eigenvalues    EBANDS =     -3112.94853766
  atomic energy  EATOM  =      9946.85184735
  ---------------------------------------------------
  free energy    TOTEN  =      -584.10688428 eV

  energy without entropy =     -584.10150975  energy(sigma->0) =     -584.10419702
  exchange ACFDT corr.  =        -0.01156338  see jH, gK, PRB 81, 115126


--------------------------------------------------------------------------------------------------------




--------------------------------------- Iteration      1(   2)  ---------------------------------------


    POTLOK:  cpu time    2.0751: real time    2.0787
    SETDIJ:  cpu time    2.0866: real time    2.0884
    TRIAL :  cpu time  316.1172: real time  317.5299
    CORREC:  cpu time    0.0009: real time    0.0009
    CHARGE:  cpu time    1.3473: real time    1.3481
    --------------------------------------------
      LOOP:  cpu time  321.6285: real time  323.0497

 eigenvalue-minimisations  :     0
 total energy-change (2. order) :-0.3964754E+00  (-0.5560796E+00)
 number of electron     239.0000021 magnetization       2.9870184
 augmentation part       15.3036229 magnetization       2.2047876

 DIPCOR: dipole corrections for dipol
 direction  3 min pos     1,
 dipolmoment          -0.000468      0.000025     -0.067548 electrons x Angstroem
 Tr[quadrupol]     -6283.184645

 energy correction for charged system         0.000000 eV
 dipol+quadrupol energy correction            0.000130 eV
 added-field ion interaction          0.000000 eV  (added to PSCEN)


 Free energy of the ion-electron system (eV)
  ---------------------------------------------------
  alpha Z        PSCENC =        93.92639041
  Ewald energy   TEWEN  =     38774.04385486
  -Hartree energ DENC   =    -47351.25245421
  -exchange      EXHF   =       545.86725444
  -V(xc)+E(xc)   XCENC  =       614.84745780
  PAW double counting   =     25948.41623967   -26036.53283352
  entropy T*S    EENTRO =        -0.00265234
  eigenvalues    EBANDS =     -3120.66574192
  atomic energy  EATOM  =      9946.85184735
  ---------------------------------------------------
  free energy    TOTEN  =      -584.50335964 eV

  energy without entropy =     -584.50070730  energy(sigma->0) =     -584.50203347
  exchange ACFDT corr.  =        -0.00755198  see jH, gK, PRB 81, 115126


--------------------------------------------------------------------------------------------------------




--------------------------------------- Iteration      1(   3)  ---------------------------------------


    POTLOK:  cpu time    2.1014: real time    2.1048
    SETDIJ:  cpu time    2.0934: real time    2.0954
    TRIAL :  cpu time  314.9367: real time  315.2710
    CORREC:  cpu time    0.0009: real time    0.0009
    CHARGE:  cpu time    1.3487: real time    1.3502
    --------------------------------------------
      LOOP:  cpu time  320.4825: real time  320.8263

 eigenvalue-minimisations  :     0
 total energy-change (2. order) :-0.3731111E+00  (-0.2825833E+00)
 number of electron     239.0000021 magnetization       2.9952069
 augmentation part       15.3029487 magnetization       2.2314510

 DIPCOR: dipole corrections for dipol
 direction  3 min pos     1,
 dipolmoment          -0.000026      0.000001     -0.003708 electrons x Angstroem
 Tr[quadrupol]     -6283.021016

 energy correction for charged system         0.000000 eV
 dipol+quadrupol energy correction            0.000000 eV
 added-field ion interaction          0.000000 eV  (added to PSCEN)


 Free energy of the ion-electron system (eV)
  ---------------------------------------------------
  alpha Z        PSCENC =        93.92626044
  Ewald energy   TEWEN  =     38774.04385486
  -Hartree energ DENC   =    -47332.61407497
  -exchange      EXHF   =       545.78012406
  -V(xc)+E(xc)   XCENC  =       614.40340679
  PAW double counting   =     26093.63535967   -26179.85542679
  entropy T*S    EENTRO =        -0.00110482
  eigenvalues    EBANDS =     -3141.04516986
  atomic energy  EATOM  =      9946.85184735
  ---------------------------------------------------
  free energy    TOTEN  =      -584.87647079 eV

  energy without entropy =     -584.87536597  energy(sigma->0) =     -584.87591838
  exchange ACFDT corr.  =        -0.00203413  see jH, gK, PRB 81, 115126


--------------------------------------------------------------------------------------------------------




--------------------------------------- Iteration      1(   4)  ---------------------------------------


    POTLOK:  cpu time    2.1119: real time    2.1138
    SETDIJ:  cpu time    2.0894: real time    2.0911
    TRIAL :  cpu time  314.6956: real time  315.0401
    CORREC:  cpu time    0.0009: real time    0.0009
    CHARGE:  cpu time    1.3403: real time    1.3412
    --------------------------------------------
      LOOP:  cpu time  320.2391: real time  320.5908

 eigenvalue-minimisations  :     0
 total energy-change (2. order) :-0.2159772E+00  (-0.1684295E+00)
 number of electron     239.0000021 magnetization       2.9980608
 augmentation part       15.3210291 magnetization       2.2394440

 DIPCOR: dipole corrections for dipol
 direction  3 min pos     1,
 dipolmoment          -0.000065      0.000003     -0.009310 electrons x Angstroem
 Tr[quadrupol]     -6282.969297

 energy correction for charged system         0.000000 eV
 dipol+quadrupol energy correction            0.000002 eV
 added-field ion interaction          0.000000 eV  (added to PSCEN)


 Free energy of the ion-electron system (eV)
  ---------------------------------------------------
  alpha Z        PSCENC =        93.92626253
  Ewald energy   TEWEN  =     38774.04385486
  -Hartree energ DENC   =    -47327.65370849
  -exchange      EXHF   =       546.01333932
  -V(xc)+E(xc)   XCENC  =       614.33044681
  PAW double counting   =     26224.69047492   -26310.98067812
  entropy T*S    EENTRO =        -0.00049284
  eigenvalues    EBANDS =     -3146.31318235
  atomic energy  EATOM  =      9946.85184735
  ---------------------------------------------------
  free energy    TOTEN  =      -585.09244798 eV

  energy without entropy =     -585.09195514  energy(sigma->0) =     -585.09220156
  exchange ACFDT corr.  =        -0.00077007  see jH, gK, PRB 81, 115126


--------------------------------------------------------------------------------------------------------




--------------------------------------- Iteration      1(   5)  ---------------------------------------


    POTLOK:  cpu time    2.1053: real time    2.1076
    SETDIJ:  cpu time    2.0956: real time    2.0975
    TRIAL :  cpu time  315.2213: real time  315.5626
    CORREC:  cpu time    0.0009: real time    0.0009
    CHARGE:  cpu time    1.3427: real time    1.3436
    --------------------------------------------
      LOOP:  cpu time  320.7671: real time  321.1162

 eigenvalue-minimisations  :     0
 total energy-change (2. order) :-0.1287721E+00  (-0.1107744E+00)
 number of electron     239.0000021 magnetization       2.9990190
 augmentation part       15.3207363 magnetization       2.2337882

 DIPCOR: dipole corrections for dipol
 direction  3 min pos     1,
 dipolmoment          -0.000138      0.000007     -0.019933 electrons x Angstroem
 Tr[quadrupol]     -6283.005495

 energy correction for charged system         0.000000 eV
 dipol+quadrupol energy correction            0.000011 eV
 added-field ion interaction          0.000000 eV  (added to PSCEN)


 Free energy of the ion-electron system (eV)
  ---------------------------------------------------
  alpha Z        PSCENC =        93.92627140
  Ewald energy   TEWEN  =     38774.04385486
  -Hartree energ DENC   =    -47330.68189982
  -exchange      EXHF   =       546.37545014
  -V(xc)+E(xc)   XCENC  =       614.45706912
  PAW double counting   =     26321.12572249   -26407.93150499
  entropy T*S    EENTRO =        -0.00026596
  eigenvalues    EBANDS =     -3143.38753774
  atomic energy  EATOM  =      9946.85184735
  ---------------------------------------------------
  free energy    TOTEN  =      -585.22122004 eV

  energy without entropy =     -585.22095408  energy(sigma->0) =     -585.22108706
  exchange ACFDT corr.  =        -0.00030036  see jH, gK, PRB 81, 115126


--------------------------------------------------------------------------------------------------------




--------------------------------------- Iteration      1(   6)  ---------------------------------------


    POTLOK:  cpu time    2.1076: real time    2.1164
    SETDIJ:  cpu time    2.0904: real time    2.0939
    TRIAL :  cpu time  315.3418: real time  315.6697
    CORREC:  cpu time    0.0009: real time    0.0009
    CHARGE:  cpu time    1.3392: real time    1.3402
    --------------------------------------------
      LOOP:  cpu time  320.8808: real time  321.2247

 eigenvalue-minimisations  :     0
 total energy-change (2. order) :-0.9161634E-01  (-0.7344015E-01)
 number of electron     239.0000021 magnetization       2.9994513
 augmentation part       15.3217433 magnetization       2.2218700

 DIPCOR: dipole corrections for dipol
 direction  3 min pos     1,
 dipolmoment          -0.000026      0.000001     -0.003761 electrons x Angstroem
 Tr[quadrupol]     -6283.061772

 energy correction for charged system         0.000000 eV
 dipol+quadrupol energy correction            0.000000 eV
 added-field ion interaction          0.000000 eV  (added to PSCEN)


 Free energy of the ion-electron system (eV)
  ---------------------------------------------------
  alpha Z        PSCENC =        93.92626046
  Ewald energy   TEWEN  =     38774.04385486
  -Hartree energ DENC   =    -47333.91790575
  -exchange      EXHF   =       546.67708114
  -V(xc)+E(xc)   XCENC  =       614.57848077
  PAW double counting   =     26382.32298445   -26468.98554235
  entropy T*S    EENTRO =        -0.00015646
  eigenvalues    EBANDS =     -3140.80963134
  atomic energy  EATOM  =      9946.85184735
  ---------------------------------------------------
  free energy    TOTEN  =      -585.31283637 eV

  energy without entropy =     -585.31267991  energy(sigma->0) =     -585.31275814
  exchange ACFDT corr.  =        -0.00012711  see jH, gK, PRB 81, 115126


--------------------------------------------------------------------------------------------------------




--------------------------------------- Iteration      1(   7)  ---------------------------------------


    POTLOK:  cpu time    2.0929: real time    2.0972
    SETDIJ:  cpu time    2.1077: real time    2.1104
    TRIAL :  cpu time  313.7569: real time  314.0949
    CORREC:  cpu time    0.0009: real time    0.0009
    CHARGE:  cpu time    1.3394: real time    1.3417
    --------------------------------------------
      LOOP:  cpu time  319.2985: real time  319.6487

 eigenvalue-minimisations  :     0
 total energy-change (2. order) :-0.6232093E-01  (-0.5346791E-01)
 number of electron     239.0000021 magnetization       2.9996775
 augmentation part       15.3297861 magnetization       2.2089049

 DIPCOR: dipole corrections for dipol
 direction  3 min pos     1,
 dipolmoment           0.000059     -0.000003      0.008551 electrons x Angstroem
 Tr[quadrupol]     -6283.108296

 energy correction for charged system         0.000000 eV
 dipol+quadrupol energy correction            0.000002 eV
 added-field ion interaction          0.000000 eV  (added to PSCEN)


 Free energy of the ion-electron system (eV)
  ---------------------------------------------------
  alpha Z        PSCENC =        93.92626214
  Ewald energy   TEWEN  =     38774.04385486
  -Hartree energ DENC   =    -47336.98684820
  -exchange      EXHF   =       546.92019381
  -V(xc)+E(xc)   XCENC  =       614.69082739
  PAW double counting   =     26418.83675240   -26505.43814983
  entropy T*S    EENTRO =        -0.00009621
  eigenvalues    EBANDS =     -3138.21974076
  atomic energy  EATOM  =      9946.85184735
  ---------------------------------------------------
  free energy    TOTEN  =      -585.37515731 eV

  energy without entropy =     -585.37506110  energy(sigma->0) =     -585.37510920
  exchange ACFDT corr.  =        -0.00007164  see jH, gK, PRB 81, 115126


--------------------------------------------------------------------------------------------------------




--------------------------------------- Iteration      1(   8)  ---------------------------------------


    POTLOK:  cpu time    2.0848: real time    2.0887
    SETDIJ:  cpu time    2.1152: real time    2.1175
    TRIAL :  cpu time  313.3787: real time  313.6997
    CORREC:  cpu time    0.0008: real time    0.0008
    CHARGE:  cpu time    1.3364: real time    1.3375
    --------------------------------------------
      LOOP:  cpu time  318.9175: real time  319.2484

 eigenvalue-minimisations  :     0
 total energy-change (2. order) :-0.4646149E-01  (-0.3833904E-01)
 number of electron     239.0000021 magnetization       2.9997925
 augmentation part       15.3336800 magnetization       2.1961839

 DIPCOR: dipole corrections for dipol
 direction  3 min pos     1,
 dipolmoment           0.000067     -0.000004      0.009718 electrons x Angstroem
 Tr[quadrupol]     -6283.137406

 energy correction for charged system         0.000000 eV
 dipol+quadrupol energy correction            0.000003 eV
 added-field ion interaction          0.000000 eV  (added to PSCEN)


 Free energy of the ion-electron system (eV)
  ---------------------------------------------------
  alpha Z        PSCENC =        93.92626275
  Ewald energy   TEWEN  =     38774.04385486
  -Hartree energ DENC   =    -47339.62418730
  -exchange      EXHF   =       547.11035536
  -V(xc)+E(xc)   XCENC  =       614.78797041
  PAW double counting   =     26439.77864425   -26526.59876374
  entropy T*S    EENTRO =        -0.00006423
  eigenvalues    EBANDS =     -3135.69750653
  atomic energy  EATOM  =      9946.85184735
  ---------------------------------------------------
  free energy    TOTEN  =      -585.42161879 eV

  energy without entropy =     -585.42155457  energy(sigma->0) =     -585.42158668
  exchange ACFDT corr.  =        -0.00004247  see jH, gK, PRB 81, 115126


--------------------------------------------------------------------------------------------------------




--------------------------------------- Iteration      1(   9)  ---------------------------------------


    POTLOK:  cpu time    2.0853: real time    2.0872
    SETDIJ:  cpu time    2.1113: real time    2.1139
    TRIAL :  cpu time  313.3184: real time  313.6420
    CORREC:  cpu time    0.0008: real time    0.0008
    CHARGE:  cpu time    1.3362: real time    1.3372
    --------------------------------------------
      LOOP:  cpu time  318.8531: real time  319.1847

 eigenvalue-minimisations  :     0
 total energy-change (2. order) :-0.3420183E-01  (-0.2948931E-01)
 number of electron     239.0000021 magnetization       2.9998535
 augmentation part       15.3319952 magnetization       2.1838634

 DIPCOR: dipole corrections for dipol
 direction  3 min pos     1,
 dipolmoment           0.000081     -0.000004      0.011647 electrons x Angstroem
 Tr[quadrupol]     -6283.148717

 energy correction for charged system         0.000000 eV
 dipol+quadrupol energy correction            0.000004 eV
 added-field ion interaction          0.000000 eV  (added to PSCEN)


 Free energy of the ion-electron system (eV)
  ---------------------------------------------------
  alpha Z        PSCENC =        93.92626393
  Ewald energy   TEWEN  =     38774.04385486
  -Hartree energ DENC   =    -47340.73615134
  -exchange      EXHF   =       547.23452777
  -V(xc)+E(xc)   XCENC  =       614.84161753
  PAW double counting   =     26450.81911497   -26537.76788123
  entropy T*S    EENTRO =        -0.00004667
  eigenvalues    EBANDS =     -3134.66895023
  atomic energy  EATOM  =      9946.85184735
  ---------------------------------------------------
  free energy    TOTEN  =      -585.45582062 eV

  energy without entropy =     -585.45577395  energy(sigma->0) =     -585.45579728
  exchange ACFDT corr.  =        -0.00002759  see jH, gK, PRB 81, 115126


--------------------------------------------------------------------------------------------------------




--------------------------------------- Iteration      1(  10)  ---------------------------------------


    POTLOK:  cpu time    2.0765: real time    2.0783
    SETDIJ:  cpu time    2.1081: real time    2.1112
    TRIAL :  cpu time  313.1642: real time  313.4392
    CORREC:  cpu time    0.0008: real time    0.0008
    CHARGE:  cpu time    1.3360: real time    1.3372
    --------------------------------------------
      LOOP:  cpu time  318.6867: real time  318.9710

 eigenvalue-minimisations  :     0
 total energy-change (2. order) :-0.2669036E-01  (-0.2281934E-01)
 number of electron     239.0000021 magnetization       2.9998905
 augmentation part       15.3312822 magnetization       2.1729683

 DIPCOR: dipole corrections for dipol
 direction  3 min pos     1,
 dipolmoment           0.000117     -0.000006      0.016808 electrons x Angstroem
 Tr[quadrupol]     -6283.149380

 energy correction for charged system         0.000000 eV
 dipol+quadrupol energy correction            0.000008 eV
 added-field ion interaction          0.000000 eV  (added to PSCEN)


 Free energy of the ion-electron system (eV)
  ---------------------------------------------------
  alpha Z        PSCENC =        93.92626812
  Ewald energy   TEWEN  =     38774.04385486
  -Hartree energ DENC   =    -47340.65372502
  -exchange      EXHF   =       547.31084168
  -V(xc)+E(xc)   XCENC  =       614.86108573
  PAW double counting   =     26456.15945904   -26543.08465038
  entropy T*S    EENTRO =        -0.00003581
  eigenvalues    EBANDS =     -3134.89744568
  atomic energy  EATOM  =      9946.85184735
  ---------------------------------------------------
  free energy    TOTEN  =      -585.48251098 eV

  energy without entropy =     -585.48247517  energy(sigma->0) =     -585.48249307
  exchange ACFDT corr.  =        -0.00001966  see jH, gK, PRB 81, 115126


--------------------------------------------------------------------------------------------------------




--------------------------------------- Iteration      1(  11)  ---------------------------------------


    POTLOK:  cpu time    2.0726: real time    2.0736
    SETDIJ:  cpu time    2.1111: real time    2.1130
    TRIAL :  cpu time  313.1890: real time  313.4904
    CORREC:  cpu time    0.0008: real time    0.0008
    CHARGE:  cpu time    1.3360: real time    1.3372
    --------------------------------------------
      LOOP:  cpu time  318.7104: real time  319.0186

 eigenvalue-minimisations  :     0
 total energy-change (2. order) :-0.2098590E-01  (-0.1841190E-01)
 number of electron     239.0000021 magnetization       2.9999146
 augmentation part       15.3323969 magnetization       2.1632027

 DIPCOR: dipole corrections for dipol
 direction  3 min pos     1,
 dipolmoment           0.000141     -0.000008      0.020310 electrons x Angstroem
 Tr[quadrupol]     -6283.148212

 energy correction for charged system         0.000000 eV
 dipol+quadrupol energy correction            0.000012 eV
 added-field ion interaction          0.000000 eV  (added to PSCEN)


 Free energy of the ion-electron system (eV)
  ---------------------------------------------------
  alpha Z        PSCENC =        93.92627184
  Ewald energy   TEWEN  =     38774.04385486
  -Hartree energ DENC   =    -47340.49997382
  -exchange      EXHF   =       547.37153298
  -V(xc)+E(xc)   XCENC  =       614.87557584
  PAW double counting   =     26458.91878156   -26545.86348207
  entropy T*S    EENTRO =        -0.00002862
  eigenvalues    EBANDS =     -3135.12786961
  atomic energy  EATOM  =      9946.85184735
  ---------------------------------------------------
  free energy    TOTEN  =      -585.50349687 eV

  energy without entropy =     -585.50346825  energy(sigma->0) =     -585.50348256
  exchange ACFDT corr.  =        -0.00001486  see jH, gK, PRB 81, 115126


--------------------------------------------------------------------------------------------------------




--------------------------------------- Iteration      1(  12)  ---------------------------------------


    POTLOK:  cpu time    2.0678: real time    2.0696
    SETDIJ:  cpu time    2.1106: real time    2.1120
    TRIAL :  cpu time  312.7825: real time  313.0626
    CORREC:  cpu time    0.0008: real time    0.0008
    CHARGE:  cpu time    1.3354: real time    1.3359
    --------------------------------------------
      LOOP:  cpu time  318.2984: real time  318.5848

 eigenvalue-minimisations  :     0
 total energy-change (2. order) :-0.1712637E-01  (-0.1509422E-01)
 number of electron     239.0000021 magnetization       2.9999303
 augmentation part       15.3324990 magnetization       2.1534344

 DIPCOR: dipole corrections for dipol
 direction  3 min pos     1,
 dipolmoment           0.000150     -0.000008      0.021613 electrons x Angstroem
 Tr[quadrupol]     -6283.148208

 energy correction for charged system         0.000000 eV
 dipol+quadrupol energy correction            0.000013 eV
 added-field ion interaction          0.000000 eV  (added to PSCEN)


 Free energy of the ion-electron system (eV)
  ---------------------------------------------------
  alpha Z        PSCENC =        93.92627340
  Ewald energy   TEWEN  =     38774.04385486
  -Hartree energ DENC   =    -47340.57293320
  -exchange      EXHF   =       547.42735335
  -V(xc)+E(xc)   XCENC  =       614.89302558
  PAW double counting   =     26460.65139140   -26547.68025070
  entropy T*S    EENTRO =        -0.00002389
  eigenvalues    EBANDS =     -3135.06115666
  atomic energy  EATOM  =      9946.85184735
  ---------------------------------------------------
  free energy    TOTEN  =      -585.52062324 eV

  energy without entropy =     -585.52059934  energy(sigma->0) =     -585.52061129
  exchange ACFDT corr.  =        -0.00001173  see jH, gK, PRB 81, 115126


--------------------------------------------------------------------------------------------------------




--------------------------------------- Iteration      1(  13)  ---------------------------------------


    POTLOK:  cpu time    2.0667: real time    2.0684
    SETDIJ:  cpu time    2.1118: real time    2.1129
    TRIAL :  cpu time  313.0214: real time  313.2749
    CORREC:  cpu time    0.0009: real time    0.0008
    CHARGE:  cpu time    1.3341: real time    1.3359
    --------------------------------------------
      LOOP:  cpu time  318.5358: real time  318.7966

 eigenvalue-minimisations  :     0
 total energy-change (2. order) :-0.1420651E-01  (-0.1274355E-01)
 number of electron     239.0000021 magnetization       2.9999408
 augmentation part       15.3311205 magnetization       2.1433289

 DIPCOR: dipole corrections for dipol
 direction  3 min pos     1,
 dipolmoment           0.000162     -0.000009      0.023308 electrons x Angstroem
 Tr[quadrupol]     -6283.148306

 energy correction for charged system         0.000000 eV
 dipol+quadrupol energy correction            0.000016 eV
 added-field ion interaction          0.000000 eV  (added to PSCEN)


 Free energy of the ion-electron system (eV)
  ---------------------------------------------------
  alpha Z        PSCENC =        93.92627557
  Ewald energy   TEWEN  =     38774.04385486
  -Hartree energ DENC   =    -47340.59805205
  -exchange      EXHF   =       547.47489795
  -V(xc)+E(xc)   XCENC  =       614.90702366
  PAW double counting   =     26462.00251171   -26549.08957545
  entropy T*S    EENTRO =        -0.00002072
  eigenvalues    EBANDS =     -3135.05358946
  atomic energy  EATOM  =      9946.85184735
  ---------------------------------------------------
  free energy    TOTEN  =      -585.53482975 eV

  energy without entropy =     -585.53480903  energy(sigma->0) =     -585.53481939
  exchange ACFDT corr.  =        -0.00000969  see jH, gK, PRB 81, 115126


--------------------------------------------------------------------------------------------------------




--------------------------------------- Iteration      1(  14)  ---------------------------------------


    POTLOK:  cpu time    2.0636: real time    2.0654
    SETDIJ:  cpu time    2.1105: real time    2.1119
    TRIAL :  cpu time  313.2316: real time  313.5539
    CORREC:  cpu time    0.0008: real time    0.0008
    CHARGE:  cpu time    1.3374: real time    1.3390
    --------------------------------------------
      LOOP:  cpu time  318.7454: real time  319.0754

 eigenvalue-minimisations  :     0
 total energy-change (2. order) :-0.1210523E-01  (-0.1098123E-01)
 number of electron     239.0000021 magnetization       2.9999483
 augmentation part       15.3297634 magnetization       2.1333565

 DIPCOR: dipole corrections for dipol
 direction  3 min pos     1,
 dipolmoment           0.000180     -0.000010      0.025916 electrons x Angstroem
 Tr[quadrupol]     -6283.147815

 energy correction for charged system         0.000000 eV
 dipol+quadrupol energy correction            0.000019 eV
 added-field ion interaction          0.000000 eV  (added to PSCEN)


 Free energy of the ion-electron system (eV)
  ---------------------------------------------------
  alpha Z        PSCENC =        93.92627924
  Ewald energy   TEWEN  =     38774.04385486
  -Hartree energ DENC   =    -47340.48763019
  -exchange      EXHF   =       547.51385915
  -V(xc)+E(xc)   XCENC  =       614.91583753
  PAW double counting   =     26463.37964850   -26550.48194006
  entropy T*S    EENTRO =        -0.00001846
  eigenvalues    EBANDS =     -3135.20867064
  atomic energy  EATOM  =      9946.85184735
  ---------------------------------------------------
  free energy    TOTEN  =      -585.54693499 eV

  energy without entropy =     -585.54691653  energy(sigma->0) =     -585.54692576
  exchange ACFDT corr.  =        -0.00000835  see jH, gK, PRB 81, 115126


--------------------------------------------------------------------------------------------------------




--------------------------------------- Iteration      1(  15)  ---------------------------------------


    POTLOK:  cpu time    2.0633: real time    2.0648
    SETDIJ:  cpu time    2.1083: real time    2.1097
    TRIAL :  cpu time  312.4383: real time  312.9468
    CORREC:  cpu time    0.0008: real time    0.0008
    CHARGE:  cpu time    1.3563: real time    1.3571
    --------------------------------------------
      LOOP:  cpu time  317.9682: real time  318.4830

 eigenvalue-minimisations  :     0
 total energy-change (2. order) :-0.1051314E-01  (-0.9673921E-02)
 number of electron     239.0000021 magnetization       2.9999539
 augmentation part       15.3289328 magnetization       2.1237028

 DIPCOR: dipole corrections for dipol
 direction  3 min pos     1,
 dipolmoment           0.000196     -0.000010      0.028202 electrons x Angstroem
 Tr[quadrupol]     -6283.147214

 energy correction for charged system         0.000000 eV
 dipol+quadrupol energy correction            0.000023 eV
 added-field ion interaction          0.000000 eV  (added to PSCEN)


 Free energy of the ion-electron system (eV)
  ---------------------------------------------------
  alpha Z        PSCENC =        93.92628278
  Ewald energy   TEWEN  =     38774.04385486
  -Hartree energ DENC   =    -47340.37650575
  -exchange      EXHF   =       547.54814899
  -V(xc)+E(xc)   XCENC  =       614.92317667
  PAW double counting   =     26465.05192036   -26552.17064263
  entropy T*S    EENTRO =        -0.00001676
  eigenvalues    EBANDS =     -3135.35551231
  atomic energy  EATOM  =      9946.85184735
  ---------------------------------------------------
  free energy    TOTEN  =      -585.55744812 eV

  energy without entropy =     -585.55743137  energy(sigma->0) =     -585.55743975
  exchange ACFDT corr.  =        -0.00000739  see jH, gK, PRB 81, 115126


--------------------------------------------------------------------------------------------------------




--------------------------------------- Iteration      1(  16)  ---------------------------------------


    POTLOK:  cpu time    2.0611: real time    2.0642
    SETDIJ:  cpu time    2.1095: real time    2.1105
    TRIAL :  cpu time  312.1244: real time  312.4024
    CORREC:  cpu time    0.0008: real time    0.0008
    CHARGE:  cpu time    1.3350: real time    1.3357
    --------------------------------------------
      LOOP:  cpu time  317.6319: real time  317.9173

 eigenvalue-minimisations  :     0
 total energy-change (2. order) :-0.9327938E-02  (-0.8679243E-02)
 number of electron     239.0000021 magnetization       2.9999582
 augmentation part       15.3279942 magnetization       2.1140838

 DIPCOR: dipole corrections for dipol
 direction  3 min pos     1,
 dipolmoment           0.000206     -0.000011      0.029757 electrons x Angstroem
 Tr[quadrupol]     -6283.146766

 energy correction for charged system         0.000000 eV
 dipol+quadrupol energy correction            0.000025 eV
 added-field ion interaction          0.000000 eV  (added to PSCEN)


 Free energy of the ion-electron system (eV)
  ---------------------------------------------------
  alpha Z        PSCENC =        93.92628535
  Ewald energy   TEWEN  =     38774.04385486
  -Hartree energ DENC   =    -47340.31886340
  -exchange      EXHF   =       547.57986391
  -V(xc)+E(xc)   XCENC  =       614.93076781
  PAW double counting   =     26466.96364165   -26554.11521198
  entropy T*S    EENTRO =        -0.00001548
  eigenvalues    EBANDS =     -3135.42894485
  atomic energy  EATOM  =      9946.85184735
  ---------------------------------------------------
  free energy    TOTEN  =      -585.56677606 eV

  energy without entropy =     -585.56676058  energy(sigma->0) =     -585.56676832
  exchange ACFDT corr.  =        -0.00000668  see jH, gK, PRB 81, 115126


--------------------------------------------------------------------------------------------------------




--------------------------------------- Iteration      1(  17)  ---------------------------------------


    POTLOK:  cpu time    2.0604: real time    2.0626
    SETDIJ:  cpu time    2.1081: real time    2.1102
    TRIAL :  cpu time  312.1809: real time  312.4703
    CORREC:  cpu time    0.0008: real time    0.0008
    CHARGE:  cpu time    1.3330: real time    1.3339
    --------------------------------------------
      LOOP:  cpu time  317.6843: real time  317.9812

 eigenvalue-minimisations  :     0
 total energy-change (2. order) :-0.8419922E-02  (-0.7930199E-02)
 number of electron     239.0000021 magnetization       2.9999615
 augmentation part       15.3266713 magnetization       2.1043158

 DIPCOR: dipole corrections for dipol
 direction  3 min pos     1,
 dipolmoment           0.000216     -0.000012      0.031214 electrons x Angstroem
 Tr[quadrupol]     -6283.146108

 energy correction for charged system         0.000000 eV
 dipol+quadrupol energy correction            0.000028 eV
 added-field ion interaction          0.000000 eV  (added to PSCEN)


 Free energy of the ion-electron system (eV)
  ---------------------------------------------------
  alpha Z        PSCENC =        93.92628789
  Ewald energy   TEWEN  =     38774.04385486
  -Hartree energ DENC   =    -47340.24979598
  -exchange      EXHF   =       547.60855147
  -V(xc)+E(xc)   XCENC  =       614.93746453
  PAW double counting   =     26468.84951475   -26556.03137277
  entropy T*S    EENTRO =        -0.00001453
  eigenvalues    EBANDS =     -3135.51153260
  atomic energy  EATOM  =      9946.85184735
  ---------------------------------------------------
  free energy    TOTEN  =      -585.57519598 eV

  energy without entropy =     -585.57518146  energy(sigma->0) =     -585.57518872
  exchange ACFDT corr.  =        -0.00000615  see jH, gK, PRB 81, 115126


--------------------------------------------------------------------------------------------------------




--------------------------------------- Iteration      1(  18)  ---------------------------------------


    POTLOK:  cpu time    2.0578: real time    2.0606
    SETDIJ:  cpu time    2.1107: real time    2.1123
    TRIAL :  cpu time  312.9695: real time  313.2511
    CORREC:  cpu time    0.0008: real time    0.0008
    CHARGE:  cpu time    1.3338: real time    1.3354
[...]
  Alpha Z    93.92626    93.92626    93.92626
  Ewald   46983.91930 47212.50969-55422.41059    -8.64864  -101.91652     4.48215
  Hartree 46620.60945 46688.42471-45970.98649    -2.31096   -55.02243     2.22723
  E(xc)    -703.97462  -704.17519  -718.70434     0.01516    -0.37778     0.02697
  Local  -96288.71833-96570.96654 98233.14063    10.36569   150.81107    -6.29194
  n-local  -142.56634  -136.15204  -131.89003    -0.64169     2.02359     0.00246
  augment   170.83251   171.55148   179.38709     0.28137     0.75577    -0.15027
  Kinetic  3566.14678  3546.87061  4057.11790     1.03977     5.24897    -0.41015
  Fock     -341.21454  -340.95019  -319.56740    -0.17847    -0.07438     0.05987
  -------------------------------------------------------------------------------------
  Total     -41.03953   -38.96122     0.01303    -0.07777     1.44828    -0.05367
  in kB     -20.69709   -19.64896     0.00657    -0.03922     0.73040    -0.02707
  external pressure =      -13.45 kB  Pullay stress =        0.00 kB


 VOLUME and BASIS-vectors are now :
 -----------------------------------------------------------------------------
  energy-cutoff  :      500.00
  volume of cell :     3176.90
      direct lattice vectors                 reciprocal lattice vectors
    12.742300000  0.000000000  0.000000000     0.078478768  0.000194089 -0.000543986
    -0.030427154 12.303062375  0.000000000     0.000000000  0.081280576  0.000030242
     0.140487009 -0.007540006 20.264811636     0.000000000  0.000000000  0.049346622

  length of vectors
    12.742300000 12.303100000 20.265300000     0.078480893  0.081280582  0.049346622


 FORCES acting on ions:
    Electron-Ion                     Ewald-Force                    Non-Local-Force
 -----------------------------------------------------------------------------------------------
   0.357E+01 0.218E+00 -.736E+00   -.391E+01 -.205E+00 0.732E+00   0.409E+00 -.309E-01 -.660E-02
   0.120E+01 -.193E+01 -.927E+00   -.114E+01 0.185E+01 0.927E+00   -.205E-01 0.575E-01 -.501E-02
   0.364E+01 0.303E+00 0.261E+00   -.381E+01 -.329E+00 -.252E+00   0.627E-01 0.137E-01 -.507E-02
   0.109E+02 0.453E+01 0.338E+00   -.113E+02 -.480E+01 -.363E+00   0.333E+00 0.233E+00 0.179E-01
   0.121E+02 -.458E+01 -.943E-01   -.124E+02 0.479E+01 0.112E+00   0.311E+00 -.112E+00 0.223E-01
   0.336E+01 -.190E+01 -.450E+00   -.348E+01 0.167E+01 0.458E+00   0.183E+00 0.147E+00 -.198E-01
   0.218E-01 0.972E+00 -.146E+01   -.439E+00 -.885E+00 0.151E+01   0.277E+00 -.564E-01 -.424E-01
   0.337E+02 -.170E+02 0.973E+00   -.371E+02 0.174E+02 -.974E+00   0.324E+01 -.462E+00 -.615E-01
   0.433E+01 0.229E+02 -.298E+00   -.570E+01 -.252E+02 0.181E+00   0.134E+01 0.214E+01 0.117E+00
   0.889E+01 0.502E+00 -.206E+00   -.879E+01 -.514E+00 0.199E+00   -.117E+00 -.283E-01 -.775E-02
   -.294E+01 0.495E+01 0.195E+00   0.300E+01 -.538E+01 -.133E+00   -.472E-01 0.439E+00 0.109E-02
   0.259E+01 -.221E+02 -.380E+01   -.420E+01 0.243E+02 0.372E+01   0.146E+01 -.205E+01 0.974E-01
   0.380E+01 0.183E+01 0.412E+00   -.395E+01 -.163E+01 -.393E+00   0.219E+00 -.137E+00 -.155E-01
   -.180E+01 -.532E+01 -.832E+00   0.189E+01 0.583E+01 0.884E+00   0.177E-01 -.465E+00 -.221E-01
   0.256E+02 0.154E+02 -.706E+01   -.293E+02 -.158E+02 0.685E+01   0.345E+01 0.423E+00 0.181E+00
   0.915E+01 0.383E+01 -.230E+01   -.953E+01 -.394E+01 0.233E+01   0.483E+00 0.252E-01 0.458E-02
   0.146E+01 0.143E+01 0.174E+01   -.142E+01 -.131E+01 -.174E+01   0.976E-02 -.404E-01 0.777E-02
   0.135E-01 -.747E+00 0.122E+01   -.524E+00 0.603E+00 -.121E+01   0.379E+00 0.625E-01 0.175E-02
   0.789E+01 -.200E+01 -.323E+01   -.826E+01 0.237E+01 0.324E+01   0.290E+00 -.288E+00 -.470E-02
   -.526E+01 0.389E+01 -.453E+01   0.482E+01 -.388E+01 0.457E+01   0.326E+00 0.983E-02 -.485E-01
   0.275E+01 0.105E+02 0.150E+00   -.258E+01 -.111E+02 -.478E-01   -.438E-01 0.537E+00 -.262E-01
   0.525E+01 0.222E+01 -.388E+01   -.481E+01 -.219E+01 0.392E+01   -.329E+00 -.176E-01 -.513E-01
   -.248E+01 0.109E+02 -.155E+01   0.229E+01 -.114E+02 0.164E+01   0.503E-01 0.549E+00 -.278E-01
   0.728E+01 0.351E+02 0.941E-01   -.854E+01 -.381E+02 0.857E-01   0.133E+01 0.292E+01 -.107E+00
   -.447E+01 0.330E+02 0.133E+01   0.568E+01 -.360E+02 -.119E+01   -.127E+01 0.288E+01 -.513E-01
   0.992E+01 -.174E+02 -.119E+02   -.111E+02 0.203E+02 0.117E+02   0.124E+01 -.272E+01 0.129E+00
   0.324E+00 -.351E+01 -.651E+01   -.750E-01 0.404E+01 0.653E+01   -.111E+00 -.619E+00 -.175E-01
   -.131E+02 -.197E+02 -.122E+02   0.145E+02 0.228E+02 0.120E+02   -.141E+01 -.284E+01 0.146E+00
   -.715E+00 -.281E+01 -.688E+01   0.467E+00 0.331E+01 0.689E+01   0.106E+00 -.575E+00 -.175E-01
   -.359E+01 0.122E+00 -.780E+00   0.375E+01 -.145E+00 0.787E+00   -.626E-01 0.111E-01 -.457E-02
   -.107E+02 0.566E+01 -.229E+01   0.111E+02 -.596E+01 0.226E+01   -.329E+00 0.256E+00 0.144E-01
   -.356E+01 0.176E+01 -.257E+01   0.390E+01 -.177E+01 0.257E+01   -.403E+00 -.102E-01 -.137E-01
   -.171E+01 -.816E+00 -.178E+01   0.167E+01 0.735E+00 0.178E+01   -.565E-02 0.655E-01 -.115E-01
   -.105E+01 0.887E+00 -.297E+01   0.148E+01 -.801E+00 0.301E+01   -.303E+00 -.534E-01 -.385E-01
   -.354E+02 -.164E+02 -.644E+00   0.388E+02 0.168E+02 0.655E+00   -.329E+01 -.490E+00 -.928E-01
   -.130E+02 -.319E+01 -.303E+01   0.133E+02 0.338E+01 0.305E+01   -.323E+00 -.863E-01 -.432E-02
   -.423E+01 -.210E+01 -.105E+01   0.436E+01 0.188E+01 0.106E+01   -.207E+00 0.140E+00 -.318E-01
   0.186E+01 0.483E+01 0.499E+00   -.189E+01 -.526E+01 -.421E+00   0.251E-01 0.438E+00 -.112E-01
   -.586E+01 0.201E+02 0.134E+01   0.726E+01 -.222E+02 -.143E+01   -.138E+01 0.209E+01 0.109E+00
   -.849E+01 -.143E+01 0.566E+00   0.838E+01 0.145E+01 -.587E+00   0.128E+00 -.597E-01 0.101E-01
   0.381E+01 -.536E+01 0.421E+00   -.395E+01 0.587E+01 -.358E+00   0.526E-01 -.467E+00 -.348E-01
   -.235E+02 0.178E+02 -.477E+01   0.270E+02 -.182E+02 0.457E+01   -.331E+01 0.435E+00 0.177E+00
   0.712E+00 -.249E+02 -.310E+00   0.821E+00 0.271E+02 0.254E+00   -.139E+01 -.210E+01 0.843E-01
   -.231E+01 0.175E+01 0.849E+00   0.243E+01 -.156E+01 -.832E+00   -.176E+00 -.128E+00 -.138E-01
   0.146E+01 -.653E+00 0.154E+01   -.997E+00 0.503E+00 -.153E+01   -.340E+00 0.675E-01 0.119E-02
   -.821E+01 -.627E+00 -.385E+01   0.859E+01 0.958E+00 0.386E+01   -.299E+00 -.251E+00 -.249E-02
   -.806E+01 0.601E+01 -.169E+01   0.839E+01 -.619E+01 0.173E+01   -.434E+00 0.913E-01 -.185E-02
   -.653E+00 0.261E+01 0.152E+01   0.592E+00 -.251E+01 -.152E+01   0.805E-02 -.199E-01 0.594E-02
   -.113E+03 -.280E+01 -.622E+01   0.142E+03 0.314E+01 0.561E+01   -.272E+02 -.318E+00 0.359E+00
   0.188E+02 -.576E+02 0.158E+01   -.876E+01 0.759E+02 -.230E+01   -.979E+01 -.177E+02 0.553E+00
   -.171E+02 -.560E+02 0.198E+00   0.696E+01 0.747E+02 -.960E+00   0.984E+01 -.179E+02 0.629E+00
   -.170E+02 0.733E+02 -.198E+02   0.272E+02 -.917E+02 0.197E+02   -.952E+01 0.175E+02 0.223E-01
   0.162E+02 0.803E+02 -.172E+02   -.269E+02 -.994E+02 0.170E+02   0.994E+01 0.181E+02 0.138E+00
   0.116E+03 -.768E+01 0.101E+01   -.145E+03 0.757E+01 -.183E+01   0.274E+02 0.109E+00 0.570E+00
   -.302E+01 -.140E+03 0.332E+03   0.298E+01 0.132E+03 -.325E+03   0.172E+00 0.663E+01 -.738E+01
   -.610E+01 0.460E+02 -.207E+03   0.585E+01 -.425E+02 0.207E+03   0.205E+00 -.128E+01 0.160E+01
 -----------------------------------------------------------------------------------------------
   -.127E+01 -.504E+01 0.287E+01   0.362E-12 0.171E-12 0.114E-12   0.123E+01 0.516E+01 -.318E+01
 
 
 POSITION                                       TOTAL-FORCE (eV/Angst)
 -----------------------------------------------------------------------------------
      2.89866      0.00776     10.13633         0.086316     -0.019920     -0.011138
      0.77728      1.24811     10.13005         0.038856     -0.017590     -0.005197
      1.47444      0.00590     10.13243        -0.102005     -0.010787      0.003142
      3.60451      1.24815     10.11815        -0.031250     -0.024526     -0.005902
      2.92725      2.50201     10.11011         0.100586      0.088673      0.040949
      0.77632      3.71451     10.12289         0.080606     -0.073333     -0.013456
      1.49062      2.48840     10.12383        -0.129676      0.032538      0.002740
      3.68335      3.72906     10.08522         0.035790     -0.144817     -0.067577
      2.95446      4.99383     10.11497         0.052721      0.068739      0.007039
      0.76789      6.15720     10.12960        -0.013928     -0.040666     -0.014684
      1.50216      4.94085     10.12212         0.000362      0.030697      0.063696
      2.92999      7.34103     10.15567        -0.064890     -0.060371      0.019124
      0.75084      8.60241     10.13832         0.084273      0.053040      0.002904
      1.48423      7.38158     10.14055         0.100166      0.015529      0.029476
      3.64468      8.60396     10.18651        -0.017431      0.001709     -0.019472
      2.89104      9.82388     10.16110         0.128252     -0.078716      0.035359
      0.74452     11.06766     10.13310         0.052073      0.071273      0.010999
      1.45847      9.83108     10.14069        -0.116079     -0.082138      0.009208
      3.57476     11.07438     10.15862        -0.057339      0.059618      0.008545
      7.13689     -0.00272     10.14967        -0.099222      0.022075     -0.009879
      5.02394      1.24451     10.11176         0.117812      0.042915      0.075281
      5.72650      0.00420     10.14756         0.110415      0.015766     -0.012799
      7.83993      1.23430     10.11777        -0.127316      0.034876      0.060393
      7.15463      2.47925     10.07203         0.142088      0.104361      0.066419
      5.70965      2.48889     10.06870        -0.135007      0.108317      0.084820
      7.12289      9.81032     10.21029         0.116212      0.069648     -0.032303
      4.99581     11.06969     10.17538         0.126935     -0.116624     -0.000771
      5.67967      9.81999     10.21297        -0.097992      0.083734     -0.029825
      7.80691     11.06019     10.17588        -0.131318     -0.113525     -0.000024
     11.38921      0.00063     10.13627         0.095712     -0.012278      0.002129
      9.25904      1.23555     10.12722         0.025697     -0.023847     -0.011330
      9.96511     -0.00347     10.14261        -0.085135     -0.020218     -0.014875
     12.08798      1.24404     10.13298        -0.050682     -0.013372     -0.006361
     11.37302      2.48084     10.12883         0.124049      0.034209     -0.002714
      9.18227      3.70853     10.08737        -0.066055     -0.159718     -0.087850
      9.93824      2.48681     10.11868        -0.087197      0.089265      0.018495
     12.08064      3.71080     10.12389        -0.089278     -0.079150     -0.018485
     11.34601      4.93231     10.11805         0.000007      0.037329      0.065857
      9.89715      4.97644     10.10405        -0.068595      0.093274      0.021852
     12.06439      6.15465     10.12550         0.010957     -0.044361     -0.010894
     11.33210      7.37317     10.13223        -0.083650      0.014780      0.027326
      9.15274      8.58388     10.17396         0.006478      0.025219     -0.013719
      9.88279      7.32309     10.13744         0.064579     -0.077761      0.032243
     12.05720      8.59841     10.13536        -0.072973      0.057065      0.002605
     11.34350      9.82363     10.13805         0.111271     -0.084770      0.008965
      9.22776     11.06186     10.15977         0.055213      0.064554      0.006420
      9.90876      9.80864     10.15626        -0.126279     -0.079190      0.036237
     12.05673     11.06333     10.13358        -0.052163      0.080871      0.011135
      3.62916      6.17287     10.13899        -0.583517     -0.008830     -0.213832
      5.06220      3.70743     10.03375        -0.592332     -0.815871     -0.114002
      7.80973      3.68664     10.03587         0.571916     -0.745792     -0.071879
      5.01876      8.61708     10.23155        -0.114750      0.560715     -0.038173
      7.77439      8.59814     10.22081         0.137145      0.612694     -0.028639
      9.20366      6.14383     10.11393         0.595837      0.011260     -0.196982
      6.45089      5.00957      9.65267         0.061122     -1.413022     -0.428895
      6.35084      7.06373     10.44208        -0.037385      1.776451      0.728295
 -----------------------------------------------------------------------------------
    total drift:                                0.000056     -0.009504     -0.006644


--------------------------------------------------------------------------------------------------------



  FREE ENERGIE OF THE ION-ELECTRON SYSTEM (eV)
  ---------------------------------------------------
  free  energy   TOTEN  =      -585.92360524 eV

  energy  without entropy=     -585.92342483  energy(sigma->0) =     -585.92351504
 


--------------------------------------------------------------------------------------------------------


    POTLOK:  cpu time    4.1389: real time    4.1414


--------------------------------------------------------------------------------------------------------


 stress matrix after NEB project (eV)
    -41.03953     -0.07781     -0.05367
     -0.07777    -38.96122      1.45753
     -0.05255      1.44828      0.01303
  FORCES: max atom, RMS     1.920310    0.421463
  FORCE total and by dimension    3.153942    1.776451
  Stress total and by dimension   56.625606   41.039527
 writing wavefunctions
     LOOP+:  cpu time80217.1532: real time80298.1807
    4ORBIT:  cpu time    0.0000: real time    0.0000
 


 total charge     
 
# of ion       s       p       d       tot
------------------------------------------
    1        0.864   1.786   0.000   2.650
    2        0.866   1.767   0.000   2.633
    3        0.867   1.779   0.000   2.646
    4        0.870   1.771   0.000   2.641
    5        0.863   1.761   0.000   2.624
    6        0.864   1.775   0.000   2.640
    7        0.865   1.767   0.000   2.633
    8        0.852   1.719   0.000   2.571
    9        0.854   1.725   0.000   2.579
   10        0.868   1.765   0.000   2.633
   11        0.865   1.763   0.000   2.629
   12        0.856   1.736   0.000   2.591
   13        0.865   1.779   0.000   2.643
   14        0.866   1.771   0.000   2.638
   15        0.856   1.729   0.000   2.585
   16        0.865   1.769   0.000   2.634
   17        0.866   1.770   0.000   2.636
   18        0.866   1.774   0.000   2.640
   19        0.871   1.770   0.000   2.641
   20        0.866   1.796   0.000   2.662
   21        0.869   1.783   0.000   2.652
   22        0.866   1.796   0.000   2.662
   23        0.870   1.785   0.000   2.655
   24        0.861   1.748   0.000   2.609
   25        0.860   1.744   0.000   2.604
   26        0.860   1.742   0.000   2.603
   27        0.869   1.784   0.000   2.653
   28        0.861   1.745   0.000   2.606
   29        0.868   1.782   0.000   2.651
   30        0.867   1.779   0.000   2.646
   31        0.871   1.773   0.000   2.644
   32        0.864   1.786   0.000   2.650
   33        0.866   1.768   0.000   2.633
   34        0.866   1.770   0.000   2.636
   35        0.855   1.729   0.000   2.584
   36        0.864   1.767   0.000   2.631
   37        0.864   1.776   0.000   2.640
   38        0.866   1.767   0.000   2.634
   39        0.856   1.731   0.000   2.587
   40        0.868   1.765   0.000   2.633
   41        0.865   1.767   0.000   2.632
   42        0.854   1.718   0.000   2.571
   43        0.854   1.729   0.000   2.583
   44        0.865   1.778   0.000   2.643
   45        0.866   1.771   0.000   2.636
   46        0.871   1.769   0.000   2.639
   47        0.864   1.764   0.000   2.627
   48        0.866   1.770   0.000   2.636
   49        1.247   2.622   0.000   3.869
   50        1.230   2.658   0.000   3.888
   51        1.232   2.670   0.000   3.903
   52        1.230   2.679   0.000   3.908
   53        1.229   2.663   0.000   3.892
   54        1.248   2.620   0.000   3.868
   55        0.382   0.344   7.400   8.127
   56        0.427   0.350   5.925   6.702
--------------------------------------------------
tot         49.699 101.265  13.325 164.289
 


 magnetization (x)
 
# of ion       s       p       d       tot
------------------------------------------
    1       -0.001  -0.008   0.000  -0.008
    2       -0.000  -0.002   0.000  -0.003
    3        0.001   0.008   0.000   0.008
    4        0.001   0.019   0.000   0.021
    5       -0.001  -0.009   0.000  -0.011
    6       -0.000  -0.003   0.000  -0.003
    7        0.000   0.005   0.000   0.005
    8        0.002   0.031   0.000   0.033
    9       -0.001  -0.005   0.000  -0.006
   10        0.000   0.008   0.000   0.008
   11        0.000   0.002   0.000   0.002
   12       -0.001  -0.002   0.000  -0.002
   13       -0.000  -0.003   0.000  -0.003
   14        0.000   0.007   0.000   0.008
   15        0.001   0.019   0.000   0.020
   16       -0.000  -0.006   0.000  -0.006
   17       -0.000  -0.002   0.000  -0.002
   18        0.001   0.010   0.000   0.011
   19        0.001   0.010   0.000   0.011
   20        0.000   0.003   0.000   0.003
   21       -0.001  -0.005   0.000  -0.006
   22        0.000   0.003   0.000   0.003
   23       -0.001  -0.006   0.000  -0.006
   24        0.001   0.016   0.000   0.017
   25        0.001   0.016   0.000   0.016
   26        0.000   0.003   0.000   0.003
   27        0.000  -0.001   0.000  -0.001
   28        0.000   0.003   0.000   0.004
   29       -0.000  -0.001   0.000  -0.001
   30        0.001   0.009   0.000   0.009
   31        0.001   0.019   0.000   0.020
   32       -0.001  -0.008   0.000  -0.009
   33       -0.000  -0.003   0.000  -0.003
   34        0.000   0.006   0.000   0.006
   35        0.002   0.030   0.000   0.032
   36       -0.001  -0.010   0.000  -0.011
   37       -0.000  -0.003   0.000  -0.004
   38        0.000   0.003   0.000   0.003
   39       -0.001  -0.006   0.000  -0.007
   40        0.000   0.006   0.000   0.007
   41        0.000   0.008   0.000   0.008
   42        0.001   0.020   0.000   0.021
   43       -0.001  -0.003   0.000  -0.004
   44       -0.000  -0.004   0.000  -0.004
   45        0.001   0.011   0.000   0.012
   46        0.001   0.010   0.000   0.011
   47       -0.000  -0.006   0.000  -0.006
   48       -0.000  -0.002   0.000  -0.003
   49        0.008   0.074   0.000   0.082
   50       -0.001   0.009   0.000   0.008
   51       -0.002   0.000   0.000  -0.002
   52        0.008   0.032   0.000   0.039
   53        0.009   0.034   0.000   0.042
   54        0.007   0.072   0.000   0.079
   55        0.012   0.013  -1.743  -1.718
   56        0.106   0.087   3.591   3.784
--------------------------------------------------
tot          0.154   0.504   1.848   2.507
 

 total amount of memory used by VASP MPI-rank0   216950. kBytes
=======================================================================

   base      :      30000. kBytes
   nonl-proj :       6967. kBytes
   fftplans  :      17535. kBytes
   grid      :      46049. kBytes
   one-center:         93. kBytes
   HF        :         46. kBytes
   nonlr-proj:      15985. kBytes
   wavefun   :     100275. kBytes
 
  
  
 General timing and accounting informations for this job:
 ========================================================
  
                  Total CPU time used (sec):    80267.945
                            User time (sec):    80153.405
                          System time (sec):      114.544
                         Elapsed time (sec):    80355.252
  
                   Maximum memory used (kb):      486232.
                   Average memory used (kb):           0.
  
                          Minor page faults:      4474184
                          Major page faults:          213
                 Voluntary context switches:       811601
