 vasp.5.4.4.18Apr17-6-g9f103f2a35 (build Feb 25 2019 10:51:38) complex          
  
 executed on             LinuxIFC date 2022.02.08  14:51:03
 running on   32 total cores
 distrk:  each k-point on   32 cores,    1 groups
 distr:  one band on NCORES_PER_BAND=  32 cores,    1 groups


--------------------------------------------------------------------------------------------------------


 INCAR:
 POTCAR:    PAW_PBE C 08Apr2002                   
 POTCAR:    PAW_PBE N 08Apr2002                   
 POTCAR:    PAW_PBE Cu 22Jun2005                  
 POTCAR:    PAW_PBE Fe 06Sep2000                  

 ----------------------------------------------------------------------------- 
|                                                                             |
|           W    W    AA    RRRRR   N    N  II  N    N   GGGG   !!!           |
|           W    W   A  A   R    R  NN   N  II  NN   N  G    G  !!!           |
|           W    W  A    A  R    R  N N  N  II  N N  N  G       !!!           |
|           W WW W  AAAAAA  RRRRR   N  N N  II  N  N N  G  GGG   !            |
|           WW  WW  A    A  R   R   N   NN  II  N   NN  G    G                |
|           W    W  A    A  R    R  N    N  II  N    N   GGGG   !!!           |
|                                                                             |
|      For optimal performance we recommend to set                            |
|        NCORE= 4 - approx SQRT( number of cores)                             |
|      NCORE specifies how many cores store one orbital (NPAR=cpu/NCORE).     |
|      This setting can  greatly improve the performance of VASP for DFT.     |
|      The default,   NCORE=1            might be grossly inefficient         |
|      on modern multi-core architectures or massively parallel machines.     |
|      Do your own testing !!!!                                               |
|      Unfortunately you need to use the default for GW and RPA calculations. |
|      (for HF NCORE is supported but not extensively tested yet)             |
|                                                                             |
 ----------------------------------------------------------------------------- 

 POTCAR:    PAW_PBE C 08Apr2002                   
   VRHFIN =C: s2p2                                                              
   LEXCH  = PE                                                                  
   EATOM  =   147.1560 eV,   10.8157 Ry                                         
                                                                                
   TITEL  = PAW_PBE C 08Apr2002                                                 
   LULTRA =        F    use ultrasoft PP ?                                      
   IUNSCR =        1    unscreen: 0-lin 1-nonlin 2-no                           
   RPACOR =    1.200    partial core radius                                     
   POMASS =   12.011; ZVAL   =    4.000    mass and valenz                      
   RCORE  =    1.500    outmost cutoff radius                                   
   RWIGS  =    1.630; RWIGS  =    0.863    wigner-seitz radius (au A)           
   ENMAX  =  400.000; ENMIN  =  300.000 eV                                      
   ICORE  =        2    local potential                                         
   LCOR   =        T    correct aug charges                                     
   LPAW   =        T    paw PP                                                  
   EAUG   =  644.873                                                            
   DEXC   =    0.000                                                            
   RMAX   =    1.529    core radius for proj-oper                               
   RAUG   =    1.300    factor for augmentation sphere                          
   RDEP   =    1.501    radius for radial grids                                 
   RDEPT  =    1.300    core radius for aug-charge                              
                                                                                
   Atomic configuration                                                         
    4 entries                                                                   
     n  l   j            E        occ.                                          
     1  0  0.50      -273.3789   2.0000                                         
     2  0  0.50       -13.7508   2.0000                                         
     2  1  0.50        -5.2854   2.0000                                         
     3  2  1.50        -5.4423   0.0000                                         
   Description                                                                  
     l       E           TYP  RCUT    TYP  RCUT                                 
     0    -13.7508458     23  1.200                                             
     0     -8.2022199     23  1.200                                             
     1     -5.2854383     23  1.500                                             
     1     34.0145650     23  1.500                                             
     2     -5.4423304      7  1.500                                             
  local pseudopotential read in
  partial core-charges read in
  partial kinetic energy density read in
  atomic valenz-charges read in
  non local Contribution for L=           0  read in
    real space projection operators read in
  non local Contribution for L=           0  read in
    real space projection operators read in
  non local Contribution for L=           1  read in
    real space projection operators read in
  non local Contribution for L=           1  read in
    real space projection operators read in
    PAW grid and wavefunctions read in
 
   number of l-projection  operators is LMAX  =           4
   number of lm-projection operators is LMMAX =           8
 
 POTCAR:    PAW_PBE N 08Apr2002                   
   VRHFIN =N: s2p3                                                              
   LEXCH  = PE                                                                  
   EATOM  =   264.5486 eV,   19.4438 Ry                                         
                                                                                
   TITEL  = PAW_PBE N 08Apr2002                                                 
   LULTRA =        F    use ultrasoft PP ?                                      
   IUNSCR =        1    unscreen: 0-lin 1-nonlin 2-no                           
   RPACOR =    1.200    partial core radius                                     
   POMASS =   14.001; ZVAL   =    5.000    mass and valenz                      
   RCORE  =    1.500    outmost cutoff radius                                   
   RWIGS  =    1.400; RWIGS  =    0.741    wigner-seitz radius (au A)           
   ENMAX  =  400.000; ENMIN  =  300.000 eV                                      
   ICORE  =        2    local potential                                         
   LCOR   =        T    correct aug charges                                     
   LPAW   =        T    paw PP                                                  
   EAUG   =  627.112                                                            
   DEXC   =    0.000                                                            
   RMAX   =    1.529    core radius for proj-oper                               
   RAUG   =    1.300    factor for augmentation sphere                          
   RDEP   =    1.514    radius for radial grids                                 
   RDEPT  =    1.338    core radius for aug-charge                              
                                                                                
   Atomic configuration                                                         
    4 entries                                                                   
     n  l   j            E        occ.                                          
     1  0  0.50      -384.7179   2.0000                                         
     2  0  0.50       -18.5828   2.0000                                         
     2  1  0.50        -7.0898   3.0000                                         
     3  2  1.50        -6.8029   0.0000                                         
   Description                                                                  
     l       E           TYP  RCUT    TYP  RCUT                                 
     0    -18.5828119     23  1.200                                             
     0    -13.5018863     23  1.200                                             
     1     -7.0897853     23  1.500                                             
     1      9.5240782     23  1.500                                             
     2     -6.8029130      7  1.500                                             
  local pseudopotential read in
  partial core-charges read in
  partial kinetic energy density read in
  atomic valenz-charges read in
  non local Contribution for L=           0  read in
    real space projection operators read in
  non local Contribution for L=           0  read in
    real space projection operators read in
  non local Contribution for L=           1  read in
    real space projection operators read in
  non local Contribution for L=           1  read in
    real space projection operators read in
    PAW grid and wavefunctions read in
 
   number of l-projection  operators is LMAX  =           4
   number of lm-projection operators is LMMAX =           8
 
 POTCAR:    PAW_PBE Cu 22Jun2005                  
   VRHFIN =Cu: d10 p1                                                           
   LEXCH  = PE                                                                  
   EATOM  =  1390.9808 eV,  102.2342 Ry                                         
                                                                                
   TITEL  = PAW_PBE Cu 22Jun2005                                                
   LULTRA =        F    use ultrasoft PP ?                                      
   IUNSCR =        1    unscreen: 0-lin 1-nonlin 2-no                           
   RPACOR =    2.000    partial core radius                                     
   POMASS =   63.546; ZVAL   =   11.000    mass and valenz                      
   RCORE  =    2.300    outmost cutoff radius                                   
   RWIGS  =    2.200; RWIGS  =    1.164    wigner-seitz radius (au A)           
   ENMAX  =  295.446; ENMIN  =  221.585 eV                                      
   ICORE  =        3    local potential                                         
   LCOR   =        T    correct aug charges                                     
   LPAW   =        T    paw PP                                                  
   EAUG   =  586.980                                                            
   DEXC   =    0.000                                                            
   RMAX   =    2.344    core radius for proj-oper                               
   RAUG   =    1.300    factor for augmentation sphere                          
   RDEP   =    2.302    radius for radial grids                                 
   RDEPT  =    1.771    core radius for aug-charge                              
                                                                                
   Atomic configuration                                                         
    9 entries                                                                   
     n  l   j            E        occ.                                          
     1  0  0.50     -8850.2468   2.0000                                         
     2  0  0.50     -1062.3498   2.0000                                         
     2  1  1.50      -916.8226   6.0000                                         
     3  0  0.50      -114.6929   2.0000                                         
     3  1  1.50       -72.1325   6.0000                                         
     3  2  2.50        -5.0394  10.0000                                         
     4  0  0.50        -4.6097   1.0000                                         
     4  1  0.50        -4.0817   0.0000                                         
     4  3  2.50        -1.3606   0.0000                                         
   Description                                                                  
     l       E           TYP  RCUT    TYP  RCUT                                 
     2     -5.0393973     23  2.200                                             
     2     10.8846608     23  2.200                                             
     0     -4.6097109     23  2.200                                             
     0      8.2520465     23  2.200                                             
     1     -2.7211652     23  2.200                                             
     1     21.7055443     23  2.200                                             
     3      2.7211652     23  2.300                                             
  local pseudopotential read in
  partial core-charges read in
  partial kinetic energy density read in
  atomic valenz-charges read in
  non local Contribution for L=           2  read in
    real space projection operators read in
  non local Contribution for L=           2  read in
    real space projection operators read in
  non local Contribution for L=           0  read in
    real space projection operators read in
  non local Contribution for L=           0  read in
    real space projection operators read in
  non local Contribution for L=           1  read in
    real space projection operators read in
  non local Contribution for L=           1  read in
    real space projection operators read in
    PAW grid and wavefunctions read in
 
   number of l-projection  operators is LMAX  =           6
   number of lm-projection operators is LMMAX =          18
 
 POTCAR:    PAW_PBE Fe 06Sep2000                  
   VRHFIN =Fe:  d7 s1                                                           
   LEXCH  = PE                                                                  
   EATOM  =   594.3153 eV,   43.6809 Ry                                         
                                                                                
   TITEL  = PAW_PBE Fe 06Sep2000                                                
   LULTRA =        F    use ultrasoft PP ?                                      
   IUNSCR =        1    unscreen: 0-lin 1-nonlin 2-no                           
   RPACOR =    2.000    partial core radius                                     
   POMASS =   55.847; ZVAL   =    8.000    mass and valenz                      
   RCORE  =    2.300    outmost cutoff radius                                   
   RWIGS  =    2.460; RWIGS  =    1.302    wigner-seitz radius (au A)           
   ENMAX  =  267.882; ENMIN  =  200.911 eV                                      
   RCLOC  =    1.701    cutoff for local pot                                    
   LCOR   =        T    correct aug charges                                     
   LPAW   =        T    paw PP                                                  
   EAUG   =  511.368                                                            
   DEXC   =    0.000                                                            
   RMAX   =    2.356    core radius for proj-oper                               
   RAUG   =    1.300    factor for augmentation sphere                          
   RDEP   =    2.442    radius for radial grids                                 
   RDEPT  =    1.890    core radius for aug-charge                              
                                                                                
   Atomic configuration                                                         
    9 entries                                                                   
     n  l   j            E        occ.                                          
     1  0  0.50     -6993.8440   2.0000                                         
     2  0  0.50      -814.6047   2.0000                                         
     2  1  1.50      -693.3689   6.0000                                         
     3  0  0.50       -89.4732   2.0000                                         
     3  1  1.50       -55.6373   6.0000                                         
     3  2  2.50        -3.8151   7.0000                                         
     4  0  0.50        -4.2551   1.0000                                         
     4  1  1.50        -3.4015   0.0000                                         
     4  3  2.50        -1.3606   0.0000                                         
   Description                                                                  
     l       E           TYP  RCUT    TYP  RCUT                                 
     2     -3.8151135     23  2.300                                             
     2     -5.1756961     23  2.300                                             
     0     -4.2550963     23  2.300                                             
     0      7.2035603     23  2.300                                             
     1     -2.7211652     23  2.300                                             
     1     18.4316424     23  2.300                                             
  local pseudopotential read in
  partial core-charges read in
  partial kinetic energy density read in
  atomic valenz-charges read in
  non local Contribution for L=           2  read in
    real space projection operators read in
  non local Contribution for L=           2  read in
    real space projection operators read in
  non local Contribution for L=           0  read in
    real space projection operators read in
  non local Contribution for L=           0  read in
    real space projection operators read in
  non local Contribution for L=           1  read in
    real space projection operators read in
  non local Contribution for L=           1  read in
    real space projection operators read in
    PAW grid and wavefunctions read in
 
   number of l-projection  operators is LMAX  =           6
   number of lm-projection operators is LMMAX =          18
 

 ----------------------------------------------------------------------------- 
|                                                                             |
|  ADVICE TO THIS USER RUNNING 'VASP/VAMP'   (HEAR YOUR MASTER'S VOICE ...):  |
|                                                                             |
|      You have a (more or less) 'large supercell' and for larger cells       |
|      it might be more efficient to use real space projection opertators     |
|      So try LREAL= Auto  in the INCAR   file.                               |
|      Mind:          For very  accurate calculation you might also keep the  |
|      reciprocal projection scheme          (i.e. LREAL=.FALSE.)             |
|                                                                             |
 ----------------------------------------------------------------------------- 

  PAW_PBE C 08Apr2002                   :
 energy of atom  1       EATOM= -147.1560
 kinetic energy error for atom=    0.0076 (will be added to EATOM!!)
  PAW_PBE N 08Apr2002                   :
 energy of atom  2       EATOM= -264.5486
 kinetic energy error for atom=    0.0138 (will be added to EATOM!!)
  PAW_PBE Cu 22Jun2005                  :
 energy of atom  3       EATOM=-1390.9808
 kinetic energy error for atom=    0.0043 (will be added to EATOM!!)
  PAW_PBE Fe 06Sep2000                  :
 energy of atom  4       EATOM= -594.3153
 kinetic energy error for atom=    0.0026 (will be added to EATOM!!)
 
 
 POSCAR:  C  N Cu Fe                             
  positions in cartesian coordinates
  No initial velocities read in
 exchange correlation table for  LEXCH =        8
   RHO(1)=    0.500       N(1)  =     2000
   RHO(2)=  100.500       N(2)  =     4000

 VTST: version 3.2, (02/03/18)

 CHAIN: initializing optimizer
 
 OPT: Using VASP Conjugate-Gradient optimizer
 CHAIN: Read ICHAIN            0
 
 POSCAR:  C  N Cu Fe                             
  positions in cartesian coordinates
  No initial velocities read in
 


--------------------------------------------------------------------------------------------------------


 ion  position               nearest neighbor table
   1  0.222  0.999  0.500-  17 1.42   3 1.42   4 1.42
   2  0.055  0.099  0.500-  34 1.42   7 1.43   3 1.43
   3  0.110  1.000  0.500-   1 1.42  15 1.43   2 1.43
   4  0.278  0.097  0.500-  19 1.42   5 1.42   1 1.42
   5  0.222  0.196  0.500-   4 1.42   8 1.42   7 1.42
   6  0.057  0.299  0.500-  38 1.44   7 1.44  10 1.45
   7  0.111  0.198  0.500-   5 1.42   2 1.43   6 1.44
   8  0.279  0.293  0.500-  53 1.38   5 1.42  51 1.43
   9  0.062  0.499  0.500-  42 1.46  10 1.46  12 1.47
  10  0.118  0.397  0.500-  53 1.38   6 1.45   9 1.46
  11  0.057  0.700  0.500-  46 1.42  16 1.43  12 1.44
  12  0.116  0.602  0.500-  54 1.37  11 1.44   9 1.47
  13  0.276  0.704  0.500-  54 1.36  14 1.41  25 1.45
  14  0.222  0.802  0.500-  13 1.41  16 1.42  17 1.42
  15  0.055  0.900  0.500-  50 1.41  16 1.43   3 1.43
  16  0.110  0.801  0.500-  14 1.42  15 1.43  11 1.43
  17  0.278  0.901  0.500-  28 1.42   1 1.42  14 1.42
  18  0.556  0.998  0.500-  30 1.42  20 1.42  21 1.43
  19  0.389  0.097  0.500-   4 1.42  20 1.42  23 1.43
  20  0.445  0.998  0.500-  18 1.42  28 1.42  19 1.42
  21  0.612  0.097  0.500-  22 1.41  32 1.42  18 1.43
  22  0.557  0.195  0.500-  55 1.38  21 1.41  23 1.44
  23  0.444  0.196  0.500-  51 1.42  19 1.43  22 1.44
  24  0.556  0.605  0.500-  56 1.39  26 1.42  52 1.42  58 2.57
  25  0.389  0.701  0.500-  52 1.43  29 1.43  13 1.45
  26  0.612  0.703  0.500-  27 1.42  44 1.42  24 1.42
  27  0.556  0.801  0.500-  26 1.42  29 1.42  30 1.43
  28  0.389  0.899  0.500-  17 1.42  20 1.42  29 1.43
  29  0.444  0.800  0.500-  27 1.42  28 1.43  25 1.43
  30  0.612  0.900  0.500-  18 1.42  48 1.42  27 1.43
  31  0.889  1.000  0.500-  33 1.41  34 1.43  50 1.44
  32  0.723  0.099  0.500-  21 1.42  33 1.43  37 1.43
  33  0.778  0.999  0.500-  31 1.41  32 1.43  48 1.43
  34  0.943  0.100  0.500-   2 1.42  31 1.43  35 1.44
  35  0.888  0.201  0.500-  37 1.43  38 1.44  34 1.44
  36  0.716  0.299  0.500-  55 1.39  37 1.45  41 1.46
  37  0.776  0.200  0.500-  35 1.43  32 1.43  36 1.45
  38  0.944  0.301  0.500-   6 1.44  35 1.44  39 1.44
  39  0.887  0.400  0.500-  38 1.44  42 1.46  41 1.46
  40  0.718  0.503  0.500-  56 1.37  45 1.44  41 1.45
  41  0.772  0.400  0.500-  40 1.45  39 1.46  36 1.46
  42  0.948  0.499  0.500-  43 1.45  39 1.46   9 1.46
  43  0.891  0.599  0.500-  45 1.43  46 1.44  42 1.45
  44  0.724  0.701  0.500-  26 1.42  49 1.43  45 1.44
  45  0.778  0.600  0.500-  43 1.43  44 1.44  40 1.44
  46  0.945  0.699  0.500-  11 1.42  47 1.44  43 1.44
  47  0.890  0.800  0.500-  49 1.42  50 1.43  46 1.44
  48  0.723  0.900  0.500-  30 1.42  49 1.43  33 1.43
  49  0.779  0.800  0.500-  47 1.42  44 1.43  48 1.43
  50  0.944  0.900  0.500-  15 1.41  47 1.43  31 1.44
  51  0.391  0.295  0.500-  23 1.42   8 1.43  58 1.97
  52  0.444  0.601  0.500-  24 1.42  25 1.43  57 1.92  58 2.50
  53  0.226  0.390  0.500-  10 1.38   8 1.38  57 1.92
  54  0.223  0.609  0.500-  13 1.36  12 1.37  57 1.98
  55  0.607  0.293  0.500-  22 1.38  36 1.39  58 2.00
  56  0.611  0.508  0.500-  40 1.37  24 1.39  58 1.91
  57  0.333  0.497  0.500-  52 1.92  53 1.92  54 1.98  58 2.37
  58  0.498  0.408  0.501-  56 1.91  51 1.97  55 2.00  57 2.37  52 2.50  24 2.57
 
  LATTYP: Found a triclinic cell.
 ALAT       =    34.4219438139
 B/A-ratio  =     0.3636749879
 C/A-ratio  =     0.5785292111
 COS(alpha) =     0.0000925025
 COS(beta)  =     0.5787961519
 COS(gamma) =     0.7266462085
  
  Lattice vectors:
  
 A1 = (  12.7030264211, -25.0386116963, -19.9140970167)
 A2 = (  -0.0256066934, -12.5183738104,   0.0000000000)
 A3 = (   0.0107398078,  -0.0018640755, -19.9140970167)


Analysis of symmetry for initial positions (statically):
=====================================================================
 Subroutine PRICEL returns:
 Original cell was already a primitive cell.
 

 Routine SETGRP: Setting up the symmetry group for a 
 triclinic supercell.


 Subroutine GETGRP returns: Found  1 space group operations
 (whereof  1 operations were pure point group operations)
 out of a pool of  2 trial point group operations.


The static configuration has the point symmetry C_1 .


Analysis of symmetry for dynamics (positions and initial velocities):
=====================================================================
 Subroutine PRICEL returns:
 Original cell was already a primitive cell.
 

 Routine SETGRP: Setting up the symmetry group for a 
 triclinic supercell.


 Subroutine GETGRP returns: Found  1 space group operations
 (whereof  1 operations were pure point group operations)
 out of a pool of  2 trial point group operations.


The dynamic configuration has the point symmetry C_1 .


Analysis of structural, dynamic, and magnetic symmetry:
=====================================================================
 Subroutine PRICEL returns:
 Original cell was already a primitive cell.
 

 Routine SETGRP: Setting up the symmetry group for a 
 triclinic supercell.


 Subroutine GETGRP returns: Found  1 space group operations
 (whereof  1 operations were pure point group operations)
 out of a pool of  2 trial point group operations.


The magnetic configuration has the point symmetry C_1 .


 Subroutine INISYM returns: Found  1 space group operations
 (whereof  1 operations are pure point group operations),
 and found     1 'primitive' translations

 
 
 KPOINTS: KPOINTS created by Atomic Simulation Env

Automatic generation of k-mesh.
Space group operators:
 irot       det(A)        alpha          n_x          n_y          n_z        tau_x        tau_y        tau_z
    1     1.000000     0.000000     1.000000     0.000000     0.000000     0.000000     0.000000     0.000000
 
 Subroutine IBZKPT returns following result:
 ===========================================
 
 Found      1 irreducible k-points:
 
 Following reciprocal coordinates:
            Coordinates               Weight
  0.000000  0.000000  0.000000      1.000000
 
 Following cartesian coordinates:
            Coordinates               Weight
  0.000000  0.000000  0.000000      1.000000
 
 
 Subroutine IBZKPT_HF returns following result:
 ==============================================
 
 Found      1 k-points in 1st BZ
 the following      1 k-points will be used (e.g. in the exchange kernel)
 Following reciprocal coordinates:   # in IRBZ
  0.000000  0.000000  0.000000    1.00000000   1 t-inv F


--------------------------------------------------------------------------------------------------------




 Dimension of arrays:
   k-points           NKPTS =      1   k-points in BZ     NKDIM =      1   number of bands    NBANDS=    157
   number of dos      NEDOS =    301   number of ions     NIONS =     58
   non local maximal  LDIM  =      6   non local SUM 2l+1 LMDIM =     18
   total plane-waves  NPLWV = ******
   max r-space proj   IRMAX =      1   max aug-charges    IRDMAX=  15699
   dimension x,y,z NGX =    96 NGY =   96 NGZ =  150
   dimension x,y,z NGXF=   192 NGYF=  192 NGZF=  300
   support grid    NGXF=   192 NGYF=  192 NGZF=  300
   ions per type =              52   4   1   1
   NGX,Y,Z   is equivalent  to a cutoff of  12.52, 12.75, 12.52 a.u.
   NGXF,Y,Z  is equivalent  to a cutoff of  25.05, 25.50, 25.04 a.u.

 SYSTEM =  unknown system                          
 POSCAR =   C  N Cu Fe                             

 Startparameter for this run:
   NWRITE =      2    write-flag & timer
   PREC   = accura    normal or accurate (medium, high low for compatibility)
   ISTART =      1    job   : 0-new  1-cont  2-samecut
   ICHARG =      0    charge: 1-file 2-atom 10-const
   ISPIN  =      2    spin polarized calculation?
   LNONCOLLINEAR =      F non collinear calculations
   LSORBIT =      F    spin-orbit coupling
   INIWAV =      1    electr: 0-lowe 1-rand  2-diag
   LASPH  =      T    aspherical Exc in radial PAW
   METAGGA=      F    non-selfconsistent MetaGGA calc.

 Electronic Relaxation 1
   ENCUT  =  500.0 eV  36.75 Ry    6.06 a.u.  23.23 22.82 36.31*2*pi/ulx,y,z
   ENINI  =  500.0     initial cutoff
   ENAUG  =  644.9 eV  augmentation charge cutoff
   NELM   =    250;   NELMIN=  2; NELMDL=  0     # of ELM steps 
   EDIFF  = 0.1E-03   stopping-criterion for ELM
   LREAL  =      F    real-space projection
   NLSPLINE    = F    spline interpolate recip. space projectors
   LCOMPAT=      F    compatible to vasp.4.4
   GGA_COMPAT  = T    GGA compatible to vasp.4.4-vasp.4.6
   LMAXPAW     = -100 max onsite density
   LMAXMIX     =    2 max onsite mixed and CHGCAR
   VOSKOWN=      0    Vosko Wilk Nusair interpolation
   ROPT   =    0.00000   0.00000   0.00000   0.00000
 Ionic relaxation
   EDIFFG = -.3E-01   stopping-criterion for IOM
   NSW    =      0    number of steps for IOM
   NBLOCK =      1;   KBLOCK =      1    inner block; outer block 
   IBRION =     -1    ionic relax: 0-MD 1-quasi-New 2-CG
   NFREE  =      1    steps in history (QN), initial steepest desc. (CG)
   ISIF   =      2    stress and relaxation
   IWAVPR =     10    prediction:  0-non 1-charg 2-wave 3-comb
   ISYM   =      3    0-nonsym 1-usesym 2-fastsym
   LCORR  =      T    Harris-Foulkes like correction to forces

   POTIM  = 0.5000    time-step for ionic-motion
   TEIN   =    0.0    initial temperature
   TEBEG  =    0.0;   TEEND  =   0.0 temperature during run
   SMASS  =  -3.00    Nose mass-parameter (am)
   estimated Nose-frequenzy (Omega)   =  0.10E-29 period in steps =****** mass=  -0.371E-26a.u.
   SCALEE = 1.0000    scale energy and forces
   NPACO  =    256;   APACO  = 16.0  distance and # of slots for P.C.
   PSTRESS=    0.0 pullay stress

  Mass of Ions in am
   POMASS =  12.01 14.00 63.55 55.85
  Ionic Valenz
   ZVAL   =   4.00  5.00 11.00  8.00
  Atomic Wigner-Seitz radii
   RWIGS  =  -1.00 -1.00 -1.00 -1.00
  virtual crystal weights 
   VCA    =   1.00  1.00  1.00  1.00
   NELECT =     247.0000    total number of electrons
   NUPDOWN=      -1.0000    fix difference up-down

 DOS related values:
   EMIN   =  10.00;   EMAX   =-10.00  energy-range for DOS
   EFERMI =   0.00
   ISMEAR =     0;   SIGMA  =   0.10  broadening in eV -4-tet -1-fermi 0-gaus

 Electronic relaxation 2 (details)
   IALGO  =     53    algorithm
   LDIAG  =      T    sub-space diagonalisation (order eigenvalues)
   LSUBROT=      F    optimize rotation matrix (better conditioning)
   TURBO    =      0    0=normal 1=particle mesh
   IRESTART =      0    0=no restart 2=restart with 2 vectors
   NREBOOT  =      0    no. of reboots
   NMIN     =      0    reboot dimension
   EREF     =   0.00    reference energy to select bands
   IMIX   =      4    mixing-type and parameters
     AMIX     =   0.40;   BMIX     =  1.00
     AMIX_MAG =   1.60;   BMIX_MAG =  1.00
     AMIN     =   0.10
     WC   =   100.;   INIMIX=   1;  MIXPRE=   1;  MAXMIX= -45

 Intra band minimization:
   WEIMIN = 0.0000     energy-eigenvalue tresh-hold
   EBREAK =  0.16E-06  absolut break condition
   DEPER  =   0.30     relativ break condition  

   TIME   =   0.20     timestep for ELM

  volume/ion in A,a.u.               =      54.77       369.63
  Fermi-wavevector in a.u.,A,eV,Ry     =   0.698728  1.320404  6.642645  0.488221
  Thomas-Fermi vector in A             =   1.782411
 
 Write flags
   LWAVE        =      T    write WAVECAR
   LDOWNSAMPLE  =      F    k-point downsampling of WAVECAR
   LCHARG       =      T    write CHGCAR
   LVTOT        =      F    write LOCPOT, total local potential
   LVHAR        =      F    write LOCPOT, Hartree potential only
   LELF         =      F    write electronic localiz. function (ELF)
   LORBIT       =     11    0 simple, 1 ext, 2 COOP (PROOUT), +10 PAW based schemes


 Dipole corrections
   LMONO  =      F    monopole corrections only (constant potential shift)
   LDIPOL =      T    correct potential (dipole corrections)
   IDIPOL =      3    1-x, 2-y, 3-z, 4-all directions 
   EPSILON=  1.0000000 bulk dielectric constant

 Exchange correlation treatment:
   GGA     =    PE    GGA type
   LEXCH   =     8    internal setting for exchange type
   VOSKOWN=      0    Vosko Wilk Nusair interpolation
   EXXOEP  =     0    0=HF, 1=EXX-LHF (local Hartree Fock) 2=EXX OEP
   LHFCALC =     T    Hartree Fock is set to
   LSYMGRAD=     F    symmetrize gradient (conserves proper symmetry)
   PRECFOCK=normal    Normal, Fast or Accurate (Low or Medium for compatibility)
   LRHFCALC=     F    long range Hartree Fock
   LRSCOR  =     F    long range correlation only (use DFT for short range part)
   LTHOMAS =     F    Thomas Fermi screening in HF
   LMODELHF=     F    short range full HF, long range fraction AEXX
   ENCUT4O =  -1.0   cutoff for four orbital integrals eV
   LMAXFOCK=     4    L truncation for augmentation on plane wave grid
   LMAXFOCKAE=  -1    L truncation for all-electron charge restoration on plane wave grid
   NMAXFOCKAE=   1    number of basis functions for all-electron charge restoration
   LFOCKAEDFT=     F  apply the AE augmentation even for DFT
   NKREDX  =     1    reduce k-point grid by
   NKREDY  =     1    reduce k-point grid by
   NKREDZ  =     1    reduce k-point grid by
   SHIFTRED=     F    shift reduced grid of Gamma
   HFKIDENT=     F    idential grid for each k-point
   ODDONLY =     F    use only odd q-grid points
   EVENONLY=     F    use only even q-grid points
   HFALPHA =   -1.0000 decay constant for conv. correction
   MCALPHA =    0.0000 extent of test-charge in conv. correction in multipole expansion
   AEXX    =    0.2500 exact exchange contribution
   HFSCREEN=    0.2000 screening length (either q_TF or 0.3 A-1)
   HFSCREENC=   0.2000 screening length for correlation (either q_TF or 0.3 A-1)
   HFRCUT  =    0.0000 spherical cutoff for potential kernel
   ALDAX   =    0.7500 LDA exchange part
   AGGAX   =    0.7500 GGA exchange part
   ALDAC   =    1.0000 LDA correlation
   AGGAC   =    1.0000 GGA correlation
   ENCUTFOCK=  -1.0 apply spherical cutoff to Coloumb kernel
   NBANDSGWLOW=     1    first orbital included in HF term
   NBLOCK_FOCK=    64    blocking factor in FOCK_ACC
 Linear response parameters
   LEPSILON=     F    determine dielectric tensor
   LRPA    =     F    only Hartree local field effects (RPA)
   LNABLA  =     F    use nabla operator in PAW spheres
   LVEL    =     F    velocity operator in full k-point grid
   LINTERFAST=   F  fast interpolation
   KINTER  =     0    interpolate to denser k-point grid
   CSHIFT  =0.1000    complex shift for real part using Kramers Kronig
   OMEGAMAX=  -1.0    maximum frequency
   DEG_THRESHOLD= 0.2000000E-02 threshold for treating states as degnerate
   RTIME   =   -0.100 relaxation time in fs
  (WPLASMAI=    0.000 imaginary part of plasma frequency in eV, 0.658/RTIME)
   DFIELD  = 0.0000000 0.0000000 0.0000000 field for delta impulse in time
 
 Orbital magnetization related:
   ORBITALMAG=     F  switch on orbital magnetization
   LCHIMAG   =     F  perturbation theory with respect to B field
   DQ        =  0.001000  dq finite difference perturbation B field
   LLRAUG    =     F  two centre corrections for induced B field



--------------------------------------------------------------------------------------------------------


 Static calculation
 charge density and potential will be updated during run
 spin polarized calculation
 Conjugate gradient for all bands (Freysoldt, et al. PRB 79, 241103 (2009))
 perform sub-space diagonalisation
    before iterative eigenvector-optimisation
 modified Broyden-mixing scheme, WC =      100.0
 initial mixing is a Kerker type mixing with AMIX =  0.4000 and BMIX =      1.0000
 Hartree-type preconditioning will be used
 using additional bands           33
 reciprocal scheme for non local part
 use partial core corrections
 no Harris-corrections to forces 
 use gradient corrections 
 use of overlap-Matrix (Vanderbilt PP)
 Gauss-broadening in eV      SIGMA  =   0.10


--------------------------------------------------------------------------------------------------------


  energy-cutoff  :      500.00
  volume of cell :     3176.85
      direct lattice vectors                 reciprocal lattice vectors
    12.743500000  0.000000000  0.000000000     0.078471378 -0.000160515  0.000042335
     0.025606693 12.518373810  0.000000000     0.000000000  0.079882580 -0.000007477
    -0.010739808  0.001864075 19.914097017     0.000000000  0.000000000  0.050215684

  length of vectors
    12.743500000 12.518400000 19.914100000     0.078471553  0.079882581  0.050215684


 
 old parameters found on file WAVECAR:
  energy-cutoff  :      500.00
  volume of cell :     3176.85
      direct lattice vectors                 reciprocal lattice vectors
    12.743500000  0.000000000  0.000000000     0.078471378 -0.000160515  0.000042335
     0.025606693 12.518373810  0.000000000     0.000000000  0.079882580 -0.000007477
    -0.010739808  0.001864075 19.914097017     0.000000000  0.000000000  0.050215684

  length of vectors

 
 k-points in units of 2pi/SCALE and weight: KPOINTS created by Atomic Simulation Env
   0.00000000  0.00000000  0.00000000       1.000
 
 k-points in reciprocal lattice and weights: KPOINTS created by Atomic Simulation Env
   0.00000000  0.00000000  0.00000000       1.000
 
 position of ions in fractional coordinates (direct lattice) 
   0.22182000  0.99884000  0.50001000
   0.05485000  0.09932000  0.49997000
   0.11035000  0.99955000  0.50000000
   0.27775000  0.09707000  0.50004000
   0.22226000  0.19561000  0.50008000
   0.05664000  0.29918000  0.49999000
   0.11062000  0.19823000  0.50000000
   0.27910000  0.29326000  0.50022000
   0.06220000  0.49875000  0.49998000
   0.11797000  0.39662000  0.50003000
   0.05683000  0.70023000  0.49999000
   0.11631000  0.60192000  0.49999000
   0.27564000  0.70373000  0.50004000
   0.22173000  0.80217000  0.50004000
   0.05524000  0.90007000  0.50000000
   0.11047000  0.80063000  0.50002000
   0.27757000  0.90051000  0.50002000
   0.55599000  0.99816000  0.49988000
   0.38912000  0.09664000  0.50004000
   0.44466000  0.99787000  0.49994000
   0.61170000  0.09717000  0.49993000
   0.55692000  0.19493000  0.50012000
   0.44406000  0.19580000  0.50020000
   0.55586000  0.60470000  0.50018000
   0.38940000  0.70062000  0.50007000
   0.61202000  0.70291000  0.50003000
   0.55592000  0.80102000  0.49995000
   0.38896000  0.89947000  0.49997000
   0.44435000  0.80025000  0.49999000
   0.61163000  0.89988000  0.49988000
   0.88904000  0.99987000  0.49994000
   0.72285000  0.09901000  0.49992000
   0.77804000  0.99950000  0.49990000
   0.94324000  0.10020000  0.49995000
   0.88799000  0.20072000  0.49997000
   0.71582000  0.29865000  0.50014000
   0.77562000  0.20011000  0.50000000
   0.94386000  0.30057000  0.49998000
   0.88690000  0.40029000  0.50002000
   0.71835000  0.50277000  0.50017000
   0.77223000  0.40047000  0.50013000
   0.94762000  0.49869000  0.49998000
   0.89065000  0.59869000  0.49997000
   0.72362000  0.70092000  0.50000000
   0.77827000  0.60016000  0.50003000
   0.94519000  0.69923000  0.49997000
   0.89000000  0.79954000  0.49995000
   0.72303000  0.89975000  0.49990000
   0.77857000  0.80012000  0.49994000
   0.94425000  0.89975000  0.49997000
   0.39108000  0.29525000  0.50037000
   0.44416000  0.60095000  0.50017000
   0.22580000  0.38974000  0.50016000
   0.22331000  0.60878000  0.50001000
   0.60677000  0.29259000  0.50024000
   0.61074000  0.50845000  0.50035000
   0.33337000  0.49736000  0.50017000
   0.49799000  0.40840000  0.50054000
 
 position of ions in cartesian coordinates  (Angst):
   2.84697015 12.50478455  9.95724765
   0.69615465  1.24425687  9.95645109
   1.42647049 12.51367258  9.95704851
   3.53662243  1.21609066  9.95784507
   2.83200847  2.44965129  9.95864164
   0.72408305  3.74617910  9.95684937
   1.40939208  2.48244928  9.95704851
   3.55884800  3.67207075  9.96142961
   0.80004735  6.24447094  9.95665023
   1.50813660  4.96596951  9.95764593
   0.73677388  8.76667291  9.95684937
   1.49223987  7.53599158  9.95684937
   3.52526820  8.81048731  9.95784507
   2.84078684 10.04279603  9.95784507
   0.72162885 11.26834475  9.95704851
   1.42290581 10.02351770  9.95744679
   3.55490226 11.27385288  9.95744679
   7.10544953 12.49627182  9.95465882
   4.95585502  1.21070776  9.95784507
   5.68670760 12.49264160  9.95585366
   7.79231800  1.21734229  9.95565452
   7.09673034  2.44113887  9.95943820
   5.65852035  2.45203000  9.96103133
   7.09371444  7.57079302  9.96063305
   4.97488881  8.77155523  9.95844250
   7.81190584  8.80022223  9.95764593
   7.09950863 10.02839973  9.95605280
   4.97437463 11.26083367  9.95645109
   5.67769618 10.01876066  9.95684937
   7.81198124 11.26596604  9.95465882
  11.34971534 12.51767835  9.95585366
   9.20880525  1.24037608  9.95545538
   9.93517780 12.51304647  9.95505710
  12.01737536  1.25527300  9.95605280
  11.31587076  2.51361997  9.95645109
   9.12432820  3.73954464  9.95983648
   9.88386772  2.50598382  9.95704851
  12.03040682  3.76357962  9.95665023
  11.30709013  5.01191193  9.95744679
   9.16179577  6.29479516  9.96043390
   9.84579642  5.01416544  9.95963734
  12.08339558  6.24371984  9.95665023
  11.35995916  7.49555720  9.95645109
   9.23402981  8.77531061  9.95704851
   9.92788163  7.51395932  9.95764593
  12.05756415  8.75415450  9.95645109
  11.35681921 10.00987254  9.95605280
   9.23160360 11.26433869  9.95505710
   9.93682596 10.01713318  9.95585366
  12.05071992 11.26433882  9.95645109
   4.98591448  3.69698259  9.96441672
   5.67016957  7.52384910  9.96043390
   2.88209063  4.87984334  9.96023476
   2.85596982  7.62186766  9.95724765
   7.73449328  3.66368348  9.96182789
   7.79061125  6.36589985  9.96401844
   4.25566461  6.22707075  9.96043390
   6.35121764  5.11343691  9.96780212
 


--------------------------------------------------------------------------------------------------------


 k-point  1 :   0.0000 0.0000 0.0000  plane waves:   80651

 maximum and minimum number of plane-waves per node :      2525     2511

 maximum number of plane-waves:     80651
 maximum index in each direction: 
   IXMAX=   23   IYMAX=   22   IZMAX=   36
   IXMIN=  -23   IYMIN=  -22   IZMIN=  -36


 parallel 3D FFT for wavefunctions:
    minimum data exchange during FFTs selected (reduces bandwidth)
 parallel 3D FFT for charge:
    minimum data exchange during FFTs selected (reduces bandwidth)


 FFT grid for exact exchange (Hartree Fock) 
  NGX = 70; NGY = 70; NGZ =112

 
 Radii for the augmentation spheres in the non-local exchange
 for species   1 augmentation radius   0.874 (default was   0.699)
       energy cutoff for augmentation   2000.0
 for species   2 augmentation radius   0.886 (default was   0.709)
       energy cutoff for augmentation   2000.0
 for species   3 augmentation radius   1.179 (default was   0.943)
       energy cutoff for augmentation   2000.0
 for species   4 augmentation radius   1.263 (default was   1.010)
       energy cutoff for augmentation   2000.0

 real space projection operators:
  total allocation   :       2398.12 KBytes
  max/ min on nodes  :        107.38         40.71

 Maximum index for augmentation-charges in exchange          130
  SETUP_FOCK is finished

 total amount of memory used by VASP MPI-rank0   124788. kBytes
=======================================================================

   base      :      30000. kBytes
   nonl-proj :       3776. kBytes
   fftplans  :      14248. kBytes
   grid      :      36827. kBytes
   one-center:         62. kBytes
   HF        :         23. kBytes
   nonlr-proj:       1617. kBytes
   wavefun   :      38235. kBytes
 
     INWAV:  cpu time    1.9462: real time    1.9467
 Broyden mixing: mesh for mixing (old mesh)
   NGX = 47   NGY = 45   NGZ = 73
  (NGX  =192   NGY  =192   NGZ  =300)
  gives a total of 154395 points

 charge density for first step will be calculated from the start-wavefunctions


--------------------------------------------------------------------------------------------------------


 Maximum index for augmentation-charges          740 (set IRDMAX)


--------------------------------------------------------------------------------------------------------


 initial charge from wavefunction
 First call to EWALD:  gamma=   0.121
 Maximum number of real-space cells 3x 3x 2
 Maximum number of reciprocal cells 2x 2x 4

    FEWALD:  cpu time    0.0037: real time    0.0036


--------------------------------------- Iteration      1(   1)  ---------------------------------------


    POTLOK:  cpu time    1.3892: real time    1.3898
    SETDIJ:  cpu time    2.1115: real time    2.1123
    TRIAL :  cpu time   62.8760: real time   62.8982
    CORREC:  cpu time    0.0011: real time    0.0014
    CHARGE:  cpu time    0.1894: real time    0.1894
    --------------------------------------------
      LOOP:  cpu time   66.5758: real time   66.6029

 eigenvalue-minimisations  :     0
 total energy-change (2. order) :-0.5727181E+03  (-0.8181272E+01)
 number of electron     247.0000016 magnetization       2.9734964
 augmentation part       16.9457577 magnetization       1.9425462

 DIPCOR: dipole corrections for dipol
 direction  3 min pos     1,
 dipolmoment           0.000001     -0.000000     -0.001639 electrons x Angstroem
 Tr[quadrupol]     -6733.651449

 energy correction for charged system         0.000000 eV
 dipol+quadrupol energy correction            0.000000 eV
 added-field ion interaction          0.000000 eV  (added to PSCEN)


 Free energy of the ion-electron system (eV)
  ---------------------------------------------------
  alpha Z        PSCENC =       101.61758358
  Ewald energy   TEWEN  =     39754.03485096
  -Hartree energ DENC   =    -48915.82120294
  -exchange      EXHF   =       564.52596763
  -V(xc)+E(xc)   XCENC  =       647.23294786
  PAW double counting   =     28552.84372379   -28689.98668123
  entropy T*S    EENTRO =        -0.00486608
  eigenvalues    EBANDS =     -3172.52281853
  atomic energy  EATOM  =     10585.36259583
  ---------------------------------------------------
  free energy    TOTEN  =      -572.71807368 eV

  energy without entropy =     -572.71320760  energy(sigma->0) =     -572.71564064
  exchange ACFDT corr.  =        -0.01114325  see jH, gK, PRB 81, 115126


--------------------------------------------------------------------------------------------------------




--------------------------------------- Iteration      1(   2)  ---------------------------------------


    POTLOK:  cpu time    1.4084: real time    1.4084
    SETDIJ:  cpu time    2.1176: real time    2.1176
    TRIAL :  cpu time   62.7136: real time   62.7270
    CORREC:  cpu time    0.0010: real time    0.0013
    CHARGE:  cpu time    0.1893: real time    0.1893
    --------------------------------------------
      LOOP:  cpu time   66.4341: real time   66.4487

 eigenvalue-minimisations  :     0
 total energy-change (2. order) :-0.7290044E+01  (-0.9028461E+01)
 number of electron     247.0000016 magnetization       2.9882166
 augmentation part       16.8780983 magnetization       1.9823037

 DIPCOR: dipole corrections for dipol
 direction  3 min pos     1,
 dipolmoment           0.000000     -0.000000     -0.000708 electrons x Angstroem
 Tr[quadrupol]     -6733.488122

 energy correction for charged system         0.000000 eV
 dipol+quadrupol energy correction            0.000000 eV
 added-field ion interaction          0.000000 eV  (added to PSCEN)


 Free energy of the ion-electron system (eV)
  ---------------------------------------------------
  alpha Z        PSCENC =       101.61758351
  Ewald energy   TEWEN  =     39754.03485096
  -Hartree energ DENC   =    -48911.75126114
  -exchange      EXHF   =       564.46513096
  -V(xc)+E(xc)   XCENC  =       647.04091832
  PAW double counting   =     28280.79480672   -28420.56833980
  entropy T*S    EENTRO =        -0.00239631
  eigenvalues    EBANDS =     -3180.99953737
  atomic energy  EATOM  =     10585.36259583
  ---------------------------------------------------
  free energy    TOTEN  =      -580.00811808 eV

  energy without entropy =     -580.00572177  energy(sigma->0) =     -580.00691992
  exchange ACFDT corr.  =        -0.00936502  see jH, gK, PRB 81, 115126


--------------------------------------------------------------------------------------------------------




--------------------------------------- Iteration      1(   3)  ---------------------------------------


    POTLOK:  cpu time    1.4105: real time    1.4105
    SETDIJ:  cpu time    2.1137: real time    2.1138
    TRIAL :  cpu time   62.7332: real time   62.7373
    CORREC:  cpu time    0.0010: real time    0.0013
    CHARGE:  cpu time    0.1892: real time    0.1892
    --------------------------------------------
      LOOP:  cpu time   66.4494: real time   66.4540

 eigenvalue-minimisations  :     0
 total energy-change (2. order) :-0.7711855E+01  (-0.6586043E+01)
 number of electron     247.0000016 magnetization       2.9960231
 augmentation part       16.8197431 magnetization       2.0161999

 DIPCOR: dipole corrections for dipol
 direction  3 min pos     1,
 dipolmoment           0.000000     -0.000000     -0.000773 electrons x Angstroem
 Tr[quadrupol]     -6733.241044

 energy correction for charged system         0.000000 eV
 dipol+quadrupol energy correction            0.000000 eV
 added-field ion interaction          0.000000 eV  (added to PSCEN)


 Free energy of the ion-electron system (eV)
  ---------------------------------------------------
  alpha Z        PSCENC =       101.61758352
  Ewald energy   TEWEN  =     39754.03485096
  -Hartree energ DENC   =    -48889.87910647
  -exchange      EXHF   =       564.20434066
  -V(xc)+E(xc)   XCENC  =       646.50478935
  PAW double counting   =     27941.39221062   -28079.46335302
  entropy T*S    EENTRO =        -0.00091758
  eigenvalues    EBANDS =     -3211.49148858
  atomic energy  EATOM  =     10585.36259583
  ---------------------------------------------------
  free energy    TOTEN  =      -587.71997344 eV

  energy without entropy =     -587.71905586  energy(sigma->0) =     -587.71951465
  exchange ACFDT corr.  =        -0.00419777  see jH, gK, PRB 81, 115126


--------------------------------------------------------------------------------------------------------




--------------------------------------- Iteration      1(   4)  ---------------------------------------


    POTLOK:  cpu time    1.4113: real time    1.4115
    SETDIJ:  cpu time    2.1060: real time    2.1061
    TRIAL :  cpu time   62.6368: real time   62.6447
    CORREC:  cpu time    0.0010: real time    0.0013
    CHARGE:  cpu time    0.1877: real time    0.1877
    --------------------------------------------
      LOOP:  cpu time   66.3453: real time   66.3537

 eigenvalue-minimisations  :     0
 total energy-change (2. order) :-0.5465099E+01  (-0.4056962E+01)
 number of electron     247.0000016 magnetization       2.9986215
 augmentation part       16.8589650 magnetization       2.0362141

 DIPCOR: dipole corrections for dipol
 direction  3 min pos     1,
 dipolmoment           0.000001     -0.000000     -0.000961 electrons x Angstroem
 Tr[quadrupol]     -6733.139826

 energy correction for charged system         0.000000 eV
 dipol+quadrupol energy correction            0.000000 eV
 added-field ion interaction          0.000000 eV  (added to PSCEN)


 Free energy of the ion-electron system (eV)
  ---------------------------------------------------
  alpha Z        PSCENC =       101.61758353
  Ewald energy   TEWEN  =     39754.03485096
  -Hartree energ DENC   =    -48877.73050866
  -exchange      EXHF   =       564.17154043
  -V(xc)+E(xc)   XCENC  =       646.22075637
  PAW double counting   =     27676.49862610   -27812.83828064
  entropy T*S    EENTRO =        -0.00035709
  eigenvalues    EBANDS =     -3230.52131879
  atomic energy  EATOM  =     10585.36259583
  ---------------------------------------------------
  free energy    TOTEN  =      -593.18507245 eV

  energy without entropy =     -593.18471536  energy(sigma->0) =     -593.18489391
  exchange ACFDT corr.  =        -0.00147846  see jH, gK, PRB 81, 115126


--------------------------------------------------------------------------------------------------------




--------------------------------------- Iteration      1(   5)  ---------------------------------------


    POTLOK:  cpu time    1.4123: real time    1.4125
    SETDIJ:  cpu time    2.1120: real time    2.1120
    TRIAL :  cpu time   62.5189: real time   62.5273
    CORREC:  cpu time    0.0010: real time    0.0012
    CHARGE:  cpu time    0.1884: real time    0.1884
    --------------------------------------------
      LOOP:  cpu time   66.2351: real time   66.2439

 eigenvalue-minimisations  :     0
 total energy-change (2. order) :-0.3340892E+01  (-0.2359724E+01)
 number of electron     247.0000016 magnetization       2.9996377
 augmentation part       16.8816224 magnetization       2.0516660

 DIPCOR: dipole corrections for dipol
 direction  3 min pos     1,
 dipolmoment           0.000001     -0.000000     -0.000928 electrons x Angstroem
 Tr[quadrupol]     -6733.215903

 energy correction for charged system         0.000000 eV
 dipol+quadrupol energy correction            0.000000 eV
 added-field ion interaction          0.000000 eV  (added to PSCEN)


 Free energy of the ion-electron system (eV)
  ---------------------------------------------------
  alpha Z        PSCENC =       101.61758352
  Ewald energy   TEWEN  =     39754.03485096
  -Hartree energ DENC   =    -48885.05857915
  -exchange      EXHF   =       564.51875898
  -V(xc)+E(xc)   XCENC  =       646.42586521
  PAW double counting   =     27524.85486395   -27662.20184866
  entropy T*S    EENTRO =        -0.00010942
  eigenvalues    EBANDS =     -3226.07969781
  atomic energy  EATOM  =     10585.36259583
  ---------------------------------------------------
  free energy    TOTEN  =      -596.52596426 eV

  energy without entropy =     -596.52585484  energy(sigma->0) =     -596.52590955
  exchange ACFDT corr.  =        -0.00054063  see jH, gK, PRB 81, 115126


--------------------------------------------------------------------------------------------------------




--------------------------------------- Iteration      1(   6)  ---------------------------------------


    POTLOK:  cpu time    1.4134: real time    1.4136
    SETDIJ:  cpu time    2.0996: real time    2.0999
    TRIAL :  cpu time   62.4762: real time   62.4850
    CORREC:  cpu time    0.0009: real time    0.0012
    CHARGE:  cpu time    0.1889: real time    0.1889
    --------------------------------------------
      LOOP:  cpu time   66.1813: real time   66.1909

 eigenvalue-minimisations  :     0
 total energy-change (2. order) :-0.1953578E+01  (-0.1402012E+01)
 number of electron     247.0000016 magnetization       2.9999325
 augmentation part       16.8702640 magnetization       2.0644427

 DIPCOR: dipole corrections for dipol
 direction  3 min pos     1,
 dipolmoment           0.000001     -0.000000     -0.000984 electrons x Angstroem
 Tr[quadrupol]     -6733.325153

 energy correction for charged system         0.000000 eV
 dipol+quadrupol energy correction            0.000000 eV
 added-field ion interaction          0.000000 eV  (added to PSCEN)


 Free energy of the ion-electron system (eV)
  ---------------------------------------------------
  alpha Z        PSCENC =       101.61758353
  Ewald energy   TEWEN  =     39754.03485096
  -Hartree energ DENC   =    -48893.42632529
  -exchange      EXHF   =       564.89337499
  -V(xc)+E(xc)   XCENC  =       646.68111829
  PAW double counting   =     27455.21622910   -27592.93779748
  entropy T*S    EENTRO =        -0.00002539
  eigenvalues    EBANDS =     -3219.92106309
  atomic energy  EATOM  =     10585.36259583
  ---------------------------------------------------
  free energy    TOTEN  =      -598.47954257 eV

  energy without entropy =     -598.47951718  energy(sigma->0) =     -598.47952988
  exchange ACFDT corr.  =        -0.00015815  see jH, gK, PRB 81, 115126


--------------------------------------------------------------------------------------------------------




--------------------------------------- Iteration      1(   7)  ---------------------------------------


    POTLOK:  cpu time    1.4126: real time    1.4126
    SETDIJ:  cpu time    2.1385: real time    2.1388
    TRIAL :  cpu time   62.5605: real time   62.5692
    CORREC:  cpu time    0.0009: real time    0.0012
    CHARGE:  cpu time    0.1891: real time    0.1891
    --------------------------------------------
      LOOP:  cpu time   66.3038: real time   66.3132

 eigenvalue-minimisations  :     0
 total energy-change (2. order) :-0.1169436E+01  (-0.8422912E+00)
 number of electron     247.0000016 magnetization       2.9999880
 augmentation part       16.8800761 magnetization       2.0756809

 DIPCOR: dipole corrections for dipol
 direction  3 min pos     1,
 dipolmoment           0.000001     -0.000000     -0.001100 electrons x Angstroem
 Tr[quadrupol]     -6733.390794

 energy correction for charged system         0.000000 eV
 dipol+quadrupol energy correction            0.000000 eV
 added-field ion interaction          0.000000 eV  (added to PSCEN)


 Free energy of the ion-electron system (eV)
  ---------------------------------------------------
  alpha Z        PSCENC =       101.61758353
  Ewald energy   TEWEN  =     39754.03485096
  -Hartree energ DENC   =    -48896.57447834
  -exchange      EXHF   =       565.14349471
  -V(xc)+E(xc)   XCENC  =       646.81999828
  PAW double counting   =     27432.53217410   -27569.61268347
  entropy T*S    EENTRO =        -0.00000569
  eigenvalues    EBANDS =     -3218.97248899
  atomic energy  EATOM  =     10585.36259583
  ---------------------------------------------------
  free energy    TOTEN  =      -599.64897877 eV

  energy without entropy =     -599.64897308  energy(sigma->0) =     -599.64897593
  exchange ACFDT corr.  =        -0.00003530  see jH, gK, PRB 81, 115126


--------------------------------------------------------------------------------------------------------




--------------------------------------- Iteration      1(   8)  ---------------------------------------


    POTLOK:  cpu time    1.4077: real time    1.4080
    SETDIJ:  cpu time    2.1031: real time    2.1031
    TRIAL :  cpu time   62.5539: real time   62.5690
    CORREC:  cpu time    0.0008: real time    0.0011
    CHARGE:  cpu time    0.1891: real time    0.1891
    --------------------------------------------
      LOOP:  cpu time   66.2564: real time   66.2721

 eigenvalue-minimisations  :     0
 total energy-change (2. order) :-0.7099763E+00  (-0.5154561E+00)
 number of electron     247.0000016 magnetization       2.9999976
 augmentation part       16.8935970 magnetization       2.0869718

 DIPCOR: dipole corrections for dipol
 direction  3 min pos     1,
 dipolmoment           0.000001     -0.000000     -0.001147 electrons x Angstroem
 Tr[quadrupol]     -6733.417343

 energy correction for charged system         0.000000 eV
 dipol+quadrupol energy correction            0.000000 eV
 added-field ion interaction          0.000000 eV  (added to PSCEN)


 Free energy of the ion-electron system (eV)
  ---------------------------------------------------
  alpha Z        PSCENC =       101.61758354
  Ewald energy   TEWEN  =     39754.03485096
  -Hartree energ DENC   =    -48899.26183242
  -exchange      EXHF   =       565.32854952
  -V(xc)+E(xc)   XCENC  =       646.94722666
  PAW double counting   =     27434.98820413   -27572.26220466
  entropy T*S    EENTRO =        -0.00000132
  eigenvalues    EBANDS =     -3217.11392291
  atomic energy  EATOM  =     10585.36259583
  ---------------------------------------------------
  free energy    TOTEN  =      -600.35895504 eV

  energy without entropy =     -600.35895372  energy(sigma->0) =     -600.35895438
  exchange ACFDT corr.  =        -0.00000765  see jH, gK, PRB 81, 115126


--------------------------------------------------------------------------------------------------------




--------------------------------------- Iteration      1(   9)  ---------------------------------------


    POTLOK:  cpu time    1.4090: real time    1.4091
    SETDIJ:  cpu time    2.0939: real time    2.0939
    TRIAL :  cpu time   62.3815: real time   62.3898
    CORREC:  cpu time    0.0007: real time    0.0011
    CHARGE:  cpu time    0.1878: real time    0.1879
    --------------------------------------------
      LOOP:  cpu time   66.0746: real time   66.0835

 eigenvalue-minimisations  :     0
 total energy-change (2. order) :-0.4370549E+00  (-0.3212023E+00)
 number of electron     247.0000016 magnetization       2.9999995
 augmentation part       16.8935532 magnetization       2.0985015

 DIPCOR: dipole corrections for dipol
 direction  3 min pos     1,
 dipolmoment           0.000001     -0.000000     -0.001123 electrons x Angstroem
 Tr[quadrupol]     -6733.415026

 energy correction for charged system         0.000000 eV
 dipol+quadrupol energy correction            0.000000 eV
 added-field ion interaction          0.000000 eV  (added to PSCEN)


 Free energy of the ion-electron system (eV)
  ---------------------------------------------------
  alpha Z        PSCENC =       101.61758354
  Ewald energy   TEWEN  =     39754.03485096
  -Hartree energ DENC   =    -48899.99980635
  -exchange      EXHF   =       565.42429536
  -V(xc)+E(xc)   XCENC  =       647.01291645
  PAW double counting   =     27446.93454741   -27584.50622739
  entropy T*S    EENTRO =        -0.00000028
  eigenvalues    EBANDS =     -3216.67676442
  atomic energy  EATOM  =     10585.36259583
  ---------------------------------------------------
  free energy    TOTEN  =      -600.79600992 eV

  energy without entropy =     -600.79600964  energy(sigma->0) =     -600.79600978
  exchange ACFDT corr.  =        -0.00000172  see jH, gK, PRB 81, 115126


--------------------------------------------------------------------------------------------------------




--------------------------------------- Iteration      1(  10)  ---------------------------------------


    POTLOK:  cpu time    1.4068: real time    1.4070
    SETDIJ:  cpu time    2.1098: real time    2.1099
    TRIAL :  cpu time   62.3867: real time   62.3909
    CORREC:  cpu time    0.0007: real time    0.0010
    CHARGE:  cpu time    0.1885: real time    0.1886
    --------------------------------------------
      LOOP:  cpu time   66.0950: real time   66.0999

 eigenvalue-minimisations  :     0
 total energy-change (2. order) :-0.2741175E+00  (-0.2009628E+00)
 number of electron     247.0000016 magnetization       2.9999998
 augmentation part       16.8946941 magnetization       2.1090628

 DIPCOR: dipole corrections for dipol
 direction  3 min pos     1,
 dipolmoment           0.000001     -0.000000     -0.001131 electrons x Angstroem
 Tr[quadrupol]     -6733.400847

 energy correction for charged system         0.000000 eV
 dipol+quadrupol energy correction            0.000000 eV
 added-field ion interaction          0.000000 eV  (added to PSCEN)


 Free energy of the ion-electron system (eV)
  ---------------------------------------------------
  alpha Z        PSCENC =       101.61758354
  Ewald energy   TEWEN  =     39754.03485096
  -Hartree energ DENC   =    -48898.53262441
  -exchange      EXHF   =       565.45362625
  -V(xc)+E(xc)   XCENC  =       647.01402891
  PAW double counting   =     27460.35832930   -27597.80733922
  entropy T*S    EENTRO =        -0.00000005
  eigenvalues    EBANDS =     -3218.57117824
  atomic energy  EATOM  =     10585.36259583
  ---------------------------------------------------
  free energy    TOTEN  =      -601.07012737 eV

  energy without entropy =     -601.07012732  energy(sigma->0) =     -601.07012734
  exchange ACFDT corr.  =        -0.00000036  see jH, gK, PRB 81, 115126


--------------------------------------------------------------------------------------------------------




--------------------------------------- Iteration      1(  11)  ---------------------------------------


    POTLOK:  cpu time    1.4098: real time    1.4098
    SETDIJ:  cpu time    2.0961: real time    2.0963
    TRIAL :  cpu time   62.3830: real time   62.3872
    CORREC:  cpu time    0.0007: real time    0.0007
    CHARGE:  cpu time    0.1879: real time    0.1882
    --------------------------------------------
      LOOP:  cpu time   66.0802: real time   66.0850

 eigenvalue-minimisations  :     0
 total energy-change (2. order) :-0.1732642E+00  (-0.1279847E+00)
 number of electron     247.0000016 magnetization       2.9999999
 augmentation part       16.8969718 magnetization       2.1188108

 DIPCOR: dipole corrections for dipol
 direction  3 min pos     1,
 dipolmoment           0.000001     -0.000000     -0.001167 electrons x Angstroem
 Tr[quadrupol]     -6733.393599

 energy correction for charged system         0.000000 eV
 dipol+quadrupol energy correction            0.000000 eV
 added-field ion interaction          0.000000 eV  (added to PSCEN)


 Free energy of the ion-electron system (eV)
  ---------------------------------------------------
  alpha Z        PSCENC =       101.61758354
  Ewald energy   TEWEN  =     39754.03485096
  -Hartree energ DENC   =    -48897.76708350
  -exchange      EXHF   =       565.48891124
  -V(xc)+E(xc)   XCENC  =       647.03060848
  PAW double counting   =     27472.88569517   -27610.37865007
  entropy T*S    EENTRO =        -0.00000001
  eigenvalues    EBANDS =     -3219.51790316
  atomic energy  EATOM  =     10585.36259583
  ---------------------------------------------------
  free energy    TOTEN  =      -601.24339156 eV

  energy without entropy =     -601.24339155  energy(sigma->0) =     -601.24339155
  exchange ACFDT corr.  =        -0.00000007  see jH, gK, PRB 81, 115126


--------------------------------------------------------------------------------------------------------




--------------------------------------- Iteration      1(  12)  ---------------------------------------


    POTLOK:  cpu time    1.4055: real time    1.4056
    SETDIJ:  cpu time    2.1041: real time    2.1041
    TRIAL :  cpu time   62.3784: real time   62.3827
    CORREC:  cpu time    0.0007: real time    0.0010
    CHARGE:  cpu time    0.1887: real time    0.1887
    --------------------------------------------
      LOOP:  cpu time   66.0803: real time   66.0850

 eigenvalue-minimisations  :     0
 total energy-change (2. order) :-0.1116800E+00  (-0.8452655E-01)
 number of electron     247.0000016 magnetization       2.9999999
 augmentation part       16.8970569 magnetization       2.1277625

 DIPCOR: dipole corrections for dipol
 direction  3 min pos     1,
 dipolmoment           0.000001     -0.000000     -0.001194 electrons x Angstroem
 Tr[quadrupol]     -6733.393810

 energy correction for charged system         0.000000 eV
 dipol+quadrupol energy correction            0.000000 eV
 added-field ion interaction          0.000000 eV  (added to PSCEN)


 Free energy of the ion-electron system (eV)
  ---------------------------------------------------
  alpha Z        PSCENC =       101.61758354
  Ewald energy   TEWEN  =     39754.03485096
  -Hartree energ DENC   =    -48897.58490172
  -exchange      EXHF   =       565.52907404
  -V(xc)+E(xc)   XCENC  =       647.05586705
  PAW double counting   =     27483.42200904   -27621.00699095
  entropy T*S    EENTRO =        -0.00000000
  eigenvalues    EBANDS =     -3219.78515939
  atomic energy  EATOM  =     10585.36259583
  ---------------------------------------------------
  free energy    TOTEN  =      -601.35507159 eV

  energy without entropy =     -601.35507159  energy(sigma->0) =     -601.35507159
  exchange ACFDT corr.  =        -0.00000001  see jH, gK, PRB 81, 115126


--------------------------------------------------------------------------------------------------------




--------------------------------------- Iteration      1(  13)  ---------------------------------------


    POTLOK:  cpu time    1.3992: real time    1.3993
    SETDIJ:  cpu time    2.0990: real time    2.0990
    TRIAL :  cpu time   62.3291: real time   62.3418
    CORREC:  cpu time    0.0006: real time    0.0006
    CHARGE:  cpu time    0.1880: real time    0.1883
    --------------------------------------------
      LOOP:  cpu time   66.0179: real time   66.0309

 eigenvalue-minimisations  :     0
 total energy-change (2. order) :-0.7472794E-01  (-0.5758737E-01)
 number of electron     247.0000016 magnetization       2.9999999
 augmentation part       16.8976694 magnetization       2.1358941

 DIPCOR: dipole corrections for dipol
 direction  3 min pos     1,
 dipolmoment           0.000001     -0.000000     -0.001194 electrons x Angstroem
 Tr[quadrupol]     -6733.396289

 energy correction for charged system         0.000000 eV
 dipol+quadrupol energy correction            0.000000 eV
 added-field ion interaction          0.000000 eV  (added to PSCEN)


 Free energy of the ion-electron system (eV)
  ---------------------------------------------------
  alpha Z        PSCENC =       101.61758354
  Ewald energy   TEWEN  =     39754.03485096
  -Hartree energ DENC   =    -48897.33847273
  -exchange      EXHF   =       565.56401198
  -V(xc)+E(xc)   XCENC  =       647.07413455
  PAW double counting   =     27491.51343344   -27629.09024163
  entropy T*S    EENTRO =        -0.00000000
  eigenvalues    EBANDS =     -3220.16769547
  atomic energy  EATOM  =     10585.36259583
  ---------------------------------------------------
  free energy    TOTEN  =      -601.42979954 eV

  energy without entropy =     -601.42979954  energy(sigma->0) =     -601.42979954
  exchange ACFDT corr.  =        -0.00000000  see jH, gK, PRB 81, 115126


--------------------------------------------------------------------------------------------------------




--------------------------------------- Iteration      1(  14)  ---------------------------------------


    POTLOK:  cpu time    1.4006: real time    1.4007
    SETDIJ:  cpu time    2.1061: real time    2.1061
    TRIAL :  cpu time   62.3651: real time   62.3766
    CORREC:  cpu time    0.0006: real time    0.0006
    CHARGE:  cpu time    0.1883: real time    0.1885
    --------------------------------------------
      LOOP:  cpu time   66.0623: real time   66.0742

 eigenvalue-minimisations  :     0
 total energy-change (2. order) :-0.5181581E-01  (-0.4142778E-01)
 number of electron     247.0000016 magnetization       2.9999999
 augmentation part       16.8976798 magnetization       2.1431083

 DIPCOR: dipole corrections for dipol
 direction  3 min pos     1,
 dipolmoment           0.000001     -0.000000     -0.001197 electrons x Angstroem
 Tr[quadrupol]     -6733.398540

 energy correction for charged system         0.000000 eV
 dipol+quadrupol energy correction            0.000000 eV
 added-field ion interaction          0.000000 eV  (added to PSCEN)


 Free energy of the ion-electron system (eV)
  ---------------------------------------------------
  alpha Z        PSCENC =       101.61758354
  Ewald energy   TEWEN  =     39754.03485096
  -Hartree energ DENC   =    -48897.28332206
  -exchange      EXHF   =       565.60249706
  -V(xc)+E(xc)   XCENC  =       647.09757500
  PAW double counting   =     27497.16722784   -27634.78560816
  entropy T*S    EENTRO =        -0.00000000
  eigenvalues    EBANDS =     -3220.29501536
  atomic energy  EATOM  =     10585.36259583
  ---------------------------------------------------
  free energy    TOTEN  =      -601.48161534 eV

  energy without entropy =     -601.48161534  energy(sigma->0) =     -601.48161534
  exchange ACFDT corr.  =        -0.00000000  see jH, gK, PRB 81, 115126


--------------------------------------------------------------------------------------------------------




--------------------------------------- Iteration      1(  15)  ---------------------------------------


    POTLOK:  cpu time    1.3943: real time    1.3943
    SETDIJ:  cpu time    2.1063: real time    2.1064
    TRIAL :  cpu time   62.3617: real time   62.3665
    CORREC:  cpu time    0.0005: real time    0.0005
    CHARGE:  cpu time    0.1888: real time    0.1891
    --------------------------------------------
      LOOP:  cpu time   66.0543: real time   66.0595

 eigenvalue-minimisations  :     0
 total energy-change (2. order) :-0.3788897E-01  (-0.3139069E-01)
 number of electron     247.0000016 magnetization       2.9999999
 augmentation part       16.8966694 magnetization       2.1494782

 DIPCOR: dipole corrections for dipol
 direction  3 min pos     1,
 dipolmoment           0.000001     -0.000000     -0.001210 electrons x Angstroem
 Tr[quadrupol]     -6733.399143

 energy correction for charged system         0.000000 eV
 dipol+quadrupol energy correction            0.000000 eV
 added-field ion interaction          0.000000 eV  (added to PSCEN)


 Free energy of the ion-electron system (eV)
  ---------------------------------------------------
  alpha Z        PSCENC =       101.61758354
  Ewald energy   TEWEN  =     39754.03485096
  -Hartree energ DENC   =    -48897.19244821
  -exchange      EXHF   =       565.64004996
  -V(xc)+E(xc)   XCENC  =       647.12064429
  PAW double counting   =     27500.52532712   -27638.18668536
  entropy T*S    EENTRO =        -0.00000000
  eigenvalues    EBANDS =     -3220.44142245
  atomic energy  EATOM  =     10585.36259583
  ---------------------------------------------------
  free energy    TOTEN  =      -601.51950432 eV

  energy without entropy =     -601.51950432  energy(sigma->0) =     -601.51950432
  exchange ACFDT corr.  =        -0.00000000  see jH, gK, PRB 81, 115126


--------------------------------------------------------------------------------------------------------




--------------------------------------- Iteration      1(  16)  ---------------------------------------


    POTLOK:  cpu time    1.3923: real time    1.3924
    SETDIJ:  cpu time    2.0923: real time    2.0924
    TRIAL :  cpu time   62.0394: real time   62.0438
    CORREC:  cpu time    0.0005: real time    0.0008
    CHARGE:  cpu time    0.1879: real time    0.1879
    --------------------------------------------
      LOOP:  cpu time   65.7147: real time   65.7196

 eigenvalue-minimisations  :     0
 total energy-change (2. order) :-0.2909373E-01  (-0.2472452E-01)
 number of electron     247.0000016 magnetization       2.9999999
 augmentation part       16.8962006 magnetization       2.1553965

 DIPCOR: dipole corrections for dipol
 direction  3 min pos     1,
 dipolmoment           0.000001     -0.000000     -0.001221 electrons x Angstroem
 Tr[quadrupol]     -6733.398218

 energy correction for charged system         0.000000 eV
 dipol+quadrupol energy correction            0.000000 eV
 added-field ion interaction          0.000000 eV  (added to PSCEN)


 Free energy of the ion-electron system (eV)
  ---------------------------------------------------
  alpha Z        PSCENC =       101.61758354
  Ewald energy   TEWEN  =     39754.03485096
  -Hartree energ DENC   =    -48896.94556711
  -exchange      EXHF   =       565.67302685
  -V(xc)+E(xc)   XCENC  =       647.13901252
  PAW double counting   =     27502.15304431   -27639.81805116
  entropy T*S    EENTRO =        -0.00000000
  eigenvalues    EBANDS =     -3220.76509379
  atomic energy  EATOM  =     10585.36259583
  ---------------------------------------------------
  free energy    TOTEN  =      -601.54859805 eV

  energy without entropy =     -601.54859805  energy(sigma->0) =     -601.54859805
  exchange ACFDT corr.  =        -0.00000000  see jH, gK, PRB 81, 115126


--------------------------------------------------------------------------------------------------------




--------------------------------------- Iteration      1(  17)  ---------------------------------------


    POTLOK:  cpu time    1.3890: real time    1.3892
    SETDIJ:  cpu time    2.1100: real time    2.1101
    TRIAL :  cpu time   62.0295: real time   62.0388
    CORREC:  cpu time    0.0005: real time    0.0008
    CHARGE:  cpu time    0.1877: real time    0.1877
    --------------------------------------------
      LOOP:  cpu time   65.7193: real time   65.7291

 eigenvalue-minimisations  :     0
 total energy-change (2. order) :-0.2314740E-01  (-0.2006767E-01)
 number of electron     247.0000016 magnetization       2.9999999
 augmentation part       16.8959973 magnetization       2.1607229

 DIPCOR: dipole corrections for dipol
 direction  3 min pos     1,
 dipolmoment           0.000001     -0.000000     -0.001227 electrons x Angstroem
 Tr[quadrupol]     -6733.396950

 energy correction for charged system         0.000000 eV
 dipol+quadrupol energy correction            0.000000 eV
 added-field ion interaction          0.000000 eV  (added to PSCEN)


 Free energy of the ion-electron system (eV)
  ---------------------------------------------------
  alpha Z        PSCENC =       101.61758354
  Ewald energy   TEWEN  =     39754.03485096
  -Hartree energ DENC   =    -48896.74548403
  -exchange      EXHF   =       565.70505921
  -V(xc)+E(xc)   XCENC  =       647.15803457
  PAW double counting   =     27502.76744873   -27640.45252989
  entropy T*S    EENTRO =        -0.00000000
  eigenvalues    EBANDS =     -3221.01930437
  atomic energy  EATOM  =     10585.36259583
  ---------------------------------------------------
  free energy    TOTEN  =      -601.57174545 eV

  energy without entropy =     -601.57174545  energy(sigma->0) =     -601.57174545
  exchange ACFDT corr.  =        -0.00000000  see jH, gK, PRB 81, 115126


--------------------------------------------------------------------------------------------------------




--------------------------------------- Iteration      1(  18)  ---------------------------------------


    POTLOK:  cpu time    1.3873: real time    1.3876
    SETDIJ:  cpu time    2.1146: real time    2.1146
    TRIAL :  cpu time   62.0764: real time   62.0844
    CORREC:  cpu time    0.0005: real time    0.0008
    CHARGE:  cpu time    0.1889: real time    0.1889
    --------------------------------------------
      LOOP:  cpu time   65.7706: real time   65.7792

 eigenvalue-minimisations  :     0
 total energy-change (2. order) :-0.1893667E-01  (-0.1671040E-01)
 number of electron     247.0000016 magnetization       2.9999999
 augmentation part       16.8954204 magnetization       2.1652299

 DIPCOR: dipole corrections for dipol
 direction  3 min pos     1,
 dipolmoment           0.000001     -0.000000     -0.001229 electrons x Angstroem
 Tr[quadrupol]     -6733.395754

 energy correction for charged system         0.000000 eV
 dipol+quadrupol energy correction            0.000000 eV
 added-field ion interaction          0.000000 eV  (added to PSCEN)


 Free energy of the ion-electron system (eV)
  ---------------------------------------------------
  alpha Z        PSCENC =       101.61758354
  Ewald energy   TEWEN  =     39754.03485096
  -Hartree energ DENC   =    -48896.59314543
  -exchange      EXHF   =       565.73643154
  -V(xc)+E(xc)   XCENC  =       647.17767448
  PAW double counting   =     27502.86123215   -27640.57728093
  entropy T*S    EENTRO =        -0.00000000
  eigenvalues    EBANDS =     -3221.21062427
  atomic energy  EATOM  =     10585.36259583
  ---------------------------------------------------
  free energy    TOTEN  =      -601.59068212 eV

  energy without entropy =     -601.59068212  energy(sigma->0) =     -601.59068212
[...]
  augment    96.98999   104.27258   111.35657    -1.23296     0.04324    -0.02170
  Kinetic  3593.59266  3638.13726  4126.92769     1.16928     0.00837    -0.00477
  Fock     -402.08267  -408.52650  -390.66270     2.43673    -0.03412     0.02382
  -------------------------------------------------------------------------------------
  Total     -45.30603   -38.36641    -0.39022     0.60367    -0.01285     0.00156
  in kB     -22.84911   -19.34927    -0.19680     0.30445    -0.00648     0.00079
  external pressure =      -14.13 kB  Pullay stress =        0.00 kB


 VOLUME and BASIS-vectors are now :
 -----------------------------------------------------------------------------
  energy-cutoff  :      500.00
  volume of cell :     3176.85
      direct lattice vectors                 reciprocal lattice vectors
    12.743500000  0.000000000  0.000000000     0.078471378 -0.000160515  0.000042335
     0.025606693 12.518373810  0.000000000     0.000000000  0.079882580 -0.000007477
    -0.010739808  0.001864075 19.914097017     0.000000000  0.000000000  0.050215684

  length of vectors
    12.743500000 12.518400000 19.914100000     0.078471553  0.079882581  0.050215684


 FORCES acting on ions:
    Electron-Ion                     Ewald-Force                    Non-Local-Force
 -----------------------------------------------------------------------------------------------
   0.447E+01 -.905E+00 0.143E+00   -.456E+01 0.759E+00 -.146E+00   -.119E+00 0.169E+00 0.334E-02
   0.478E+01 0.191E+01 0.309E+00   -.459E+01 -.210E+01 -.310E+00   -.117E+00 0.450E-01 0.247E-02
   0.919E+01 -.170E+01 0.670E-01   -.884E+01 0.196E+01 -.654E-01   -.130E+00 0.438E-01 -.287E-02
   0.420E+01 0.664E+01 0.125E+00   -.414E+01 -.672E+01 -.123E+00   -.247E+00 0.157E+00 -.860E-03
   0.878E+01 0.175E+02 -.289E-02   -.876E+01 -.176E+02 0.192E-02   -.213E+00 -.250E-01 0.663E-03
   0.200E+02 0.168E+01 0.352E+00   -.206E+02 -.171E+01 -.352E+00   0.285E+00 0.846E-01 0.130E-02
   0.164E+02 0.658E+01 0.301E+00   -.163E+02 -.653E+01 -.300E+00   0.132E+00 0.157E-01 0.725E-03
   -.719E+01 0.511E+02 -.727E+00   0.107E+02 -.539E+02 0.726E+00   -.293E+01 0.295E+01 -.159E-02
   0.225E+02 0.165E+01 0.421E+00   -.228E+02 -.178E+01 -.422E+00   -.645E-01 0.928E-01 0.214E-02
   0.594E+02 -.494E+01 0.309E+00   -.624E+02 0.511E+01 -.311E+00   0.335E+01 -.279E+00 0.663E-02
   0.178E+02 -.200E+01 0.167E+00   -.184E+02 0.196E+01 -.167E+00   0.354E+00 0.390E-01 0.904E-03
   0.622E+02 0.973E+01 0.319E+00   -.654E+02 -.101E+02 -.317E+00   0.360E+01 0.379E+00 -.300E-03
   -.126E+02 -.553E+02 0.764E-01   0.151E+02 0.584E+02 -.752E-01   -.234E+01 -.287E+01 -.118E-02
   0.587E+01 -.223E+02 -.126E+00   -.528E+01 0.227E+02 0.125E+00   -.383E+00 -.476E+00 -.149E-02
   0.251E+01 -.416E+01 0.135E-01   -.271E+01 0.427E+01 -.149E-01   -.397E-01 -.369E+00 0.130E-02
   0.162E+02 -.941E+01 -.616E-01   -.164E+02 0.965E+01 0.611E-01   0.496E-01 -.114E+00 -.127E-02
   0.276E+01 -.665E+01 -.194E-01   -.230E+01 0.691E+01 0.221E-01   -.283E+00 -.276E+00 -.428E-02
   -.502E+01 0.742E+00 0.896E+00   0.465E+01 -.982E+00 -.896E+00   0.268E+00 0.278E+00 0.228E-02
   -.863E+00 0.660E+01 0.218E+00   0.124E+01 -.651E+01 -.220E+00   -.220E+00 0.217E-01 0.484E-02
   -.117E+00 0.144E+01 0.589E+00   0.416E+00 -.154E+01 -.589E+00   -.560E-01 0.133E+00 0.878E-03
   -.533E+01 0.147E+02 0.800E+00   0.479E+01 -.153E+02 -.801E+00   0.280E+00 0.591E+00 0.655E-02
   0.836E+01 0.317E+02 -.509E-01   -.107E+02 -.350E+02 0.472E-01   0.234E+01 0.315E+01 0.435E-02
   0.210E+01 0.163E+02 -.572E+00   -.287E+01 -.155E+02 0.577E+00   0.981E+00 -.735E+00 -.839E-02
   -.412E+01 -.371E+02 -.267E+00   0.767E+00 0.407E+02 0.245E+00   0.265E+01 -.351E+01 0.180E-01
   -.129E+02 -.326E+02 -.108E-01   0.135E+02 0.317E+02 0.132E-01   -.672E+00 0.107E+01 -.336E-02
   -.108E+02 -.145E+02 0.228E+00   0.108E+02 0.149E+02 -.228E+00   0.620E-01 -.258E+00 0.251E-02
   -.674E+01 -.948E+01 0.489E+00   0.663E+01 0.964E+01 -.489E+00   0.314E+00 -.201E+00 0.640E-03
   -.315E+01 -.418E+01 0.344E+00   0.293E+01 0.419E+01 -.347E+00   -.384E-01 0.274E-01 0.268E-02
   -.357E+01 -.114E+02 0.279E+00   0.302E+01 0.109E+02 -.278E+00   0.303E+00 0.252E+00 -.951E-03
   -.440E+01 -.414E+00 0.767E+00   0.441E+01 0.596E+00 -.768E+00   0.150E+00 -.230E+00 0.259E-02
   -.583E+01 -.753E+00 0.266E+00   0.550E+01 0.784E+00 -.265E+00   0.112E-01 0.444E-01 -.162E-02
   -.141E+02 0.357E+01 0.636E+00   0.144E+02 -.383E+01 -.634E+00   -.119E+00 0.175E+00 0.144E-02
   -.286E+00 0.111E+01 0.554E+00   0.541E+00 -.127E+01 -.556E+00   0.132E-01 0.404E+00 0.219E-02
   0.614E+01 -.217E+01 0.327E+00   -.612E+01 0.232E+01 -.328E+00   0.224E-02 -.421E-01 0.901E-03
   -.303E+01 -.196E+01 0.302E+00   0.309E+01 0.214E+01 -.301E+00   -.262E+00 -.322E+00 -.111E-02
   -.418E+02 -.115E+02 -.290E+00   0.448E+02 0.117E+02 0.282E+00   -.357E+01 -.354E+00 0.692E-02
   -.118E+02 -.245E+01 0.256E+00   0.124E+02 0.246E+01 -.256E+00   -.318E+00 -.394E-01 0.762E-03
   0.673E+01 -.188E+01 0.342E+00   -.646E+01 0.233E+01 -.341E+00   0.927E-01 -.145E+00 0.835E-03
   0.314E+01 -.224E+01 0.187E+00   -.325E+01 0.220E+01 -.187E+00   -.981E-02 -.501E-01 0.128E-02
   -.477E+02 0.126E+02 -.271E+00   0.513E+02 -.128E+02 0.262E+00   -.383E+01 0.197E+00 0.969E-02
   -.125E+02 0.501E+01 -.291E+00   0.129E+02 -.488E+01 0.292E+00   -.122E+00 -.341E-01 -.182E-02
   0.336E+01 0.487E+01 0.350E+00   -.305E+01 -.492E+01 -.348E+00   -.142E+00 0.115E+00 -.116E-02
   -.365E+01 0.457E+01 0.429E+00   0.347E+01 -.500E+01 -.431E+00   -.190E+00 0.218E+00 0.502E-02
   -.147E+02 -.406E+01 0.220E+00   0.147E+02 0.407E+01 -.216E+00   -.162E+00 -.107E+00 -.379E-02
   -.151E+02 -.290E+00 0.240E+00   0.158E+02 0.563E+00 -.242E+00   -.386E+00 -.253E+00 0.146E-02
   0.936E+01 0.136E+01 0.229E+00   -.941E+01 -.157E+01 -.229E+00   0.253E+00 0.281E+00 -.312E-02
   -.348E+01 0.220E+00 0.298E+00   0.340E+01 -.330E+00 -.298E+00   0.332E-01 0.299E-01 0.299E-02
   -.851E+01 -.124E+01 0.504E+00   0.813E+01 0.996E+00 -.502E+00   0.152E+00 -.523E-01 -.364E-02
   -.260E+01 -.290E+01 0.360E+00   0.235E+01 0.311E+01 -.361E+00   0.186E+00 -.620E-01 0.312E-03
   0.793E+01 -.192E+01 0.961E-01   -.760E+01 0.194E+01 -.963E-01   -.175E-01 -.757E-01 -.261E-02
   -.159E+02 -.252E+01 -.160E+01   0.178E+02 0.717E+01 0.163E+01   -.327E+01 -.480E+01 -.318E-01
   -.295E+02 -.132E+02 -.324E+00   0.271E+02 0.956E+01 0.333E+00   0.279E+01 0.392E+01 -.965E-02
   0.479E+02 0.955E+01 -.503E+00   -.375E+02 0.688E+01 0.545E+00   -.103E+02 -.154E+02 -.378E-01
   0.434E+02 0.244E+01 0.602E+00   -.323E+02 -.206E+02 -.619E+00   -.106E+02 0.169E+02 0.167E-01
   -.991E+01 -.349E+02 -.877E+00   -.294E+00 0.520E+02 0.923E+00   0.107E+02 -.162E+02 -.468E-01
   -.256E+02 0.323E+02 -.184E+01   0.166E+02 -.481E+02 0.195E+01   0.924E+01 0.152E+02 -.113E+00
   -.196E+02 0.250E+02 -.467E+00   0.200E+02 -.220E+02 0.479E+00   -.148E+01 -.278E+01 -.122E-01
   -.290E+02 0.309E+02 -.495E+01   0.297E+02 -.339E+02 0.491E+01   -.323E-01 0.230E+01 0.346E-01
 -----------------------------------------------------------------------------------------------
   0.424E+01 0.820E+00 0.163E+00   -.355E-12 0.000E+00 0.533E-14   -.405E+01 -.691E+00 -.147E+00
 
 
 POSITION                                       TOTAL-FORCE (eV/Angst)
 -----------------------------------------------------------------------------------
      2.84697     12.50478      9.95725        -0.221889      0.032972      0.000802
      0.69615      1.24426      9.95645         0.061389     -0.143067      0.001353
      1.42647     12.51367      9.95705         0.221790      0.311725     -0.001403
      3.53662      1.21609      9.95785        -0.191757      0.086922      0.001120
      2.83201      2.44965      9.95864        -0.204572     -0.188810     -0.000237
      0.72408      3.74618      9.95685        -0.346483      0.064089      0.000944
      1.40939      2.48245      9.95705         0.178985      0.072965      0.001694
      3.55885      3.67207      9.96143         0.456017      0.285764     -0.002190
      0.80005      6.24447      9.95665        -0.316221     -0.032370      0.001934
      1.50814      4.96597      9.95765         0.509733     -0.129634      0.004332
      0.73677      8.76667      9.95685        -0.170088      0.005311      0.000686
      1.49224      7.53599      9.95685         0.625523      0.005620      0.001515
      3.52527      8.81049      9.95785         0.054309      0.091115     -0.000017
      2.84079     10.04280      9.95785         0.182389     -0.128510     -0.002487
      0.72163     11.26834      9.95705        -0.252355     -0.280844      0.000008
      1.42291     10.02352      9.95745        -0.100096      0.128188     -0.001883
      3.55490     11.27385      9.95745         0.166435     -0.029162     -0.001846
      7.10545     12.49627      9.95466        -0.091988      0.048815      0.002823
      4.95586      1.21071      9.95785         0.140863      0.111987      0.002908
      5.68671     12.49264      9.95585         0.243097      0.037426      0.001176
      7.79232      1.21734      9.95565        -0.242898      0.004971      0.005891
      7.09673      2.44114      9.95944         0.137613      0.020037      0.000905
      5.65852      2.45203      9.96103         0.254617      0.089417     -0.003609
      7.09371      7.57079      9.96063        -0.575779     -0.072549     -0.002793
      4.97489      8.77156      9.95844        -0.059787      0.230734     -0.001196
      7.81191      8.80022      9.95765         0.104443      0.158405      0.002638
      7.09951     10.02840      9.95605         0.218833     -0.055821      0.000831
      4.97437     11.26083      9.95645        -0.263063      0.035982      0.000481
      5.67770     10.01876      9.95685        -0.232456     -0.186312      0.000254
      7.81198     11.26597      9.95466         0.164967     -0.058562      0.002017
     11.34972     12.51768      9.95585        -0.335112      0.078403     -0.000607
      9.20881      1.24038      9.95546         0.071311     -0.082614      0.002959
      9.93518     12.51305      9.95506         0.279119      0.262317      0.000601
     12.01738      1.25527      9.95605         0.029450      0.104000      0.000345
     11.31587      2.51362      9.95645        -0.219303     -0.162265     -0.000052
      9.12433      3.73954      9.95984        -0.715149     -0.144892     -0.001511
      9.88387      2.50598      9.95705         0.270857     -0.034302      0.000369
     12.03041      3.76358      9.95665         0.367803      0.288782      0.002317
     11.30709      5.01191      9.95745        -0.105427     -0.099432      0.001809
      9.16180      6.29480      9.96043        -0.473082      0.016850      0.001540
      9.84580      5.01417      9.95964         0.283332      0.097684     -0.001169
     12.08340      6.24372      9.95665         0.156948      0.076848      0.001465
     11.35996      7.49556      9.95645        -0.375613     -0.195961      0.003443
      9.23403      8.77531      9.95705        -0.184754     -0.098967      0.000533
      9.92788      7.51396      9.95765         0.358461      0.006785      0.000150
     12.05756      8.75415      9.95645         0.216251      0.078675     -0.002615
     11.35682     10.00987      9.95605        -0.050280     -0.076762      0.002986
      9.23160     11.26434      9.95506        -0.233511     -0.302032     -0.001474
      9.93683     10.01713      9.95585        -0.048416      0.136987     -0.000751
     12.05072     11.26434      9.95645         0.323837     -0.059731     -0.002912
      4.98591      3.69698      9.96442        -1.599431     -0.415681     -0.003617
      5.67017      7.52385      9.96043         0.603260      0.517263     -0.000870
      2.88209      4.87984      9.96023        -0.701980     -0.289534      0.001328
      2.85597      7.62187      9.95725        -0.446279      0.163979      0.000263
      7.73449      3.66368      9.96183         1.396835     -0.502335     -0.004716
      7.79061      6.36590      9.96402         1.049460      0.744402     -0.007776
      4.25566      6.22707      9.96043        -0.742561      0.270141      0.000254
      6.35122      5.11344      9.96780         0.372403     -0.895409     -0.008942
 -----------------------------------------------------------------------------------
    total drift:                               -0.001810      0.002597     -0.000056


--------------------------------------------------------------------------------------------------------



  FREE ENERGIE OF THE ION-ELECTRON SYSTEM (eV)
  ---------------------------------------------------
  free  energy   TOTEN  =      -601.77064590 eV

  energy  without entropy=     -601.77064590  energy(sigma->0) =     -601.77064590
 


--------------------------------------------------------------------------------------------------------


    POTLOK:  cpu time    3.4501: real time    3.4505


--------------------------------------------------------------------------------------------------------


 stress matrix after NEB project (eV)
    -45.30603      0.60410      0.00156
      0.60367    -38.36641     -0.00954
      0.00182     -0.01285     -0.39022
  FORCES: max atom, RMS     1.652569    0.501859
  FORCE total and by dimension    3.822044    1.599431
  Stress total and by dimension   59.375919   45.306032
 writing wavefunctions
     LOOP+:  cpu time10370.2022: real time10372.3244
    4ORBIT:  cpu time    0.0000: real time    0.0000
 


 total charge     
 
# of ion       s       p       d       tot
------------------------------------------
    1        0.870   1.784   0.000   2.653
    2        0.866   1.768   0.000   2.635
    3        0.864   1.774   0.000   2.638
    4        0.871   1.782   0.000   2.653
    5        0.872   1.786   0.000   2.658
    6        0.858   1.752   0.000   2.610
    7        0.865   1.767   0.000   2.631
    8        0.866   1.726   0.000   2.592
    9        0.845   1.722   0.000   2.567
   10        0.852   1.692   0.000   2.543
   11        0.864   1.768   0.000   2.632
   12        0.853   1.707   0.000   2.560
   13        0.866   1.755   0.000   2.621
   14        0.873   1.795   0.000   2.669
   15        0.867   1.780   0.000   2.647
   16        0.869   1.766   0.000   2.635
   17        0.867   1.794   0.000   2.660
   18        0.864   1.796   0.000   2.660
   19        0.870   1.778   0.000   2.648
   20        0.870   1.780   0.000   2.650
   21        0.872   1.792   0.000   2.665
   22        0.865   1.757   0.000   2.622
   23        0.871   1.767   0.000   2.637
   24        0.863   1.728   0.000   2.592
   25        0.865   1.751   0.000   2.616
   26        0.871   1.784   0.000   2.655
   27        0.869   1.779   0.000   2.648
   28        0.868   1.780   0.000   2.648
   29        0.869   1.768   0.000   2.637
   30        0.869   1.779   0.000   2.648
   31        0.866   1.771   0.000   2.637
   32        0.869   1.764   0.000   2.633
   33        0.867   1.778   0.000   2.644
   34        0.865   1.755   0.000   2.621
   35        0.860   1.752   0.000   2.613
   36        0.848   1.691   0.000   2.538
   37        0.861   1.756   0.000   2.617
   38        0.858   1.747   0.000   2.605
   39        0.852   1.716   0.000   2.569
   40        0.855   1.708   0.000   2.563
   41        0.846   1.727   0.000   2.573
   42        0.852   1.714   0.000   2.566
   43        0.859   1.749   0.000   2.608
   44        0.864   1.770   0.000   2.634
   45        0.860   1.759   0.000   2.619
   46        0.863   1.760   0.000   2.623
   47        0.867   1.759   0.000   2.626
   48        0.864   1.775   0.000   2.639
   49        0.867   1.771   0.000   2.639
   50        0.866   1.771   0.000   2.637
   51        0.861   1.697   0.000   2.558
   52        0.851   1.679   0.000   2.531
   53        1.228   2.673   0.000   3.902
   54        1.235   2.678   0.000   3.913
   55        1.233   2.653   0.000   3.886
   56        1.232   2.700   0.000   3.932
   57        0.482   0.488   9.154  10.124
   58        0.457   0.559   6.030   7.047
--------------------------------------------------
tot         50.763 103.079  15.185 169.027
 


 magnetization (x)
 
# of ion       s       p       d       tot
------------------------------------------
    1       -0.001  -0.005   0.000  -0.006
    2       -0.000  -0.004   0.000  -0.004
    3        0.000   0.003   0.000   0.003
    4        0.001   0.012   0.000   0.013
    5       -0.000  -0.005   0.000  -0.006
    6       -0.001  -0.005   0.000  -0.006
    7        0.000   0.005   0.000   0.005
    8        0.002   0.007   0.000   0.009
    9       -0.000  -0.002   0.000  -0.003
   10       -0.000   0.003   0.000   0.003
   11       -0.001  -0.008   0.000  -0.010
   12        0.000   0.008   0.000   0.008
   13        0.001   0.005   0.000   0.006
   14       -0.001  -0.006   0.000  -0.006
   15       -0.000  -0.004   0.000  -0.004
   16        0.000   0.006   0.000   0.006
   17        0.001   0.013   0.000   0.013
   18       -0.000  -0.003   0.000  -0.003
   19       -0.002  -0.011   0.000  -0.013
   20        0.000   0.006   0.000   0.006
   21        0.000   0.004   0.000   0.004
   22       -0.000  -0.004   0.000  -0.004
   23        0.002   0.021   0.000   0.023
   24        0.001  -0.006   0.000  -0.004
   25        0.002  -0.000   0.000   0.001
   26        0.001   0.005   0.000   0.006
   27       -0.000  -0.003   0.000  -0.003
   28       -0.001  -0.005   0.000  -0.005
   29        0.001   0.005   0.000   0.006
   30        0.000   0.005   0.000   0.006
   31       -0.001  -0.007   0.000  -0.007
   32       -0.000  -0.005   0.000  -0.005
   33        0.000   0.004   0.000   0.005
   34        0.000   0.004   0.000   0.005
   35       -0.000  -0.005   0.000  -0.006
   36       -0.000  -0.010   0.000  -0.010
   37        0.001   0.007   0.000   0.008
   38        0.000   0.003   0.000   0.003
   39       -0.000  -0.004   0.000  -0.005
   40       -0.000  -0.007   0.000  -0.007
   41        0.001   0.008   0.000   0.009
   42        0.000   0.005   0.000   0.005
   43       -0.000  -0.002   0.000  -0.003
   44       -0.001  -0.008   0.000  -0.009
   45        0.001   0.006   0.000   0.006
   46        0.000   0.003   0.000   0.003
   47       -0.001  -0.005   0.000  -0.006
   48       -0.000  -0.003   0.000  -0.003
   49        0.000   0.005   0.000   0.005
   50        0.001   0.006   0.000   0.007
   51       -0.026  -0.094   0.000  -0.120
   52        0.003   0.000   0.000   0.003
   53       -0.007  -0.020   0.000  -0.027
   54       -0.012  -0.058   0.000  -0.070
   55        0.008   0.037   0.000   0.045
   56        0.002   0.014   0.000   0.016
   57       -0.012   0.005  -0.334  -0.340
   58        0.071   0.030   3.197   3.298
--------------------------------------------------
tot          0.033  -0.054   2.863   2.842
 

 total amount of memory used by VASP MPI-rank0   138162. kBytes
=======================================================================

   base      :      30000. kBytes
   nonl-proj :       3776. kBytes
   fftplans  :      14248. kBytes
   grid      :      36827. kBytes
   one-center:         62. kBytes
   HF        :         23. kBytes
   nonlr-proj:      14991. kBytes
   wavefun   :      38235. kBytes
 
  
  
 General timing and accounting informations for this job:
 ========================================================
  
                  Total CPU time used (sec):    10420.513
                            User time (sec):    10398.081
                          System time (sec):       22.431
                         Elapsed time (sec):    10425.629
  
                   Maximum memory used (kb):      388796.
                   Average memory used (kb):           0.
  
                          Minor page faults:       483524
                          Major page faults:            0
                 Voluntary context switches:         1236
