 vasp.5.4.4.18Apr17-6-g9f103f2a35 (build Feb 25 2019 10:51:38) complex          
  
 executed on             LinuxIFC date 2021.08.09  10:35:02
 running on   32 total cores
 distrk:  each k-point on   32 cores,    1 groups
 distr:  one band on NCORES_PER_BAND=  32 cores,    1 groups


--------------------------------------------------------------------------------------------------------


 INCAR:
 POTCAR:    PAW_PBE C 08Apr2002                   
 POTCAR:    PAW_PBE N 08Apr2002                   
 POTCAR:    PAW_PBE Fe 06Sep2000                  
 POTCAR:    PAW_PBE Mn 06Sep2000                  

 ----------------------------------------------------------------------------- 
|                                                                             |
|           W    W    AA    RRRRR   N    N  II  N    N   GGGG   !!!           |
|           W    W   A  A   R    R  NN   N  II  NN   N  G    G  !!!           |
|           W    W  A    A  R    R  N N  N  II  N N  N  G       !!!           |
|           W WW W  AAAAAA  RRRRR   N  N N  II  N  N N  G  GGG   !            |
|           WW  WW  A    A  R   R   N   NN  II  N   NN  G    G                |
|           W    W  A    A  R    R  N    N  II  N    N   GGGG   !!!           |
|                                                                             |
|      For optimal performance we recommend to set                            |
|        NCORE= 4 - approx SQRT( number of cores)                             |
|      NCORE specifies how many cores store one orbital (NPAR=cpu/NCORE).     |
|      This setting can  greatly improve the performance of VASP for DFT.     |
|      The default,   NCORE=1            might be grossly inefficient         |
|      on modern multi-core architectures or massively parallel machines.     |
|      Do your own testing !!!!                                               |
|      Unfortunately you need to use the default for GW and RPA calculations. |
|      (for HF NCORE is supported but not extensively tested yet)             |
|                                                                             |
 ----------------------------------------------------------------------------- 

 POTCAR:    PAW_PBE C 08Apr2002                   
   VRHFIN =C: s2p2                                                              
   LEXCH  = PE                                                                  
   EATOM  =   147.1560 eV,   10.8157 Ry                                         
                                                                                
   TITEL  = PAW_PBE C 08Apr2002                                                 
   LULTRA =        F    use ultrasoft PP ?                                      
   IUNSCR =        1    unscreen: 0-lin 1-nonlin 2-no                           
   RPACOR =    1.200    partial core radius                                     
   POMASS =   12.011; ZVAL   =    4.000    mass and valenz                      
   RCORE  =    1.500    outmost cutoff radius                                   
   RWIGS  =    1.630; RWIGS  =    0.863    wigner-seitz radius (au A)           
   ENMAX  =  400.000; ENMIN  =  300.000 eV                                      
   ICORE  =        2    local potential                                         
   LCOR   =        T    correct aug charges                                     
   LPAW   =        T    paw PP                                                  
   EAUG   =  644.873                                                            
   DEXC   =    0.000                                                            
   RMAX   =    1.529    core radius for proj-oper                               
   RAUG   =    1.300    factor for augmentation sphere                          
   RDEP   =    1.501    radius for radial grids                                 
   RDEPT  =    1.300    core radius for aug-charge                              
                                                                                
   Atomic configuration                                                         
    4 entries                                                                   
     n  l   j            E        occ.                                          
     1  0  0.50      -273.3789   2.0000                                         
     2  0  0.50       -13.7508   2.0000                                         
     2  1  0.50        -5.2854   2.0000                                         
     3  2  1.50        -5.4423   0.0000                                         
   Description                                                                  
     l       E           TYP  RCUT    TYP  RCUT                                 
     0    -13.7508458     23  1.200                                             
     0     -8.2022199     23  1.200                                             
     1     -5.2854383     23  1.500                                             
     1     34.0145650     23  1.500                                             
     2     -5.4423304      7  1.500                                             
  local pseudopotential read in
  partial core-charges read in
  partial kinetic energy density read in
  atomic valenz-charges read in
  non local Contribution for L=           0  read in
    real space projection operators read in
  non local Contribution for L=           0  read in
    real space projection operators read in
  non local Contribution for L=           1  read in
    real space projection operators read in
  non local Contribution for L=           1  read in
    real space projection operators read in
    PAW grid and wavefunctions read in
 
   number of l-projection  operators is LMAX  =           4
   number of lm-projection operators is LMMAX =           8
 
 POTCAR:    PAW_PBE N 08Apr2002                   
   VRHFIN =N: s2p3                                                              
   LEXCH  = PE                                                                  
   EATOM  =   264.5486 eV,   19.4438 Ry                                         
                                                                                
   TITEL  = PAW_PBE N 08Apr2002                                                 
   LULTRA =        F    use ultrasoft PP ?                                      
   IUNSCR =        1    unscreen: 0-lin 1-nonlin 2-no                           
   RPACOR =    1.200    partial core radius                                     
   POMASS =   14.001; ZVAL   =    5.000    mass and valenz                      
   RCORE  =    1.500    outmost cutoff radius                                   
   RWIGS  =    1.400; RWIGS  =    0.741    wigner-seitz radius (au A)           
   ENMAX  =  400.000; ENMIN  =  300.000 eV                                      
   ICORE  =        2    local potential                                         
   LCOR   =        T    correct aug charges                                     
   LPAW   =        T    paw PP                                                  
   EAUG   =  627.112                                                            
   DEXC   =    0.000                                                            
   RMAX   =    1.529    core radius for proj-oper                               
   RAUG   =    1.300    factor for augmentation sphere                          
   RDEP   =    1.514    radius for radial grids                                 
   RDEPT  =    1.338    core radius for aug-charge                              
                                                                                
   Atomic configuration                                                         
    4 entries                                                                   
     n  l   j            E        occ.                                          
     1  0  0.50      -384.7179   2.0000                                         
     2  0  0.50       -18.5828   2.0000                                         
     2  1  0.50        -7.0898   3.0000                                         
     3  2  1.50        -6.8029   0.0000                                         
   Description                                                                  
     l       E           TYP  RCUT    TYP  RCUT                                 
     0    -18.5828119     23  1.200                                             
     0    -13.5018863     23  1.200                                             
     1     -7.0897853     23  1.500                                             
     1      9.5240782     23  1.500                                             
     2     -6.8029130      7  1.500                                             
  local pseudopotential read in
  partial core-charges read in
  partial kinetic energy density read in
  atomic valenz-charges read in
  non local Contribution for L=           0  read in
    real space projection operators read in
  non local Contribution for L=           0  read in
    real space projection operators read in
  non local Contribution for L=           1  read in
    real space projection operators read in
  non local Contribution for L=           1  read in
    real space projection operators read in
    PAW grid and wavefunctions read in
 
   number of l-projection  operators is LMAX  =           4
   number of lm-projection operators is LMMAX =           8
 
 POTCAR:    PAW_PBE Fe 06Sep2000                  
   VRHFIN =Fe:  d7 s1                                                           
   LEXCH  = PE                                                                  
   EATOM  =   594.3153 eV,   43.6809 Ry                                         
                                                                                
   TITEL  = PAW_PBE Fe 06Sep2000                                                
   LULTRA =        F    use ultrasoft PP ?                                      
   IUNSCR =        1    unscreen: 0-lin 1-nonlin 2-no                           
   RPACOR =    2.000    partial core radius                                     
   POMASS =   55.847; ZVAL   =    8.000    mass and valenz                      
   RCORE  =    2.300    outmost cutoff radius                                   
   RWIGS  =    2.460; RWIGS  =    1.302    wigner-seitz radius (au A)           
   ENMAX  =  267.882; ENMIN  =  200.911 eV                                      
   RCLOC  =    1.701    cutoff for local pot                                    
   LCOR   =        T    correct aug charges                                     
   LPAW   =        T    paw PP                                                  
   EAUG   =  511.368                                                            
   DEXC   =    0.000                                                            
   RMAX   =    2.356    core radius for proj-oper                               
   RAUG   =    1.300    factor for augmentation sphere                          
   RDEP   =    2.442    radius for radial grids                                 
   RDEPT  =    1.890    core radius for aug-charge                              
                                                                                
   Atomic configuration                                                         
    9 entries                                                                   
     n  l   j            E        occ.                                          
     1  0  0.50     -6993.8440   2.0000                                         
     2  0  0.50      -814.6047   2.0000                                         
     2  1  1.50      -693.3689   6.0000                                         
     3  0  0.50       -89.4732   2.0000                                         
     3  1  1.50       -55.6373   6.0000                                         
     3  2  2.50        -3.8151   7.0000                                         
     4  0  0.50        -4.2551   1.0000                                         
     4  1  1.50        -3.4015   0.0000                                         
     4  3  2.50        -1.3606   0.0000                                         
   Description                                                                  
     l       E           TYP  RCUT    TYP  RCUT                                 
     2     -3.8151135     23  2.300                                             
     2     -5.1756961     23  2.300                                             
     0     -4.2550963     23  2.300                                             
     0      7.2035603     23  2.300                                             
     1     -2.7211652     23  2.300                                             
     1     18.4316424     23  2.300                                             
  local pseudopotential read in
  partial core-charges read in
  partial kinetic energy density read in
  atomic valenz-charges read in
  non local Contribution for L=           2  read in
    real space projection operators read in
  non local Contribution for L=           2  read in
    real space projection operators read in
  non local Contribution for L=           0  read in
    real space projection operators read in
  non local Contribution for L=           0  read in
    real space projection operators read in
  non local Contribution for L=           1  read in
    real space projection operators read in
  non local Contribution for L=           1  read in
    real space projection operators read in
    PAW grid and wavefunctions read in
 
   number of l-projection  operators is LMAX  =           6
   number of lm-projection operators is LMMAX =          18
 
 POTCAR:    PAW_PBE Mn 06Sep2000                  
   VRHFIN =Mn: d6 s1                                                            
   LEXCH  = PE                                                                  
   EATOM  =   416.7541 eV,   30.6306 Ry                                         
                                                                                
   TITEL  = PAW_PBE Mn 06Sep2000                                                
   LULTRA =        F    use ultrasoft PP ?                                      
   IUNSCR =        1    unscreen: 0-lin 1-nonlin 2-no                           
   RPACOR =    2.000    partial core radius                                     
   POMASS =   54.938; ZVAL   =    7.000    mass and valenz                      
   RCORE  =    2.300    outmost cutoff radius                                   
   RWIGS  =    2.500; RWIGS  =    1.323    wigner-seitz radius (au A)           
   ENMAX  =  269.864; ENMIN  =  202.398 eV                                      
   RCLOC  =    1.725    cutoff for local pot                                    
   LCOR   =        T    correct aug charges                                     
   LPAW   =        T    paw PP                                                  
   EAUG   =  500.711                                                            
   DEXC   =    0.000                                                            
   RMAX   =    2.343    core radius for proj-oper                               
   RAUG   =    1.300    factor for augmentation sphere                          
   RDEP   =    2.338    radius for radial grids                                 
   RDEPT  =    1.911    core radius for aug-charge                              
                                                                                
   Atomic configuration                                                         
    9 entries                                                                   
     n  l   j            E        occ.                                          
     1  0  0.50     -6424.8288   2.0000                                         
     2  0  0.50      -739.1154   2.0000                                         
     2  1  1.50      -625.3949   6.0000                                         
     3  0  0.50       -81.6100   2.0000                                         
     3  1  1.50       -50.4667   6.0000                                         
     3  2  2.50        -3.3745   6.0000                                         
     4  0  0.50        -4.1331   1.0000                                         
     4  1  0.50        -4.0817   0.0000                                         
     4  3  2.50        -1.3606   0.0000                                         
   Description                                                                  
     l       E           TYP  RCUT    TYP  RCUT                                 
     2     -3.3744664     23  2.300                                             
     2     -4.7350490     23  2.300                                             
     0     -4.1331408     23  2.300                                             
     0      7.6656614     23  2.300                                             
     1     -2.7211652     23  2.300                                             
     1     20.4087390     23  2.300                                             
  local pseudopotential read in
  partial core-charges read in
  partial kinetic energy density read in
  atomic valenz-charges read in
  non local Contribution for L=           2  read in
    real space projection operators read in
  non local Contribution for L=           2  read in
    real space projection operators read in
  non local Contribution for L=           0  read in
    real space projection operators read in
  non local Contribution for L=           0  read in
    real space projection operators read in
  non local Contribution for L=           1  read in
    real space projection operators read in
  non local Contribution for L=           1  read in
    real space projection operators read in
    PAW grid and wavefunctions read in
 
   number of l-projection  operators is LMAX  =           6
   number of lm-projection operators is LMMAX =          18
 

 ----------------------------------------------------------------------------- 
|                                                                             |
|  ADVICE TO THIS USER RUNNING 'VASP/VAMP'   (HEAR YOUR MASTER'S VOICE ...):  |
|                                                                             |
|      You have a (more or less) 'large supercell' and for larger cells       |
|      it might be more efficient to use real space projection opertators     |
|      So try LREAL= Auto  in the INCAR   file.                               |
|      Mind:          For very  accurate calculation you might also keep the  |
|      reciprocal projection scheme          (i.e. LREAL=.FALSE.)             |
|                                                                             |
 ----------------------------------------------------------------------------- 

  PAW_PBE C 08Apr2002                   :
 energy of atom  1       EATOM= -147.1560
 kinetic energy error for atom=    0.0076 (will be added to EATOM!!)
  PAW_PBE N 08Apr2002                   :
 energy of atom  2       EATOM= -264.5486
 kinetic energy error for atom=    0.0138 (will be added to EATOM!!)
  PAW_PBE Fe 06Sep2000                  :
 energy of atom  3       EATOM= -594.3153
 kinetic energy error for atom=    0.0026 (will be added to EATOM!!)
  PAW_PBE Mn 06Sep2000                  :
 energy of atom  4       EATOM= -416.7541
 kinetic energy error for atom=    0.0024 (will be added to EATOM!!)
 
 
 POSCAR:  C  N Fe Mn                             
  positions in cartesian coordinates
  No initial velocities read in
 exchange correlation table for  LEXCH =        8
   RHO(1)=    0.500       N(1)  =     2000
   RHO(2)=  100.500       N(2)  =     4000

 VTST: version 3.2, (02/03/18)

 CHAIN: initializing optimizer
 
 OPT: Using VASP Conjugate-Gradient optimizer
 CHAIN: Read ICHAIN            0
 
 POSCAR:  C  N Fe Mn                             
  positions in cartesian coordinates
  No initial velocities read in
 


--------------------------------------------------------------------------------------------------------


 ion  position               nearest neighbor table
   1  0.227  0.002  0.500-  18 1.44   4 1.47   3 1.47
   2  0.057  0.100  0.500-   7 1.43   3 1.43  33 1.45
   3  0.114  0.001  0.500-   2 1.43  16 1.44   1 1.47
   4  0.282  0.106  0.500-   5 1.46   1 1.47  20 1.47
   5  0.221  0.205  0.500-  53 1.38   7 1.45   4 1.46
   6  0.051  0.298  0.500-  10 1.41  37 1.43   7 1.43
   7  0.110  0.201  0.500-   2 1.43   6 1.43   5 1.45
   8  0.208  0.398  0.500-  53 1.37  10 1.40  11 1.42
   9  0.048  0.500  0.500-  41 1.41  14 1.42  10 1.43
  10  0.101  0.399  0.500-   8 1.40   6 1.41   9 1.43
  11  0.263  0.497  0.499-  55 1.34   8 1.42  12 1.44
  12  0.210  0.600  0.500-  14 1.41  50 1.41  11 1.44
  13  0.052  0.701  0.500-  14 1.41  45 1.43  17 1.44
  14  0.102  0.600  0.500-  12 1.41  13 1.41   9 1.42
  15  0.222  0.798  0.500-  50 1.42  17 1.45  18 1.46
  16  0.057  0.901  0.500-  17 1.43   3 1.44  49 1.45
  17  0.111  0.800  0.500-  16 1.43  13 1.44  15 1.45
  18  0.280  0.900  0.500-   1 1.44  15 1.46  28 1.47
  19  0.558  0.999  0.500-  29 1.43  22 1.43  21 1.45
  20  0.395  0.105  0.500-  54 1.40  21 1.45   4 1.47
  21  0.447  0.001  0.500-  19 1.45  28 1.45  20 1.45
  22  0.614  0.098  0.500-  23 1.41  19 1.43  31 1.44
  23  0.560  0.197  0.500-  54 1.39  22 1.41  24 1.45
  24  0.614  0.300  0.500-  35 1.43  51 1.43  23 1.45
  25  0.611  0.501  0.500-  56 1.40  39 1.45  51 1.45
  26  0.616  0.698  0.500-  56 1.37  43 1.42  27 1.47
  27  0.559  0.800  0.500-  52 1.42  29 1.42  26 1.47
  28  0.392  0.899  0.500-  52 1.43  21 1.45  18 1.47
  29  0.615  0.900  0.500-  27 1.42  19 1.43  47 1.44
  30  0.891  1.000  0.500-  33 1.42  49 1.42  32 1.44
  31  0.725  0.099  0.500-  36 1.42  32 1.42  22 1.44
  32  0.780  1.000  0.500-  47 1.42  31 1.42  30 1.44
  33  0.946  0.100  0.500-  30 1.42  34 1.43   2 1.45
  34  0.889  0.198  0.500-  37 1.42  36 1.43  33 1.43
  35  0.723  0.299  0.500-  40 1.42  24 1.43  36 1.43
  36  0.779  0.199  0.500-  31 1.42  35 1.43  34 1.43
  37  0.941  0.299  0.500-  34 1.42   6 1.43  38 1.43
  38  0.886  0.399  0.500-  41 1.42  40 1.43  37 1.43
  39  0.722  0.500  0.500-  40 1.43  44 1.43  25 1.45
  40  0.777  0.399  0.500-  35 1.42  38 1.43  39 1.43
  41  0.940  0.500  0.500-   9 1.41  42 1.42  38 1.42
  42  0.887  0.600  0.500-  41 1.42  44 1.43  45 1.43
  43  0.725  0.700  0.500-  26 1.42  44 1.42  48 1.43
  44  0.778  0.600  0.500-  43 1.42  42 1.43  39 1.43
  45  0.942  0.701  0.500-  46 1.42  13 1.43  42 1.43
  46  0.889  0.801  0.500-  45 1.42  48 1.43  49 1.43
  47  0.725  0.901  0.500-  48 1.42  32 1.42  29 1.44
  48  0.780  0.801  0.500-  47 1.42  43 1.43  46 1.43
  49  0.946  0.901  0.500-  30 1.42  46 1.43  16 1.45
  50  0.270  0.695  0.500-  12 1.41  15 1.42  58 1.97
  51  0.556  0.398  0.499-  24 1.43  25 1.45  57 1.95
  52  0.450  0.800  0.500-  27 1.42  28 1.43  58 1.97
  53  0.267  0.306  0.499-   8 1.37   5 1.38  57 1.99
  54  0.454  0.200  0.499-  23 1.39  20 1.40  57 1.96
  55  0.365  0.494  0.498-  11 1.34  57 1.85  58 1.97
  56  0.563  0.602  0.499-  26 1.37  25 1.40  58 2.04
  57  0.413  0.353  0.499-  55 1.85  51 1.95  54 1.96  53 1.99
  58  0.413  0.646  0.499-  52 1.97  55 1.97  50 1.97  56 2.04
 
  LATTYP: Found a triclinic cell.
 ALAT       =    17.9489183852
 B/A-ratio  =     0.6863634760
 C/A-ratio  =     1.0991843804
 COS(alpha) =     0.0001584692
 COS(beta)  =     0.0003961091
 COS(gamma) =     0.6853461961
  
  Lattice vectors:
  
 A1 = (  13.0526786160,  12.3203592536,   0.0001001139)
 A2 = (  -0.0180489075,  12.3194687908,   0.0001560748)
 A3 = (   0.0078690440,   0.0028880501,  19.7291689543)


Analysis of symmetry for initial positions (statically):
=====================================================================
 Subroutine PRICEL returns:
 Original cell was already a primitive cell.
 

 Routine SETGRP: Setting up the symmetry group for a 
 triclinic supercell.


 Subroutine GETGRP returns: Found  1 space group operations
 (whereof  1 operations were pure point group operations)
 out of a pool of  2 trial point group operations.


The static configuration has the point symmetry C_1 .


Analysis of symmetry for dynamics (positions and initial velocities):
=====================================================================
 Subroutine PRICEL returns:
 Original cell was already a primitive cell.
 

 Routine SETGRP: Setting up the symmetry group for a 
 triclinic supercell.


 Subroutine GETGRP returns: Found  1 space group operations
 (whereof  1 operations were pure point group operations)
 out of a pool of  2 trial point group operations.


The dynamic configuration has the point symmetry C_1 .


Analysis of structural, dynamic, and magnetic symmetry:
=====================================================================
 Subroutine PRICEL returns:
 Original cell was already a primitive cell.
 

 Routine SETGRP: Setting up the symmetry group for a 
 triclinic supercell.


 Subroutine GETGRP returns: Found  1 space group operations
 (whereof  1 operations were pure point group operations)
 out of a pool of  2 trial point group operations.


The magnetic configuration has the point symmetry C_1 .


 Subroutine INISYM returns: Found  1 space group operations
 (whereof  1 operations are pure point group operations),
 and found     1 'primitive' translations

 
 
 KPOINTS: KPOINTS created by Atomic Simulation Env

Automatic generation of k-mesh.
Space group operators:
 irot       det(A)        alpha          n_x          n_y          n_z        tau_x        tau_y        tau_z
    1     1.000000     0.000000     1.000000     0.000000     0.000000     0.000000     0.000000     0.000000
 
 Subroutine IBZKPT returns following result:
 ===========================================
 
 Found      2 irreducible k-points:
 
 Following reciprocal coordinates:
            Coordinates               Weight
  0.250000  0.250000  0.000000      2.000000
 -0.250000  0.250000  0.000000      2.000000
 
 Following cartesian coordinates:
            Coordinates               Weight
  0.019125  0.020321 -0.000011      2.000000
 -0.019128  0.020265  0.000005      2.000000
 
 
 Subroutine IBZKPT_HF returns following result:
 ==============================================
 
 Found      4 k-points in 1st BZ
 the following      4 k-points will be used (e.g. in the exchange kernel)
 Following reciprocal coordinates:   # in IRBZ
  0.250000  0.250000  0.000000    0.25000000   1 t-inv F
 -0.250000  0.250000  0.000000    0.25000000   2 t-inv F
 -0.250000 -0.250000  0.000000    0.25000000   1 t-inv T
  0.250000 -0.250000 -0.000000    0.25000000   2 t-inv T


--------------------------------------------------------------------------------------------------------




 Dimension of arrays:
   k-points           NKPTS =      2   k-points in BZ     NKDIM =      4   number of bands    NBANDS=    155
   number of dos      NEDOS =    301   number of ions     NIONS =     58
   non local maximal  LDIM  =      6   non local SUM 2l+1 LMDIM =     18
   total plane-waves  NPLWV = ******
   max r-space proj   IRMAX =      1   max aug-charges    IRDMAX=  14596
   dimension x,y,z NGX =    96 NGY =   90 NGZ =  144
   dimension x,y,z NGXF=   192 NGYF=  180 NGZF=  288
   support grid    NGXF=   192 NGYF=  180 NGZF=  288
   ions per type =              52   4   1   1
   NGX,Y,Z   is equivalent  to a cutoff of  12.21, 12.15, 12.13 a.u.
   NGXF,Y,Z  is equivalent  to a cutoff of  24.42, 24.29, 24.27 a.u.

 SYSTEM =  unknown system                          
 POSCAR =   C  N Fe Mn                             

 Startparameter for this run:
   NWRITE =      2    write-flag & timer
   PREC   = accura    normal or accurate (medium, high low for compatibility)
   ISTART =      1    job   : 0-new  1-cont  2-samecut
   ICHARG =      0    charge: 1-file 2-atom 10-const
   ISPIN  =      2    spin polarized calculation?
   LNONCOLLINEAR =      F non collinear calculations
   LSORBIT =      F    spin-orbit coupling
   INIWAV =      1    electr: 0-lowe 1-rand  2-diag
   LASPH  =      T    aspherical Exc in radial PAW
   METAGGA=      F    non-selfconsistent MetaGGA calc.

 Electronic Relaxation 1
   ENCUT  =  500.0 eV  36.75 Ry    6.06 a.u.  23.83 22.46 35.97*2*pi/ulx,y,z
   ENINI  =  500.0     initial cutoff
   ENAUG  =  644.9 eV  augmentation charge cutoff
   NELM   =    250;   NELMIN=  2; NELMDL=  0     # of ELM steps 
   EDIFF  = 0.1E-03   stopping-criterion for ELM
   LREAL  =      F    real-space projection
   NLSPLINE    = F    spline interpolate recip. space projectors
   LCOMPAT=      F    compatible to vasp.4.4
   GGA_COMPAT  = T    GGA compatible to vasp.4.4-vasp.4.6
   LMAXPAW     = -100 max onsite density
   LMAXMIX     =    2 max onsite mixed and CHGCAR
   VOSKOWN=      0    Vosko Wilk Nusair interpolation
   ROPT   =    0.00000   0.00000   0.00000   0.00000
 Ionic relaxation
   EDIFFG = -.3E-01   stopping-criterion for IOM
   NSW    =      0    number of steps for IOM
   NBLOCK =      1;   KBLOCK =      1    inner block; outer block 
   IBRION =     -1    ionic relax: 0-MD 1-quasi-New 2-CG
   NFREE  =      1    steps in history (QN), initial steepest desc. (CG)
   ISIF   =      2    stress and relaxation
   IWAVPR =     10    prediction:  0-non 1-charg 2-wave 3-comb
   ISYM   =      3    0-nonsym 1-usesym 2-fastsym
   LCORR  =      T    Harris-Foulkes like correction to forces

   POTIM  = 0.5000    time-step for ionic-motion
   TEIN   =    0.0    initial temperature
   TEBEG  =    0.0;   TEEND  =   0.0 temperature during run
   SMASS  =  -3.00    Nose mass-parameter (am)
   estimated Nose-frequenzy (Omega)   =  0.10E-29 period in steps =****** mass=  -0.390E-26a.u.
   SCALEE = 1.0000    scale energy and forces
   NPACO  =    256;   APACO  = 16.0  distance and # of slots for P.C.
   PSTRESS=    0.0 pullay stress

  Mass of Ions in am
   POMASS =  12.01 14.00 55.85 54.94
  Ionic Valenz
   ZVAL   =   4.00  5.00  8.00  7.00
  Atomic Wigner-Seitz radii
   RWIGS  =  -1.00 -1.00 -1.00 -1.00
  virtual crystal weights 
   VCA    =   1.00  1.00  1.00  1.00
   NELECT =     243.0000    total number of electrons
   NUPDOWN=      -1.0000    fix difference up-down

 DOS related values:
   EMIN   =  10.00;   EMAX   =-10.00  energy-range for DOS
   EFERMI =   0.00
   ISMEAR =     0;   SIGMA  =   0.10  broadening in eV -4-tet -1-fermi 0-gaus

 Electronic relaxation 2 (details)
   IALGO  =     53    algorithm
   LDIAG  =      T    sub-space diagonalisation (order eigenvalues)
   LSUBROT=      F    optimize rotation matrix (better conditioning)
   TURBO    =      0    0=normal 1=particle mesh
   IRESTART =      0    0=no restart 2=restart with 2 vectors
   NREBOOT  =      0    no. of reboots
   NMIN     =      0    reboot dimension
   EREF     =   0.00    reference energy to select bands
   IMIX   =      4    mixing-type and parameters
     AMIX     =   0.40;   BMIX     =  1.00
     AMIX_MAG =   1.60;   BMIX_MAG =  1.00
     AMIN     =   0.10
     WC   =   100.;   INIMIX=   1;  MIXPRE=   1;  MAXMIX= -45

 Intra band minimization:
   WEIMIN = 0.0000     energy-eigenvalue tresh-hold
   EBREAK =  0.16E-06  absolut break condition
   DEPER  =   0.30     relativ break condition  

   TIME   =   0.20     timestep for ELM

  volume/ion in A,a.u.               =      54.77       369.63
  Fermi-wavevector in a.u.,A,eV,Ry     =   0.694934  1.313234  6.570701  0.482933
  Thomas-Fermi vector in A             =   1.777565
 
 Write flags
   LWAVE        =      T    write WAVECAR
   LDOWNSAMPLE  =      F    k-point downsampling of WAVECAR
   LCHARG       =      T    write CHGCAR
   LVTOT        =      F    write LOCPOT, total local potential
   LVHAR        =      F    write LOCPOT, Hartree potential only
   LELF         =      F    write electronic localiz. function (ELF)
   LORBIT       =     11    0 simple, 1 ext, 2 COOP (PROOUT), +10 PAW based schemes


 Dipole corrections
   LMONO  =      F    monopole corrections only (constant potential shift)
   LDIPOL =      T    correct potential (dipole corrections)
   IDIPOL =      3    1-x, 2-y, 3-z, 4-all directions 
   EPSILON=  1.0000000 bulk dielectric constant

 Exchange correlation treatment:
   GGA     =    PE    GGA type
   LEXCH   =     8    internal setting for exchange type
   VOSKOWN=      0    Vosko Wilk Nusair interpolation
   EXXOEP  =     0    0=HF, 1=EXX-LHF (local Hartree Fock) 2=EXX OEP
   LHFCALC =     T    Hartree Fock is set to
   LSYMGRAD=     F    symmetrize gradient (conserves proper symmetry)
   PRECFOCK=normal    Normal, Fast or Accurate (Low or Medium for compatibility)
   LRHFCALC=     F    long range Hartree Fock
   LRSCOR  =     F    long range correlation only (use DFT for short range part)
   LTHOMAS =     F    Thomas Fermi screening in HF
   LMODELHF=     F    short range full HF, long range fraction AEXX
   ENCUT4O =  -1.0   cutoff for four orbital integrals eV
   LMAXFOCK=     4    L truncation for augmentation on plane wave grid
   LMAXFOCKAE=  -1    L truncation for all-electron charge restoration on plane wave grid
   NMAXFOCKAE=   1    number of basis functions for all-electron charge restoration
   LFOCKAEDFT=     F  apply the AE augmentation even for DFT
   NKREDX  =     1    reduce k-point grid by
   NKREDY  =     1    reduce k-point grid by
   NKREDZ  =     1    reduce k-point grid by
   SHIFTRED=     F    shift reduced grid of Gamma
   HFKIDENT=     F    idential grid for each k-point
   ODDONLY =     F    use only odd q-grid points
   EVENONLY=     F    use only even q-grid points
   HFALPHA =   -1.0000 decay constant for conv. correction
   MCALPHA =    0.0000 extent of test-charge in conv. correction in multipole expansion
   AEXX    =    0.2500 exact exchange contribution
   HFSCREEN=    0.2000 screening length (either q_TF or 0.3 A-1)
   HFSCREENC=   0.2000 screening length for correlation (either q_TF or 0.3 A-1)
   HFRCUT  =    0.0000 spherical cutoff for potential kernel
   ALDAX   =    0.7500 LDA exchange part
   AGGAX   =    0.7500 GGA exchange part
   ALDAC   =    1.0000 LDA correlation
   AGGAC   =    1.0000 GGA correlation
   ENCUTFOCK=  -1.0 apply spherical cutoff to Coloumb kernel
   NBANDSGWLOW=     1    first orbital included in HF term
   NBLOCK_FOCK=    64    blocking factor in FOCK_ACC
 Linear response parameters
   LEPSILON=     F    determine dielectric tensor
   LRPA    =     F    only Hartree local field effects (RPA)
   LNABLA  =     F    use nabla operator in PAW spheres
   LVEL    =     F    velocity operator in full k-point grid
   LINTERFAST=   F  fast interpolation
   KINTER  =     0    interpolate to denser k-point grid
   CSHIFT  =0.1000    complex shift for real part using Kramers Kronig
   OMEGAMAX=  -1.0    maximum frequency
   DEG_THRESHOLD= 0.2000000E-02 threshold for treating states as degnerate
   RTIME   =   -0.100 relaxation time in fs
  (WPLASMAI=    0.000 imaginary part of plasma frequency in eV, 0.658/RTIME)
   DFIELD  = 0.0000000 0.0000000 0.0000000 field for delta impulse in time
 
 Orbital magnetization related:
   ORBITALMAG=     F  switch on orbital magnetization
   LCHIMAG   =     F  perturbation theory with respect to B field
   DQ        =  0.001000  dq finite difference perturbation B field
   LLRAUG    =     F  two centre corrections for induced B field



--------------------------------------------------------------------------------------------------------


 Static calculation
 charge density and potential will be updated during run
 spin polarized calculation
 Conjugate gradient for all bands (Freysoldt, et al. PRB 79, 241103 (2009))
 perform sub-space diagonalisation
    before iterative eigenvector-optimisation
 modified Broyden-mixing scheme, WC =      100.0
 initial mixing is a Kerker type mixing with AMIX =  0.4000 and BMIX =      1.0000
 Hartree-type preconditioning will be used
 using additional bands           33
 reciprocal scheme for non local part
 use partial core corrections
 no Harris-corrections to forces 
 use gradient corrections 
 use of overlap-Matrix (Vanderbilt PP)
 Gauss-broadening in eV      SIGMA  =   0.10


--------------------------------------------------------------------------------------------------------


  energy-cutoff  :      500.00
  volume of cell :     3176.88
      direct lattice vectors                 reciprocal lattice vectors
    13.070727524  0.000890463 -0.000055961     0.076506828  0.000112088 -0.000030531
    -0.018048908 12.319468791  0.000156075    -0.000005530  0.081172323 -0.000011880
     0.007869044  0.002888050 19.729168954     0.000000217 -0.000000642  0.050686372

  length of vectors
    13.070727554 12.319482013 19.729170735     0.076506916  0.081172324  0.050686372


 
 old parameters found on file WAVECAR:
  energy-cutoff  :      500.00
  volume of cell :     3176.88
      direct lattice vectors                 reciprocal lattice vectors
    13.010700000  0.000000000  0.000000000     0.076859815  0.000118048 -0.000030601
    -0.018832612 12.261685538  0.000000000     0.000000000  0.081554856 -0.000010725
     0.007924320  0.002618858 19.913598251     0.000000000  0.000000000  0.050216942

  length of vectors

 
 k-points in units of 2pi/SCALE and weight: KPOINTS created by Atomic Simulation Env
   0.01912532  0.02032110 -0.00001060       0.500
  -0.01912809  0.02026506  0.00000466       0.500
 
 k-points in reciprocal lattice and weights: KPOINTS created by Atomic Simulation Env
   0.25000000  0.25000000  0.00000000       0.500
  -0.25000000  0.25000000  0.00000000       0.500
 
 position of ions in fractional coordinates (direct lattice) 
   0.22672380  0.00219689  0.49977609
   0.05693404  0.09963442  0.49996619
   0.11420039  0.00088526  0.49990321
   0.28229634  0.10570275  0.49956768
   0.22145996  0.20504654  0.49954739
   0.05052557  0.29828426  0.50008350
   0.11032033  0.20074138  0.49988239
   0.20822666  0.39764238  0.49963965
   0.04780904  0.49991988  0.50028301
   0.10146827  0.39912910  0.50010308
   0.26265779  0.49724946  0.49927957
   0.21009905  0.59951124  0.49980708
   0.05188862  0.70148029  0.50018698
   0.10219040  0.59986666  0.50020084
   0.22164773  0.79848075  0.49987802
   0.05719664  0.90108430  0.50001417
   0.11065427  0.80029391  0.50004693
   0.28004687  0.89994457  0.49981961
   0.55788985  0.99906571  0.49997003
   0.39481480  0.10493762  0.49954246
   0.44725548  0.00107611  0.49981569
   0.61438679  0.09845871  0.49995014
   0.55970838  0.19697210  0.49960786
   0.61398582  0.30000421  0.49956964
   0.61119440  0.50071825  0.49950398
   0.61643758  0.69788307  0.49978798
   0.55907125  0.80042430  0.49989865
   0.39215230  0.89877546  0.49982767
   0.61455309  0.90005500  0.50005264
   0.89084946  0.99994806  0.50011418
   0.72453023  0.09890864  0.50010259
   0.78034038  0.99982511  0.50015040
   0.94608242  0.09953462  0.50009692
   0.88850626  0.19834543  0.50014364
   0.72331193  0.29855962  0.49991177
   0.77894946  0.19857358  0.50008949
   0.94135353  0.29871312  0.50017811
   0.88607243  0.39898794  0.50018685
   0.72187824  0.49963265  0.49984509
   0.77687483  0.39921459  0.49999161
   0.94004235  0.49956334  0.50026345
   0.88701170  0.60045197  0.50017004
   0.72508452  0.70036754  0.49995301
   0.77795735  0.59963795  0.49999005
   0.94235986  0.70096884  0.50016685
   0.88929155  0.80140067  0.50009752
   0.72464285  0.90057616  0.50011299
   0.77968735  0.80111436  0.50006905
   0.94644695  0.90072038  0.50007734
   0.26979034  0.69522265  0.49961907
   0.55608965  0.39838686  0.49923923
   0.45039884  0.80027286  0.49978493
   0.26742762  0.30555932  0.49924955
   0.45365184  0.19990878  0.49930061
   0.36475568  0.49410253  0.49832478
   0.56330134  0.60207460  0.49949278
   0.41307750  0.35333154  0.49875599
   0.41285802  0.64555171  0.49897995
 
 position of ions in cartesian coordinates  (Angst):
   2.96733812  0.02870977  9.86015460
   0.74630523  1.22893781  9.86392985
   1.49659996  0.01245132  9.86266858
   3.69184189  1.30389586  9.85605593
   2.89487289  2.52770438  9.85567445
   0.65895748  3.67619288  9.86627561
   1.44227745  2.47456914  9.86228933
   2.71842860  4.90037131  9.85752539
   0.61981268  6.16023481  9.87024329
   1.32299553  4.91859318  9.86667483
   3.42808242  6.12752504  9.85043395
   2.73925989  7.38729058  9.86086020
   0.66949711  8.64335535  9.86838004
   1.32881201  7.39157415  9.86863479
   2.88661899  9.83849973  9.86229018
   0.73527277 11.10237497  9.86500144
   1.43582227  9.86073858  9.86562903
   3.64810636 11.08853198  9.86115027
   7.27792850 12.30989957  9.86411792
   5.16255364  1.29456998  9.85555194
   5.84986821  0.01509887  9.86092343
   8.03263940  1.21494994  9.86358186
   7.31617199  2.42853294  9.85684722
   8.02375772  3.69788198  9.85610638
   7.98364870  6.17056965  9.85484240
   8.04862443  8.59954101  9.86047595
   7.29695489  9.86274377  9.86267866
   5.11342714 11.07422892  9.86130297
   8.02034596 11.09019086  9.86572915
  11.62993800 12.32106648  9.86694341
   9.47228740  1.22059142  9.86658335
  10.18550643 12.31945361  9.86766403
  12.36812428  1.22850044  9.86645931
  11.61377899  2.44574590  9.86739970
   9.45275834  3.68018375  9.86284987
  10.18178737  2.44845889  9.86633741
  12.30271995  3.68226980  9.86809229
  11.57834603  4.91755303  9.86828359
   9.43038929  6.15729517  9.86156579
  10.15104833  4.92024740  9.86443781
  12.28195741  6.15663680  9.86980753
  11.58698661  7.39948372  9.86798333
   9.46867550  8.63024557  9.86372610
  10.16158023  7.38935774  9.86443824
  12.30861302  8.63784741  9.86793302
  11.61315839  9.87506670  9.86658385
   9.45929022 11.09670955  9.86691373
  10.18055669  9.87144190  9.86602817
  12.35842831 11.09868368  9.86619801
   3.51773952  8.56645690  9.85716236
   7.26523444  4.90985150  9.84960610
   5.87652929  9.86078101  9.86044112
   3.49388717  3.76600844  9.84981141
   5.92988044  2.46461599  9.85079181
   4.76262545  6.08884465  9.83159052
   7.35582204  7.41918337  9.85463982
   5.39677096  4.35466512  9.84007313
   5.38862961  7.95466288  9.84453741
 


--------------------------------------------------------------------------------------------------------


 k-point  1 :   0.2500 0.2500 0.0000  plane waves:   80618
 k-point  2 :  -0.2500 0.2500 0.0000  plane waves:   80637

 maximum and minimum number of plane-waves per node :      2556     2487

 maximum number of plane-waves:     80637
 maximum index in each direction: 
   IXMAX=   24   IYMAX=   22   IZMAX=   35
   IXMIN=  -24   IYMIN=  -22   IZMIN=  -35


 parallel 3D FFT for wavefunctions:
    minimum data exchange during FFTs selected (reduces bandwidth)
 parallel 3D FFT for charge:
    minimum data exchange during FFTs selected (reduces bandwidth)


 FFT grid for exact exchange (Hartree Fock) 
  NGX = 72; NGY = 70; NGZ =108

 
 Radii for the augmentation spheres in the non-local exchange
 for species   1 augmentation radius   0.874 (default was   0.699)
       energy cutoff for augmentation   2000.0
 for species   2 augmentation radius   0.886 (default was   0.709)
       energy cutoff for augmentation   2000.0
 for species   3 augmentation radius   1.263 (default was   1.010)
       energy cutoff for augmentation   2000.0
 for species   4 augmentation radius   1.276 (default was   1.021)
       energy cutoff for augmentation   2000.0

 real space projection operators:
  total allocation   :       2441.12 KBytes
  max/ min on nodes  :        124.30         43.52

 Maximum index for augmentation-charges in exchange          141
  SETUP_FOCK is finished

 total amount of memory used by VASP MPI-rank0   160272. kBytes
=======================================================================

   base      :      30000. kBytes
   nonl-proj :       5333. kBytes
   fftplans  :      12934. kBytes
   grid      :      33177. kBytes
   one-center:         62. kBytes
   HF        :         23. kBytes
   nonlr-proj:       1667. kBytes
   wavefun   :      77076. kBytes
 
     INWAV:  cpu time    3.6385: real time    3.6393
 Broyden mixing: mesh for mixing (old mesh)
   NGX = 47   NGY = 45   NGZ = 71
  (NGX  =192   NGY  =180   NGZ  =288)
  gives a total of 150165 points

 charge density for first step will be calculated from the start-wavefunctions


--------------------------------------------------------------------------------------------------------


 Maximum index for augmentation-charges          222 (set IRDMAX)


--------------------------------------------------------------------------------------------------------


 initial charge from wavefunction
 First call to EWALD:  gamma=   0.121
 Maximum number of real-space cells 3x 3x 2
 Maximum number of reciprocal cells 2x 2x 4

    FEWALD:  cpu time    0.0032: real time    0.0032


--------------------------------------- Iteration      1(   1)  ---------------------------------------


    POTLOK:  cpu time    1.2433: real time    1.2460
    SETDIJ:  cpu time    2.0978: real time    2.0996
    TRIAL :  cpu time  512.8871: real time  512.9292
    CORREC:  cpu time    0.0024: real time    0.0026
    CHARGE:  cpu time    1.6144: real time    1.6145
    --------------------------------------------
      LOOP:  cpu time  517.8606: real time  517.9105

 eigenvalue-minimisations  :     0
 total energy-change (2. order) :-0.6097311E+03  (-0.4990502E+00)
 number of electron     243.0000046 magnetization       6.3583028
 augmentation part       13.0501296 magnetization       4.1836547

 DIPCOR: dipole corrections for dipol
 direction  3 min pos     1,
 dipolmoment           0.000000      0.000000      0.000700 electrons x Angstroem
 Tr[quadrupol]     -6505.962338

 energy correction for charged system         0.000000 eV
 dipol+quadrupol energy correction            0.000000 eV
 added-field ion interaction          0.000000 eV  (added to PSCEN)


 Free energy of the ion-electron system (eV)
  ---------------------------------------------------
  alpha Z        PSCENC =       100.91839106
  Ewald energy   TEWEN  =     37754.01264714
  -Hartree energ DENC   =    -46060.14094855
  -exchange      EXHF   =       548.29545463
  -V(xc)+E(xc)   XCENC  =       604.22501231
  PAW double counting   =     25864.66770097   -25892.13207988
  entropy T*S    EENTRO =        -0.04147802
  eigenvalues    EBANDS =     -3136.98052302
  atomic energy  EATOM  =      9607.45362622
  ---------------------------------------------------
  free energy    TOTEN  =      -609.73112233 eV

  energy without entropy =     -609.68964431  energy(sigma->0) =     -609.71038332
  exchange ACFDT corr.  =        -0.43141089  see jH, gK, PRB 81, 115126


--------------------------------------------------------------------------------------------------------




--------------------------------------- Iteration      1(   2)  ---------------------------------------


    POTLOK:  cpu time    1.2555: real time    1.2555
    SETDIJ:  cpu time    2.0867: real time    2.0868
    TRIAL :  cpu time  513.1907: real time  513.2410
    CORREC:  cpu time    0.0023: real time    0.0025
    CHARGE:  cpu time    1.6041: real time    1.6041
    --------------------------------------------
      LOOP:  cpu time  518.1433: real time  518.1977

 eigenvalue-minimisations  :     0
 total energy-change (2. order) :-0.3524744E+00  (-0.5447294E+00)
 number of electron     243.0000045 magnetization       6.4583713
 augmentation part       12.9358597 magnetization       4.2859820

 DIPCOR: dipole corrections for dipol
 direction  3 min pos     1,
 dipolmoment          -0.000000     -0.000000     -0.000997 electrons x Angstroem
 Tr[quadrupol]     -6505.810168

 energy correction for charged system         0.000000 eV
 dipol+quadrupol energy correction            0.000000 eV
 added-field ion interaction          0.000000 eV  (added to PSCEN)


 Free energy of the ion-electron system (eV)
  ---------------------------------------------------
  alpha Z        PSCENC =       100.91839108
  Ewald energy   TEWEN  =     37754.01264714
  -Hartree energ DENC   =    -46050.16044385
  -exchange      EXHF   =       548.25500772
  -V(xc)+E(xc)   XCENC  =       603.89485527
  PAW double counting   =     26002.87479905   -26030.71121799
  entropy T*S    EENTRO =        -0.04136017
  eigenvalues    EBANDS =     -3146.57978331
  atomic energy  EATOM  =      9607.45362622
  ---------------------------------------------------
  free energy    TOTEN  =      -610.08359670 eV

  energy without entropy =     -610.04223653  energy(sigma->0) =     -610.06291661
  exchange ACFDT corr.  =        -0.32531287  see jH, gK, PRB 81, 115126


--------------------------------------------------------------------------------------------------------




--------------------------------------- Iteration      1(   3)  ---------------------------------------


    POTLOK:  cpu time    1.2632: real time    1.2632
    SETDIJ:  cpu time    2.0839: real time    2.0840
    TRIAL :  cpu time  513.5089: real time  513.6288
    CORREC:  cpu time    0.0021: real time    0.0023
    CHARGE:  cpu time    1.6126: real time    1.6126
    --------------------------------------------
      LOOP:  cpu time  518.4731: real time  518.5933

 eigenvalue-minimisations  :     0
 total energy-change (2. order) :-0.2935044E+00  (-0.4473672E+00)
 number of electron     243.0000045 magnetization       6.1866413
 augmentation part       13.0243762 magnetization       4.2491615

 DIPCOR: dipole corrections for dipol
 direction  3 min pos     1,
 dipolmoment           0.000000      0.000000      0.000646 electrons x Angstroem
 Tr[quadrupol]     -6505.574444

 energy correction for charged system         0.000000 eV
 dipol+quadrupol energy correction            0.000000 eV
 added-field ion interaction          0.000000 eV  (added to PSCEN)


 Free energy of the ion-electron system (eV)
  ---------------------------------------------------
  alpha Z        PSCENC =       100.91839106
  Ewald energy   TEWEN  =     37754.01264714
  -Hartree energ DENC   =    -46025.94179850
  -exchange      EXHF   =       548.07066398
  -V(xc)+E(xc)   XCENC  =       603.47499996
  PAW double counting   =     26157.37217947   -26183.62125030
  entropy T*S    EENTRO =        -0.03052247
  eigenvalues    EBANDS =     -3172.07519999
  atomic energy  EATOM  =      9607.45362622
  ---------------------------------------------------
  free energy    TOTEN  =      -610.37710113 eV

  energy without entropy =     -610.34657867  energy(sigma->0) =     -610.36183990
  exchange ACFDT corr.  =        -0.37503763  see jH, gK, PRB 81, 115126


--------------------------------------------------------------------------------------------------------




--------------------------------------- Iteration      1(   4)  ---------------------------------------


    POTLOK:  cpu time    1.2641: real time    1.2642
    SETDIJ:  cpu time    2.0806: real time    2.0807
    TRIAL :  cpu time  512.9723: real time  513.0152
    CORREC:  cpu time    0.0023: real time    0.0025
    CHARGE:  cpu time    1.6012: real time    1.6012
    --------------------------------------------
      LOOP:  cpu time  517.9224: real time  517.9657

 eigenvalue-minimisations  :     0
 total energy-change (2. order) :-0.2147653E+00  (-0.2505399E+00)
 number of electron     243.0000045 magnetization       6.1803490
 augmentation part       12.9735301 magnetization       4.2850779

 DIPCOR: dipole corrections for dipol
 direction  3 min pos     1,
 dipolmoment          -0.000001     -0.000000     -0.001353 electrons x Angstroem
 Tr[quadrupol]     -6505.558656

 energy correction for charged system         0.000000 eV
 dipol+quadrupol energy correction            0.000000 eV
 added-field ion interaction          0.000000 eV  (added to PSCEN)


 Free energy of the ion-electron system (eV)
  ---------------------------------------------------
  alpha Z        PSCENC =       100.91839110
  Ewald energy   TEWEN  =     37754.01264714
  -Hartree energ DENC   =    -46028.33714352
  -exchange      EXHF   =       548.37900384
  -V(xc)+E(xc)   XCENC  =       603.39511795
  PAW double counting   =     26313.98016397   -26341.52544653
  entropy T*S    EENTRO =        -0.02958413
  eigenvalues    EBANDS =     -3168.83770417
  atomic energy  EATOM  =      9607.45362622
  ---------------------------------------------------
  free energy    TOTEN  =      -610.59186647 eV

  energy without entropy =     -610.56228234  energy(sigma->0) =     -610.57707440
  exchange ACFDT corr.  =        -0.18054976  see jH, gK, PRB 81, 115126


--------------------------------------------------------------------------------------------------------




--------------------------------------- Iteration      1(   5)  ---------------------------------------


    POTLOK:  cpu time    1.2628: real time    1.2629
    SETDIJ:  cpu time    2.0860: real time    2.0860
    TRIAL :  cpu time  512.3528: real time  512.4108
    CORREC:  cpu time    0.0022: real time    0.0024
    CHARGE:  cpu time    1.6009: real time    1.6010
    --------------------------------------------
      LOOP:  cpu time  517.3067: real time  517.3650

 eigenvalue-minimisations  :     0
 total energy-change (2. order) :-0.1675779E+00  (-0.1371483E+00)
 number of electron     243.0000045 magnetization       6.0741640
 augmentation part       12.9820290 magnetization       4.2724331

 DIPCOR: dipole corrections for dipol
 direction  3 min pos     1,
 dipolmoment          -0.000000     -0.000000     -0.000297 electrons x Angstroem
 Tr[quadrupol]     -6505.549699

 energy correction for charged system         0.000000 eV
 dipol+quadrupol energy correction            0.000000 eV
 added-field ion interaction          0.000000 eV  (added to PSCEN)


 Free energy of the ion-electron system (eV)
  ---------------------------------------------------
  alpha Z        PSCENC =       100.91839105
  Ewald energy   TEWEN  =     37754.01264714
  -Hartree energ DENC   =    -46023.97144169
  -exchange      EXHF   =       548.57817052
  -V(xc)+E(xc)   XCENC  =       603.39321129
  PAW double counting   =     26409.27905124   -26436.06383765
  entropy T*S    EENTRO =        -0.02325471
  eigenvalues    EBANDS =     -3174.32967833
  atomic energy  EATOM  =      9607.45362622
  ---------------------------------------------------
  free energy    TOTEN  =      -610.75944435 eV

  energy without entropy =     -610.73618963  energy(sigma->0) =     -610.74781699
  exchange ACFDT corr.  =        -0.16730700  see jH, gK, PRB 81, 115126


--------------------------------------------------------------------------------------------------------




--------------------------------------- Iteration      1(   6)  ---------------------------------------


    POTLOK:  cpu time    1.2637: real time    1.2638
    SETDIJ:  cpu time    2.0838: real time    2.0839
    TRIAL :  cpu time  512.8103: real time  512.8696
    CORREC:  cpu time    0.0021: real time    0.0023
    CHARGE:  cpu time    1.6001: real time    1.6003
    --------------------------------------------
      LOOP:  cpu time  517.7619: real time  517.8218

 eigenvalue-minimisations  :     0
 total energy-change (2. order) :-0.1171236E+00  (-0.1105242E+00)
 number of electron     243.0000045 magnetization       6.0197974
 augmentation part       12.9875454 magnetization       4.2714098

 DIPCOR: dipole corrections for dipol
 direction  3 min pos     1,
 dipolmoment          -0.000000     -0.000000     -0.000090 electrons x Angstroem
 Tr[quadrupol]     -6505.612721

 energy correction for charged system         0.000000 eV
 dipol+quadrupol energy correction            0.000000 eV
 added-field ion interaction          0.000000 eV  (added to PSCEN)


 Free energy of the ion-electron system (eV)
  ---------------------------------------------------
  alpha Z        PSCENC =       100.91839105
  Ewald energy   TEWEN  =     37754.01264714
  -Hartree energ DENC   =    -46028.44653430
  -exchange      EXHF   =       548.92630593
  -V(xc)+E(xc)   XCENC  =       603.51974320
  PAW double counting   =     26476.23388197   -26503.10361228
  entropy T*S    EENTRO =        -0.01853951
  eigenvalues    EBANDS =     -3170.36776215
  atomic energy  EATOM  =      9607.45362622
  ---------------------------------------------------
  free energy    TOTEN  =      -610.87656794 eV

  energy without entropy =     -610.85802842  energy(sigma->0) =     -610.86729818
  exchange ACFDT corr.  =        -0.07213329  see jH, gK, PRB 81, 115126


--------------------------------------------------------------------------------------------------------




--------------------------------------- Iteration      1(   7)  ---------------------------------------


    POTLOK:  cpu time    1.2601: real time    1.2602
    SETDIJ:  cpu time    2.0900: real time    2.0900
    TRIAL :  cpu time  511.9659: real time  512.0355
    CORREC:  cpu time    0.0021: real time    0.0023
    CHARGE:  cpu time    1.6067: real time    1.6068
    --------------------------------------------
      LOOP:  cpu time  516.9273: real time  516.9974

 eigenvalue-minimisations  :     0
 total energy-change (2. order) :-0.7737473E-01  (-0.4855003E-01)
 number of electron     243.0000045 magnetization       6.0151268
 augmentation part       12.9831831 magnetization       4.2861168

 DIPCOR: dipole corrections for dipol
 direction  3 min pos     1,
 dipolmoment           0.000000      0.000000      0.000589 electrons x Angstroem
 Tr[quadrupol]     -6505.666080

 energy correction for charged system         0.000000 eV
 dipol+quadrupol energy correction            0.000000 eV
 added-field ion interaction          0.000000 eV  (added to PSCEN)


 Free energy of the ion-electron system (eV)
  ---------------------------------------------------
  alpha Z        PSCENC =       100.91839106
  Ewald energy   TEWEN  =     37754.01264714
  -Hartree energ DENC   =    -46032.30619925
  -exchange      EXHF   =       549.20545067
  -V(xc)+E(xc)   XCENC  =       603.65332160
  PAW double counting   =     26517.73672911   -26544.69415812
  entropy T*S    EENTRO =        -0.01760977
  eigenvalues    EBANDS =     -3166.91521159
  atomic energy  EATOM  =      9607.45362622
  ---------------------------------------------------
  free energy    TOTEN  =      -610.95394266 eV

  energy without entropy =     -610.93633290  energy(sigma->0) =     -610.94513778
  exchange ACFDT corr.  =        -0.01653310  see jH, gK, PRB 81, 115126


--------------------------------------------------------------------------------------------------------




--------------------------------------- Iteration      1(   8)  ---------------------------------------


    POTLOK:  cpu time    1.2593: real time    1.2593
    SETDIJ:  cpu time    2.0892: real time    2.0893
    TRIAL :  cpu time  512.9170: real time  512.9531
    CORREC:  cpu time    0.0023: real time    0.0024
    CHARGE:  cpu time    1.5968: real time    1.5969
    --------------------------------------------
      LOOP:  cpu time  517.8668: real time  517.9106

 eigenvalue-minimisations  :     0
 total energy-change (2. order) :-0.3468460E-01  (-0.2520925E-01)
 number of electron     243.0000045 magnetization       6.0123047
 augmentation part       12.9883461 magnetization       4.2999417

 DIPCOR: dipole corrections for dipol
 direction  3 min pos     1,
 dipolmoment           0.000000      0.000000      0.001221 electrons x Angstroem
 Tr[quadrupol]     -6505.691083

 energy correction for charged system         0.000000 eV
 dipol+quadrupol energy correction            0.000000 eV
 added-field ion interaction          0.000000 eV  (added to PSCEN)


 Free energy of the ion-electron system (eV)
  ---------------------------------------------------
  alpha Z        PSCENC =       100.91839109
  Ewald energy   TEWEN  =     37754.01264714
  -Hartree energ DENC   =    -46033.72781074
  -exchange      EXHF   =       549.37148954
  -V(xc)+E(xc)   XCENC  =       603.74834459
  PAW double counting   =     26541.72083896   -26568.65510648
  entropy T*S    EENTRO =        -0.01693308
  eigenvalues    EBANDS =     -3165.81343782
  atomic energy  EATOM  =      9607.45362622
  ---------------------------------------------------
  free energy    TOTEN  =      -610.98862727 eV

  energy without entropy =     -610.97169419  energy(sigma->0) =     -610.98016073
  exchange ACFDT corr.  =        -0.00998608  see jH, gK, PRB 81, 115126


--------------------------------------------------------------------------------------------------------




--------------------------------------- Iteration      1(   9)  ---------------------------------------


    POTLOK:  cpu time    1.2567: real time    1.2569
    SETDIJ:  cpu time    2.0868: real time    2.0868
    TRIAL :  cpu time  511.9849: real time  512.0416
    CORREC:  cpu time    0.0022: real time    0.0024
    CHARGE:  cpu time    1.5972: real time    1.5972
    --------------------------------------------
      LOOP:  cpu time  516.9298: real time  516.9868

 eigenvalue-minimisations  :     0
 total energy-change (2. order) :-0.2154295E-01  (-0.1765380E-01)
 number of electron     243.0000045 magnetization       6.0093031
 augmentation part       12.9958805 magnetization       4.3113814

 DIPCOR: dipole corrections for dipol
 direction  3 min pos     1,
 dipolmoment           0.000001      0.000000      0.001368 electrons x Angstroem
 Tr[quadrupol]     -6505.703047

 energy correction for charged system         0.000000 eV
 dipol+quadrupol energy correction            0.000000 eV
 added-field ion interaction          0.000000 eV  (added to PSCEN)


 Free energy of the ion-electron system (eV)
  ---------------------------------------------------
  alpha Z        PSCENC =       100.91839110
  Ewald energy   TEWEN  =     37754.01264714
  -Hartree energ DENC   =    -46034.76368031
  -exchange      EXHF   =       549.48270401
  -V(xc)+E(xc)   XCENC  =       603.81417807
  PAW double counting   =     26557.03739826   -26584.09722238
  entropy T*S    EENTRO =        -0.01625999
  eigenvalues    EBANDS =     -3164.85127924
  atomic energy  EATOM  =      9607.45362622
  ---------------------------------------------------
  free energy    TOTEN  =      -611.01017022 eV

  energy without entropy =     -610.99391023  energy(sigma->0) =     -611.00204022
  exchange ACFDT corr.  =        -0.00948780  see jH, gK, PRB 81, 115126


--------------------------------------------------------------------------------------------------------




--------------------------------------- Iteration      1(  10)  ---------------------------------------


    POTLOK:  cpu time    1.2539: real time    1.2540
    SETDIJ:  cpu time    2.0855: real time    2.0857
    TRIAL :  cpu time  514.0732: real time  514.1250
    CORREC:  cpu time    0.0022: real time    0.0024
    CHARGE:  cpu time    1.5986: real time    1.5987
    --------------------------------------------
      LOOP:  cpu time  519.0160: real time  519.0684

 eigenvalue-minimisations  :     0
 total energy-change (2. order) :-0.1500803E-01  (-0.1142971E-01)
 number of electron     243.0000045 magnetization       6.0069781
 augmentation part       12.9986274 magnetization       4.3206981

 DIPCOR: dipole corrections for dipol
 direction  3 min pos     1,
 dipolmoment           0.000001      0.000000      0.001274 electrons x Angstroem
 Tr[quadrupol]     -6505.706839

 energy correction for charged system         0.000000 eV
 dipol+quadrupol energy correction            0.000000 eV
 added-field ion interaction          0.000000 eV  (added to PSCEN)


 Free energy of the ion-electron system (eV)
  ---------------------------------------------------
  alpha Z        PSCENC =       100.91839110
  Ewald energy   TEWEN  =     37754.01264714
  -Hartree energ DENC   =    -46035.35834198
  -exchange      EXHF   =       549.55283667
  -V(xc)+E(xc)   XCENC  =       603.85358403
  PAW double counting   =     26566.48144027   -26593.69689963
  entropy T*S    EENTRO =        -0.01570738
  eigenvalues    EBANDS =     -3164.22620207
  atomic energy  EATOM  =      9607.45362622
  ---------------------------------------------------
  free energy    TOTEN  =      -611.02517824 eV

  energy without entropy =     -611.00947087  energy(sigma->0) =     -611.01732456
  exchange ACFDT corr.  =        -0.00903188  see jH, gK, PRB 81, 115126


--------------------------------------------------------------------------------------------------------




--------------------------------------- Iteration      1(  11)  ---------------------------------------


    POTLOK:  cpu time    1.2501: real time    1.2501
    SETDIJ:  cpu time    2.0860: real time    2.0861
    TRIAL :  cpu time  514.0977: real time  514.1388
    CORREC:  cpu time    0.0022: real time    0.0024
    CHARGE:  cpu time    1.5965: real time    1.5966
    --------------------------------------------
      LOOP:  cpu time  519.0351: real time  519.0765

 eigenvalue-minimisations  :     0
 total energy-change (2. order) :-0.9966485E-02  (-0.8066899E-02)
 number of electron     243.0000045 magnetization       6.0053434
 augmentation part       12.9965678 magnetization       4.3282293

 DIPCOR: dipole corrections for dipol
 direction  3 min pos     1,
 dipolmoment           0.000000      0.000000      0.001180 electrons x Angstroem
 Tr[quadrupol]     -6505.706346

 energy correction for charged system         0.000000 eV
 dipol+quadrupol energy correction            0.000000 eV
 added-field ion interaction          0.000000 eV  (added to PSCEN)


 Free energy of the ion-electron system (eV)
  ---------------------------------------------------
  alpha Z        PSCENC =       100.91839109
  Ewald energy   TEWEN  =     37754.01264714
  -Hartree energ DENC   =    -46035.40541417
  -exchange      EXHF   =       549.59473133
  -V(xc)+E(xc)   XCENC  =       603.87320372
  PAW double counting   =     26571.46424618   -26598.74855026
  entropy T*S    EENTRO =        -0.01529713
  eigenvalues    EBANDS =     -3164.18231860
  atomic energy  EATOM  =      9607.45362622
  ---------------------------------------------------
  free energy    TOTEN  =      -611.03514473 eV

  energy without entropy =     -611.01984760  energy(sigma->0) =     -611.02749616
  exchange ACFDT corr.  =        -0.00866521  see jH, gK, PRB 81, 115126


--------------------------------------------------------------------------------------------------------




--------------------------------------- Iteration      1(  12)  ---------------------------------------


    POTLOK:  cpu time    1.2495: real time    1.2496
    SETDIJ:  cpu time    2.0881: real time    2.0882
    TRIAL :  cpu time  513.2902: real time  513.3326
    CORREC:  cpu time    0.0021: real time    0.0023
    CHARGE:  cpu time    1.5969: real time    1.5970
    --------------------------------------------
      LOOP:  cpu time  518.2294: real time  518.2721

 eigenvalue-minimisations  :     0
 total energy-change (2. order) :-0.7135227E-02  (-0.5572658E-02)
 number of electron     243.0000045 magnetization       6.0041435
 augmentation part       12.9943904 magnetization       4.3346086

 DIPCOR: dipole corrections for dipol
 direction  3 min pos     1,
 dipolmoment           0.000000      0.000000      0.001184 electrons x Angstroem
 Tr[quadrupol]     -6505.705088

 energy correction for charged system         0.000000 eV
 dipol+quadrupol energy correction            0.000000 eV
 added-field ion interaction          0.000000 eV  (added to PSCEN)


 Free energy of the ion-electron system (eV)
  ---------------------------------------------------
  alpha Z        PSCENC =       100.91839109
  Ewald energy   TEWEN  =     37754.01264714
  -Hartree energ DENC   =    -46035.14633952
  -exchange      EXHF   =       549.62143082
  -V(xc)+E(xc)   XCENC  =       603.88291714
  PAW double counting   =     26573.72790684   -26600.99295314
  entropy T*S    EENTRO =        -0.01499521
  eigenvalues    EBANDS =     -3164.50460940
  atomic energy  EATOM  =      9607.45362622
  ---------------------------------------------------
  free energy    TOTEN  =      -611.04227996 eV

  energy without entropy =     -611.02728474  energy(sigma->0) =     -611.03478235
  exchange ACFDT corr.  =        -0.00839415  see jH, gK, PRB 81, 115126


--------------------------------------------------------------------------------------------------------




--------------------------------------- Iteration      1(  13)  ---------------------------------------


    POTLOK:  cpu time    1.2449: real time    1.2449
    SETDIJ:  cpu time    2.0846: real time    2.0847
    TRIAL :  cpu time  513.1386: real time  513.1867
    CORREC:  cpu time    0.0022: real time    0.0024
    CHARGE:  cpu time    1.5992: real time    1.5992
    --------------------------------------------
      LOOP:  cpu time  518.0720: real time  518.1205

 eigenvalue-minimisations  :     0
 total energy-change (2. order) :-0.4937679E-02  (-0.3878088E-02)
 number of electron     243.0000045 magnetization       6.0032198
 augmentation part       12.9948448 magnetization       4.3403283

 DIPCOR: dipole corrections for dipol
 direction  3 min pos     1,
 dipolmoment           0.000000      0.000000      0.001249 electrons x Angstroem
 Tr[quadrupol]     -6505.705729

 energy correction for charged system         0.000000 eV
 dipol+quadrupol energy correction            0.000000 eV
 added-field ion interaction          0.000000 eV  (added to PSCEN)


 Free energy of the ion-electron system (eV)
  ---------------------------------------------------
  alpha Z        PSCENC =       100.91839109
  Ewald energy   TEWEN  =     37754.01264714
  -Hartree energ DENC   =    -46034.99578144
  -exchange      EXHF   =       549.64400539
  -V(xc)+E(xc)   XCENC  =       603.89261530
  PAW double counting   =     26575.16270033   -26602.39939192
  entropy T*S    EENTRO =        -0.01476624
  eigenvalues    EBANDS =     -3164.72103454
  atomic energy  EATOM  =      9607.45362622
  ---------------------------------------------------
  free energy    TOTEN  =      -611.04721763 eV

  energy without entropy =     -611.03245140  energy(sigma->0) =     -611.03983452
  exchange ACFDT corr.  =        -0.00819567  see jH, gK, PRB 81, 115126


--------------------------------------------------------------------------------------------------------




--------------------------------------- Iteration      1(  14)  ---------------------------------------


    POTLOK:  cpu time    1.2415: real time    1.2415
    SETDIJ:  cpu time    2.0794: real time    2.0794
    TRIAL :  cpu time  514.2451: real time  514.2892
    CORREC:  cpu time    0.0022: real time    0.0024
    CHARGE:  cpu time    1.5968: real time    1.5969
    --------------------------------------------
      LOOP:  cpu time  519.1675: real time  519.2119

 eigenvalue-minimisations  :     0
 total energy-change (2. order) :-0.3529647E-02  (-0.2850106E-02)
 number of electron     243.0000045 magnetization       6.0025186
 augmentation part       12.9967172 magnetization       4.3454215

 DIPCOR: dipole corrections for dipol
 direction  3 min pos     1,
 dipolmoment           0.000001      0.000000      0.001313 electrons x Angstroem
 Tr[quadrupol]     -6505.708640

 energy correction for charged system         0.000000 eV
 dipol+quadrupol energy correction            0.000000 eV
 added-field ion interaction          0.000000 eV  (added to PSCEN)


 Free energy of the ion-electron system (eV)
  ---------------------------------------------------
  alpha Z        PSCENC =       100.91839110
  Ewald energy   TEWEN  =     37754.01264714
  -Hartree energ DENC   =    -46035.12252532
  -exchange      EXHF   =       549.66712514
  -V(xc)+E(xc)   XCENC  =       603.90613131
  PAW double counting   =     26576.86355779   -26604.11126761
  entropy T*S    EENTRO =        -0.01459043
  eigenvalues    EBANDS =     -3164.62366681
  atomic energy  EATOM  =      9607.45362622
  ---------------------------------------------------
  free energy    TOTEN  =      -611.05074728 eV

  energy without entropy =     -611.03615685  energy(sigma->0) =     -611.04345207
  exchange ACFDT corr.  =        -0.00804614  see jH, gK, PRB 81, 115126


--------------------------------------------------------------------------------------------------------




--------------------------------------- Iteration      1(  15)  ---------------------------------------


    POTLOK:  cpu time    1.2435: real time    1.2436
    SETDIJ:  cpu time    2.0786: real time    2.0786
    TRIAL :  cpu time  513.2921: real time  513.3325
    CORREC:  cpu time    0.0021: real time    0.0023
    CHARGE:  cpu time    1.5957: real time    1.5958
    --------------------------------------------
      LOOP:  cpu time  518.2142: real time  518.2550

 eigenvalue-minimisations  :     0
 total energy-change (2. order) :-0.2609106E-02  (-0.2089105E-02)
 number of electron     243.0000045 magnetization       6.0020013
 augmentation part       12.9981911 magnetization       4.3498471

 DIPCOR: dipole corrections for dipol
 direction  3 min pos     1,
 dipolmoment           0.000001      0.000000      0.001357 electrons x Angstroem
 Tr[quadrupol]     -6505.712102

 energy correction for charged system         0.000000 eV
 dipol+quadrupol energy correction            0.000000 eV
 added-field ion interaction          0.000000 eV  (added to PSCEN)


 Free energy of the ion-electron system (eV)
  ---------------------------------------------------
  alpha Z        PSCENC =       100.91839110
  Ewald energy   TEWEN  =     37754.01264714
  -Hartree energ DENC   =    -46035.36539427
  -exchange      EXHF   =       549.68886791
  -V(xc)+E(xc)   XCENC  =       603.92052550
  PAW double counting   =     26578.81453988   -26606.09396640
  entropy T*S    EENTRO =        -0.01445595
  eigenvalues    EBANDS =     -3164.38800303
  atomic energy  EATOM  =      9607.45362622
  ---------------------------------------------------
  free energy    TOTEN  =      -611.05335639 eV

  energy without entropy =     -611.03890044  energy(sigma->0) =     -611.04612841
  exchange ACFDT corr.  =        -0.00793112  see jH, gK, PRB 81, 115126


--------------------------------------------------------------------------------------------------------




--------------------------------------- Iteration      1(  16)  ---------------------------------------


    POTLOK:  cpu time    1.2408: real time    1.2410
    SETDIJ:  cpu time    2.0820: real time    2.0820
    TRIAL :  cpu time  513.5661: real time  513.6041
    CORREC:  cpu time    0.0020: real time    0.0022
    CHARGE:  cpu time    1.5970: real time    1.5970
    --------------------------------------------
      LOOP:  cpu time  518.4904: real time  518.5289

 eigenvalue-minimisations  :     0
 total energy-change (2. order) :-0.1933207E-02  (-0.1586432E-02)
 number of electron     243.0000045 magnetization       6.0016186
 augmentation part       12.9987553 magnetization       4.3536346

 DIPCOR: dipole corrections for dipol
 direction  3 min pos     1,
 dipolmoment           0.000001      0.000000      0.001388 electrons x Angstroem
 Tr[quadrupol]     -6505.714704

 energy correction for charged system         0.000000 eV
 dipol+quadrupol energy correction            0.000000 eV
 added-field ion interaction          0.000000 eV  (added to PSCEN)


 Free energy of the ion-electron system (eV)
  ---------------------------------------------------
  alpha Z        PSCENC =       100.91839110
  Ewald energy   TEWEN  =     37754.01264714
  -Hartree energ DENC   =    -46035.54702676
  -exchange      EXHF   =       549.70682165
  -V(xc)+E(xc)   XCENC  =       603.93254689
  PAW double counting   =     26580.72526013   -26608.02828338
  entropy T*S    EENTRO =        -0.01435225
  eigenvalues    EBANDS =     -3164.21481665
  atomic energy  EATOM  =      9607.45362622
  ---------------------------------------------------
  free energy    TOTEN  =      -611.05528960 eV

  energy without entropy =     -611.04093734  energy(sigma->0) =     -611.04811347
  exchange ACFDT corr.  =        -0.00784193  see jH, gK, PRB 81, 115126


--------------------------------------------------------------------------------------------------------




--------------------------------------- Iteration      1(  17)  ---------------------------------------


    POTLOK:  cpu time    1.2365: real time    1.2365
    SETDIJ:  cpu time    2.0805: real time    2.0806
    TRIAL :  cpu time  513.8167: real time  513.8731
    CORREC:  cpu time    0.0021: real time    0.0023
    CHARGE:  cpu time    1.5977: real time    1.5978
    --------------------------------------------
      LOOP:  cpu time  518.7361: real time  518.7930

 eigenvalue-minimisations  :     0
 total energy-change (2. order) :-0.1482332E-02  (-0.1235037E-02)
 number of electron     243.0000045 magnetization       6.0013256
 augmentation part       12.9988721 magnetization       4.3568953

 DIPCOR: dipole corrections for dipol
 direction  3 min pos     1,
 dipolmoment           0.000001      0.000000      0.001413 electrons x Angstroem
 Tr[quadrupol]     -6505.716216

 energy correction for charged system         0.000000 eV
 dipol+quadrupol energy correction            0.000000 eV
 added-field ion interaction          0.000000 eV  (added to PSCEN)


 Free energy of the ion-electron system (eV)
  ---------------------------------------------------
  alpha Z        PSCENC =       100.91839111
  Ewald energy   TEWEN  =     37754.01264714
  -Hartree energ DENC   =    -46035.62589105
  -exchange      EXHF   =       549.72067264
  -V(xc)+E(xc)   XCENC  =       603.94145427
  PAW double counting   =     26582.43361487   -26609.74477300
  entropy T*S    EENTRO =        -0.01427009
  eigenvalues    EBANDS =     -3164.15216187
  atomic energy  EATOM  =      9607.45362622
  ---------------------------------------------------
  free energy    TOTEN  =      -611.05677193 eV

  energy without entropy =     -611.04250183  energy(sigma->0) =     -611.04963688
  exchange ACFDT corr.  =        -0.00777175  see jH, gK, PRB 81, 115126


--------------------------------------------------------------------------------------------------------




--------------------------------------- Iteration      1(  18)  ---------------------------------------


    POTLOK:  cpu time    1.2373: real time    1.2373
    SETDIJ:  cpu time    2.0778: real time    2.0779
    TRIAL :  cpu time  513.2779: real time  513.3251
    CORREC:  cpu time    0.0022: real time    0.0022
    CHARGE:  cpu time    1.5964: real time    1.5966
    --------------------------------------------
      LOOP:  cpu time  518.1936: real time  518.2411

 eigenvalue-minimisations  :     0
 total energy-change (2. order) :-0.1159532E-02  (-0.9775470E-03)
 number of electron     243.0000045 magnetization       6.0010925
 augmentation part       12.9990717 magnetization       4.3597863

 DIPCOR: dipole corrections for dipol
 direction  3 min pos     1,
 dipolmoment           0.000001      0.000000      0.001435 electrons x Angstroem
 Tr[quadrupol]     -6505.717097

 energy correction for charged system         0.000000 eV
 dipol+quadrupol energy correction            0.000000 eV
 added-field ion interaction          0.000000 eV  (added to PSCEN)


 Free energy of the ion-electron system (eV)
  ---------------------------------------------------
  alpha Z        PSCENC =       100.91839111
  Ewald energy   TEWEN  =     37754.01264714
  -Hartree energ DENC   =    -46035.65229363
  -exchange      EXHF   =       549.73154364
  -V(xc)+E(xc)   XCENC  =       603.94824300
  PAW double counting   =     26583.92795519   -26611.24019294
  entropy T*S    EENTRO =        -0.01420318
[...]
  augment    45.67482    46.97818    46.88527     0.86965     0.06409    -0.04066
  Kinetic  3611.72949  3591.81434  4071.45330    -0.53081     0.08890     0.13617
  Fock     -319.97213  -321.83275  -299.03583    -1.45002    -0.04248     0.09118
  -------------------------------------------------------------------------------------
  Total     -43.23054   -43.83407    -0.32835    -0.68986     0.01147     0.02528
  in kB     -21.80222   -22.10659    -0.16560    -0.34791     0.00579     0.01275
  external pressure =      -14.69 kB  Pullay stress =        0.00 kB


 VOLUME and BASIS-vectors are now :
 -----------------------------------------------------------------------------
  energy-cutoff  :      500.00
  volume of cell :     3176.88
      direct lattice vectors                 reciprocal lattice vectors
    13.070727524  0.000890463 -0.000055961     0.076506828  0.000112088 -0.000030531
    -0.018048908 12.319468791  0.000156075    -0.000005530  0.081172323 -0.000011880
     0.007869044  0.002888050 19.729168954     0.000000217 -0.000000642  0.050686372

  length of vectors
    13.070727554 12.319482013 19.729170735     0.076506916  0.081172324  0.050686372


 FORCES acting on ions:
    Electron-Ion                     Ewald-Force                    Non-Local-Force
 -----------------------------------------------------------------------------------------------
   -.137E+01 0.291E+01 0.211E-01   0.201E+01 -.329E+01 -.167E-01   -.512E+00 0.367E+00 -.509E-02
   0.880E+00 0.866E+01 -.396E+00   -.864E+00 -.913E+01 0.395E+00   -.279E-01 0.396E+00 -.671E-04
   -.146E+02 0.564E+01 -.940E-01   0.148E+02 -.585E+01 0.892E-01   -.279E+00 0.203E+00 0.495E-02
   -.157E+01 0.133E+02 0.812E+00   0.167E+01 -.136E+02 -.816E+00   -.115E+00 0.146E+00 0.611E-02
   0.651E+01 0.504E+02 0.666E+00   -.766E+01 -.537E+02 -.651E+00   0.109E+01 0.346E+01 -.110E-01
   0.102E+02 0.135E+02 -.121E+01   -.105E+02 -.136E+02 0.121E+01   0.337E+00 0.158E+00 0.142E-02
   -.418E+00 0.149E+02 -.390E+00   0.374E+00 -.152E+02 0.395E+00   0.809E-01 0.356E+00 -.507E-02
   0.254E+02 -.188E+02 -.695E+00   -.270E+02 0.217E+02 0.722E+00   0.149E+01 -.328E+01 -.282E-01
   0.171E+01 -.410E+01 -.242E+01   -.187E+01 0.464E+01 0.242E+01   0.440E-01 -.417E+00 -.401E-02
   0.176E+02 -.650E+01 -.205E+01   -.180E+02 0.692E+01 0.206E+01   0.485E+00 -.475E+00 -.121E-01
   0.357E+02 -.272E+02 0.739E+00   -.364E+02 0.280E+02 -.764E+00   0.165E+01 -.638E+00 0.431E-02
   -.266E+01 -.196E+02 -.113E+01   0.332E+01 0.210E+02 0.111E+01   -.673E+00 -.108E+01 0.639E-02
   -.170E+01 -.140E+02 -.150E+01   0.217E+01 0.142E+02 0.150E+01   -.383E+00 -.248E+00 -.550E-03
   0.338E+01 -.853E+01 -.228E+01   -.307E+01 0.860E+01 0.228E+01   -.342E+00 -.430E-01 -.615E-02
   -.184E+02 -.115E+02 -.590E+00   0.192E+02 0.109E+02 0.596E+00   -.750E+00 0.591E+00 -.984E-02
   -.334E+01 -.353E+01 -.437E+00   0.364E+01 0.335E+01 0.438E+00   -.263E+00 0.190E+00 0.191E-03
   -.115E+02 -.406E+01 -.862E+00   0.122E+02 0.407E+01 0.861E+00   -.750E+00 -.478E-01 -.979E-04
   -.823E+01 0.120E+02 -.228E+00   0.854E+01 -.128E+02 0.219E+00   -.352E+00 0.767E+00 0.618E-02
   0.822E+01 0.107E+02 -.101E+01   -.839E+01 -.111E+02 0.998E+00   0.160E+00 0.313E+00 0.325E-02
   0.304E+02 0.288E+02 0.586E+00   -.322E+02 -.316E+02 -.571E+00   0.199E+01 0.289E+01 -.132E-01
   0.114E+02 0.144E+02 -.538E+00   -.120E+02 -.153E+02 0.542E+00   0.565E+00 0.807E+00 -.659E-02
   -.101E+02 0.108E+02 -.104E+01   0.104E+02 -.108E+02 0.105E+01   -.223E+00 0.108E+00 -.899E-02
   -.314E+02 -.449E+00 0.219E+00   0.349E+02 0.101E+01 -.205E+00   -.365E+01 -.727E+00 -.159E-01
   -.711E+01 -.615E+01 0.585E+00   0.644E+01 0.835E+01 -.595E+00   0.779E+00 -.180E+01 0.102E-01
   0.128E+02 0.250E+02 0.857E+00   -.120E+02 -.301E+02 -.855E+00   -.620E+00 0.482E+01 0.276E-02
   -.118E+01 -.335E+02 -.338E+00   0.254E+01 0.366E+02 0.359E+00   -.145E+01 -.340E+01 -.230E-01
   0.817E+01 0.332E+01 -.790E+00   -.101E+02 -.236E+01 0.793E+00   0.162E+01 -.686E+00 -.477E-02
   0.139E+02 0.145E+02 -.508E+00   -.139E+02 -.156E+02 0.508E+00   0.486E-01 0.111E+01 -.275E-02
   0.154E+01 0.191E+01 -.124E+01   -.164E+01 -.227E+01 0.124E+01   0.928E-01 0.361E+00 -.664E-02
   0.207E+01 0.181E+01 -.725E+00   -.194E+01 -.184E+01 0.723E+00   -.796E-01 0.489E-01 0.197E-02
   0.243E+01 0.393E+01 -.120E+01   -.229E+01 -.376E+01 0.120E+01   -.135E+00 -.152E+00 -.356E-03
   -.592E+01 0.170E+01 -.114E+01   0.585E+01 -.168E+01 0.115E+01   0.169E-01 -.487E-01 -.404E-02
   -.744E+01 0.212E+01 -.782E+00   0.749E+01 -.221E+01 0.783E+00   -.375E-01 0.310E-01 -.226E-02
   0.188E+01 0.721E+01 -.104E+01   -.210E+01 -.727E+01 0.104E+01   0.182E+00 0.108E+00 0.834E-03
   0.103E+00 0.784E+00 -.542E+00   -.747E+00 -.918E+00 0.543E+00   0.615E+00 0.107E+00 -.175E-02
   -.247E+01 -.859E+00 -.106E+01   0.234E+01 0.957E+00 0.106E+01   0.184E+00 -.109E+00 -.207E-02
   0.286E+01 0.240E+00 -.132E+01   -.328E+01 -.251E+00 0.133E+01   0.361E+00 0.961E-02 -.175E-02
   0.333E+01 0.189E+01 -.137E+01   -.350E+01 -.196E+01 0.137E+01   0.157E+00 0.306E-01 -.171E-02
   0.298E+01 0.379E+01 -.235E+00   -.345E+01 -.425E+01 0.236E+00   0.442E+00 0.484E+00 -.177E-02
   0.293E+01 -.243E+01 -.663E+00   -.314E+01 0.215E+01 0.658E+00   0.185E+00 0.231E+00 0.434E-02
   0.788E+01 -.154E+01 -.175E+01   -.770E+01 0.153E+01 0.175E+01   -.686E-01 0.407E-01 -.183E-02
   0.591E+00 -.507E+01 -.114E+01   -.261E+00 0.511E+01 0.114E+01   -.254E+00 0.138E-01 -.150E-02
   -.335E+01 -.856E+01 -.426E+00   0.389E+01 0.891E+01 0.427E+00   -.457E+00 -.343E+00 0.595E-03
   -.140E+01 0.207E+01 -.494E+00   0.151E+01 -.238E+01 0.492E+00   -.161E+00 0.309E+00 0.260E-02
   -.144E+01 -.205E+01 -.994E+00   0.152E+01 0.207E+01 0.995E+00   -.143E+00 -.840E-01 0.136E-02
   -.418E+00 -.551E+01 -.533E+00   0.456E+00 0.569E+01 0.532E+00   -.731E-01 -.165E+00 0.352E-02
   0.533E+01 0.498E+00 -.103E+01   -.547E+01 -.310E+00 0.102E+01   0.146E+00 -.107E+00 0.154E-02
   -.799E+00 -.767E+00 -.664E+00   0.958E+00 0.116E+01 0.668E+00   -.129E+00 -.396E+00 -.224E-02
   -.867E+01 0.115E+01 -.494E+00   0.887E+01 -.113E+01 0.495E+00   -.232E+00 -.380E-02 0.122E-03
   -.503E+02 -.283E+02 0.462E+00   0.569E+02 0.283E+02 -.539E+00   -.707E+01 -.126E+00 0.736E-01
   0.239E+02 -.302E+02 0.197E+01   -.337E+02 0.296E+02 -.204E+01   0.964E+01 0.387E+00 0.803E-01
   0.404E+02 0.252E+02 -.654E+00   -.447E+02 -.313E+02 0.648E+00   0.449E+01 0.633E+01 0.627E-02
   -.403E+02 0.334E+02 0.276E+01   0.620E+02 -.317E+02 -.301E+01   -.206E+02 -.137E+01 0.235E+00
   0.334E+02 -.946E+01 0.228E+01   -.429E+02 0.271E+02 -.245E+01   0.918E+01 -.168E+02 0.164E+00
   -.945E+02 -.479E+02 0.102E+02   0.115E+03 0.486E+02 -.106E+02   -.197E+02 -.489E+00 0.450E+00
   0.688E+02 0.199E+02 0.106E+01   -.889E+02 -.214E+02 -.113E+01   0.192E+02 0.166E+01 0.693E-01
   -.428E+02 0.853E+00 0.798E+01   0.452E+02 0.193E+01 -.795E+01   -.272E+01 -.334E+01 -.364E-01
   -.831E+01 -.251E+02 0.593E+01   0.571E+01 0.262E+02 -.586E+01   0.302E+01 -.184E+01 -.754E-01
 -----------------------------------------------------------------------------------------------
   0.469E+01 0.121E+02 -.928E+00   0.455E-12 -.195E-12 0.533E-14   -.394E+01 -.113E+02 0.844E+00
 
 
 POSITION                                       TOTAL-FORCE (eV/Angst)
 -----------------------------------------------------------------------------------
      2.96734      0.02871      9.86015         0.105803     -0.002479     -0.000986
      0.74631      1.22894      9.86393        -0.004232     -0.055462     -0.000457
      1.49660      0.01245      9.86267        -0.134188      0.009470      0.000534
      3.69184      1.30390      9.85606        -0.027899     -0.116125      0.002695
      2.89487      2.52770      9.85567         0.004862      0.349302      0.002877
      0.65896      3.67619      9.86628         0.068011      0.057983     -0.000915
      1.44228      2.47457      9.86229         0.033555      0.007791     -0.000786
      2.71843      4.90037      9.85753        -0.007686     -0.570576     -0.003130
      0.61981      6.16023      9.87024        -0.116185      0.101648     -0.003764
      1.32300      4.91859      9.86667         0.147471     -0.086762     -0.004499
      3.42808      6.12753      9.85043         1.019030      0.110435     -0.020820
      2.73926      7.38729      9.86086        -0.047163      0.295295     -0.006308
      0.66950      8.64336      9.86838         0.071782     -0.035025     -0.001126
      1.32881      7.39157      9.86863        -0.045475      0.034626     -0.005084
      2.88662      9.83850      9.86229        -0.033665     -0.055993     -0.004381
      0.73527     11.10237      9.86500         0.028033      0.010849      0.001189
      1.43582      9.86074      9.86563        -0.024698     -0.043127     -0.000575
      3.64811     11.08853      9.86115        -0.069455      0.018352     -0.002142
      7.27793     12.30990      9.86412         0.002131     -0.022645     -0.003906
      5.16255      1.29457      9.85555         0.273282      0.245689      0.001452
      5.84987      0.01510      9.86092         0.007196     -0.018676     -0.002405
      8.03264      1.21495      9.86358         0.016445      0.088834     -0.004864
      7.31617      2.42853      9.85685        -0.429333     -0.205765     -0.002225
      8.02376      3.69788      9.85611         0.149889      0.305815      0.000836
      7.98365      6.17057      9.85484         0.121746      0.003033      0.004629
      8.04862      8.59954      9.86048        -0.165153     -0.513975     -0.003340
      7.29695      9.86274      9.86268        -0.244407      0.241273     -0.002525
      5.11343     11.07423      9.86130         0.125182      0.007419     -0.003267
      8.02035     11.09019      9.86573        -0.012774      0.021779     -0.003908
     11.62994     12.32107      9.86694         0.061694      0.019787      0.000280
      9.47229      1.22059      9.86658         0.004896      0.013569     -0.003520
     10.18551     12.31945      9.86766        -0.061246     -0.036359     -0.002039
     12.36812      1.22850      9.86646         0.001814     -0.058819     -0.000879
     11.61378      2.44575      9.86740        -0.022885      0.060541     -0.001319
      9.45276      3.68018      9.86285         0.000154     -0.016986     -0.001801
     10.18179      2.44846      9.86634         0.052328     -0.020666     -0.002052
     12.30272      3.68227      9.86809        -0.044796     -0.009407     -0.001176
     11.57835      4.91755      9.86828        -0.008752     -0.030611     -0.001643
      9.43039      6.15730      9.86157        -0.012641      0.058053     -0.000771
     10.15105      4.92025      9.86444        -0.013983     -0.041580     -0.000644
     12.28196      6.15664      9.86981         0.118729      0.025213     -0.001241
     11.58699      7.39948      9.86798         0.060165      0.051733      0.000572
      9.46868      8.63025      9.86373         0.061256     -0.015544      0.000929
     10.16158      7.38936      9.86444        -0.057450      0.025531      0.000228
     12.30861      8.63785      9.86793        -0.074277     -0.064230      0.001700
     11.61316      9.87507      9.86658        -0.035516      0.006310      0.002777
      9.45929     11.09671      9.86691         0.013481      0.076073     -0.001894
     10.18056      9.87144      9.86603         0.020137     -0.024043      0.000779
     12.35843     11.09868      9.86620        -0.046301      0.019014      0.002001
      3.51774      8.56646      9.85716        -0.784688     -0.109063     -0.000263
      7.26523      4.90985      9.84961         0.401020     -0.166083      0.012277
      5.87653      9.86078      9.86044         0.477423      0.567575      0.001083
      3.49389      3.76601      9.84981        -0.661234      0.160046      0.013079
      5.92988      2.46462      9.85079         0.485960     -0.537196      0.016168
      4.76263      6.08884      9.83159        -1.214799      0.156015      0.026022
      7.35582      7.41918      9.85464         0.747273      0.281204      0.005331
      5.39677      4.35467      9.84007        -0.293479     -0.239059      0.001437
      5.38863      7.95466      9.84454         0.013615     -0.334001      0.001781
 -----------------------------------------------------------------------------------
    total drift:                                0.000655      0.000163     -0.000548


--------------------------------------------------------------------------------------------------------



  FREE ENERGIE OF THE ION-ELECTRON SYSTEM (eV)
  ---------------------------------------------------
  free  energy   TOTEN  =      -611.06613832 eV

  energy  without entropy=     -611.05267179  energy(sigma->0) =     -611.05940505
 


--------------------------------------------------------------------------------------------------------


    POTLOK:  cpu time    3.3008: real time    3.3010


--------------------------------------------------------------------------------------------------------


 stress matrix after NEB project (eV)
    -43.23054     -0.68974      0.02528
     -0.68986    -43.83407      0.01130
      0.02531      0.01147     -0.32835
  FORCES: max atom, RMS     1.225053    0.358957
  FORCE total and by dimension    2.733734    1.214799
  Stress total and by dimension   61.574071   43.834073
 writing wavefunctions
     LOOP+:  cpu time30145.8527: real time30158.6509
    4ORBIT:  cpu time    0.0000: real time    0.0000
 


 total charge     
 
# of ion       s       p       d       tot
------------------------------------------
    1        0.852   1.700   0.000   2.552
    2        0.863   1.754   0.000   2.617
    3        0.858   1.734   0.000   2.592
    4        0.842   1.719   0.000   2.560
    5        0.852   1.698   0.000   2.550
    6        0.871   1.772   0.000   2.643
    7        0.862   1.754   0.000   2.616
    8        0.876   1.786   0.000   2.662
    9        0.869   1.796   0.000   2.664
   10        0.877   1.810   0.000   2.686
   11        0.886   1.768   0.000   2.654
   12        0.880   1.786   0.000   2.666
   13        0.867   1.769   0.000   2.636
   14        0.875   1.792   0.000   2.668
   15        0.858   1.726   0.000   2.584
   16        0.862   1.751   0.000   2.613
   17        0.862   1.748   0.000   2.610
   18        0.854   1.714   0.000   2.568
   19        0.865   1.750   0.000   2.615
   20        0.846   1.675   0.000   2.520
   21        0.858   1.728   0.000   2.586
   22        0.867   1.782   0.000   2.650
   23        0.866   1.725   0.000   2.591
   24        0.867   1.748   0.000   2.615
   25        0.852   1.684   0.000   2.536
   26        0.866   1.716   0.000   2.582
   27        0.867   1.748   0.000   2.615
   28        0.855   1.713   0.000   2.569
   29        0.865   1.766   0.000   2.632
   30        0.866   1.764   0.000   2.630
   31        0.866   1.772   0.000   2.639
   32        0.866   1.764   0.000   2.630
   33        0.863   1.758   0.000   2.621
   34        0.868   1.769   0.000   2.637
   35        0.869   1.766   0.000   2.635
   36        0.866   1.774   0.000   2.640
   37        0.867   1.780   0.000   2.647
   38        0.866   1.769   0.000   2.636
   39        0.863   1.757   0.000   2.621
   40        0.866   1.771   0.000   2.637
   41        0.872   1.783   0.000   2.655
   42        0.865   1.777   0.000   2.642
   43        0.869   1.787   0.000   2.656
   44        0.871   1.761   0.000   2.632
   45        0.868   1.763   0.000   2.632
   46        0.866   1.771   0.000   2.637
   47        0.866   1.771   0.000   2.637
   48        0.866   1.768   0.000   2.634
   49        0.863   1.757   0.000   2.620
   50        0.875   1.683   0.000   2.557
   51        0.867   1.647   0.000   2.515
   52        0.870   1.676   0.000   2.546
   53        1.237   2.662   0.000   3.899
   54        1.228   2.649   0.000   3.877
   55        1.255   2.599   0.000   3.854
   56        1.233   2.664   0.000   3.897
   57        0.481   0.624   6.208   7.313
   58        0.389   0.474   4.840   5.703
--------------------------------------------------
tot         50.810 102.673  11.048 164.531
 


 magnetization (x)
 
# of ion       s       p       d       tot
------------------------------------------
    1        0.001   0.011   0.000   0.012
    2        0.001   0.006   0.000   0.007
    3       -0.001  -0.008   0.000  -0.009
    4       -0.001  -0.009   0.000  -0.009
    5        0.001   0.007   0.000   0.007
    6        0.000  -0.001   0.000  -0.001
    7       -0.001  -0.008   0.000  -0.009
    8       -0.001  -0.008   0.000  -0.009
    9        0.000   0.005   0.000   0.006
   10       -0.000  -0.002   0.000  -0.003
   11        0.001  -0.010   0.000  -0.009
   12        0.003   0.030   0.000   0.033
   13        0.001   0.014   0.000   0.015
   14       -0.002  -0.012   0.000  -0.014
   15        0.002   0.027   0.000   0.030
   16        0.001   0.009   0.000   0.010
   17       -0.002  -0.014   0.000  -0.016
   18       -0.002  -0.029   0.000  -0.031
   19        0.001   0.015   0.000   0.016
   20        0.001   0.010   0.000   0.011
   21       -0.002  -0.013   0.000  -0.015
   22       -0.001  -0.005   0.000  -0.006
   23        0.000   0.002   0.000   0.002
   24        0.001   0.007   0.000   0.007
   25        0.001   0.013   0.000   0.014
   26        0.001  -0.004   0.000  -0.004
   27        0.004   0.027   0.000   0.031
   28        0.002   0.028   0.000   0.031
   29       -0.001  -0.013   0.000  -0.014
   30        0.000   0.004   0.000   0.004
   31        0.000   0.002   0.000   0.002
   32       -0.000  -0.003   0.000  -0.004
   33       -0.000  -0.005   0.000  -0.005
   34        0.000   0.005   0.000   0.005
   35       -0.001  -0.002   0.000  -0.003
   36       -0.000  -0.004   0.000  -0.004
   37       -0.000  -0.003   0.000  -0.003
   38       -0.000  -0.002   0.000  -0.002
   39       -0.001  -0.000   0.000  -0.001
   40        0.000   0.003   0.000   0.003
   41       -0.000  -0.002   0.000  -0.002
   42        0.000   0.007   0.000   0.007
   43        0.000   0.004   0.000   0.004
   44       -0.000  -0.001   0.000  -0.001
   45       -0.001  -0.006   0.000  -0.007
   46        0.001   0.007   0.000   0.007
   47        0.000   0.005   0.000   0.005
   48       -0.001  -0.007   0.000  -0.008
   49       -0.001  -0.006   0.000  -0.007
   50       -0.022  -0.115   0.000  -0.137
   51       -0.012  -0.056   0.000  -0.067
   52       -0.020  -0.099   0.000  -0.119
   53       -0.003  -0.023   0.000  -0.026
   54       -0.004  -0.027   0.000  -0.031
   55       -0.009  -0.051   0.000  -0.060
   56       -0.003  -0.013   0.000  -0.016
   57        0.041   0.014   2.218   2.273
   58        0.064   0.029   3.746   3.840
--------------------------------------------------
tot          0.041  -0.272   5.964   5.733
 

 total amount of memory used by VASP MPI-rank0   173907. kBytes
=======================================================================

   base      :      30000. kBytes
   nonl-proj :       5333. kBytes
   fftplans  :      12934. kBytes
   grid      :      33177. kBytes
   one-center:         62. kBytes
   HF        :         23. kBytes
   nonlr-proj:      15302. kBytes
   wavefun   :      77076. kBytes
 
  
  
 General timing and accounting informations for this job:
 ========================================================
  
                  Total CPU time used (sec):    30232.021
                            User time (sec):    30193.905
                          System time (sec):       38.117
                         Elapsed time (sec):    30246.624
  
                   Maximum memory used (kb):      414380.
                   Average memory used (kb):           0.
  
                          Minor page faults:       332413
                          Major page faults:            2
                 Voluntary context switches:         1961
