 vasp.5.4.4.18Apr17-6-g9f103f2a35 (build Feb 25 2019 10:51:38) complex          
  
 executed on             LinuxIFC date 2022.02.08  14:52:59
 running on   32 total cores
 distrk:  each k-point on   32 cores,    1 groups
 distr:  one band on NCORES_PER_BAND=  32 cores,    1 groups


--------------------------------------------------------------------------------------------------------


 INCAR:
 POTCAR:    PAW_PBE C 08Apr2002                   
 POTCAR:    PAW_PBE N 08Apr2002                   
 POTCAR:    PAW_PBE Cu 22Jun2005                  
 POTCAR:    PAW_PBE Fe 06Sep2000                  

 ----------------------------------------------------------------------------- 
|                                                                             |
|           W    W    AA    RRRRR   N    N  II  N    N   GGGG   !!!           |
|           W    W   A  A   R    R  NN   N  II  NN   N  G    G  !!!           |
|           W    W  A    A  R    R  N N  N  II  N N  N  G       !!!           |
|           W WW W  AAAAAA  RRRRR   N  N N  II  N  N N  G  GGG   !            |
|           WW  WW  A    A  R   R   N   NN  II  N   NN  G    G                |
|           W    W  A    A  R    R  N    N  II  N    N   GGGG   !!!           |
|                                                                             |
|      For optimal performance we recommend to set                            |
|        NCORE= 4 - approx SQRT( number of cores)                             |
|      NCORE specifies how many cores store one orbital (NPAR=cpu/NCORE).     |
|      This setting can  greatly improve the performance of VASP for DFT.     |
|      The default,   NCORE=1            might be grossly inefficient         |
|      on modern multi-core architectures or massively parallel machines.     |
|      Do your own testing !!!!                                               |
|      Unfortunately you need to use the default for GW and RPA calculations. |
|      (for HF NCORE is supported but not extensively tested yet)             |
|                                                                             |
 ----------------------------------------------------------------------------- 

 POTCAR:    PAW_PBE C 08Apr2002                   
   VRHFIN =C: s2p2                                                              
   LEXCH  = PE                                                                  
   EATOM  =   147.1560 eV,   10.8157 Ry                                         
                                                                                
   TITEL  = PAW_PBE C 08Apr2002                                                 
   LULTRA =        F    use ultrasoft PP ?                                      
   IUNSCR =        1    unscreen: 0-lin 1-nonlin 2-no                           
   RPACOR =    1.200    partial core radius                                     
   POMASS =   12.011; ZVAL   =    4.000    mass and valenz                      
   RCORE  =    1.500    outmost cutoff radius                                   
   RWIGS  =    1.630; RWIGS  =    0.863    wigner-seitz radius (au A)           
   ENMAX  =  400.000; ENMIN  =  300.000 eV                                      
   ICORE  =        2    local potential                                         
   LCOR   =        T    correct aug charges                                     
   LPAW   =        T    paw PP                                                  
   EAUG   =  644.873                                                            
   DEXC   =    0.000                                                            
   RMAX   =    1.529    core radius for proj-oper                               
   RAUG   =    1.300    factor for augmentation sphere                          
   RDEP   =    1.501    radius for radial grids                                 
   RDEPT  =    1.300    core radius for aug-charge                              
                                                                                
   Atomic configuration                                                         
    4 entries                                                                   
     n  l   j            E        occ.                                          
     1  0  0.50      -273.3789   2.0000                                         
     2  0  0.50       -13.7508   2.0000                                         
     2  1  0.50        -5.2854   2.0000                                         
     3  2  1.50        -5.4423   0.0000                                         
   Description                                                                  
     l       E           TYP  RCUT    TYP  RCUT                                 
     0    -13.7508458     23  1.200                                             
     0     -8.2022199     23  1.200                                             
     1     -5.2854383     23  1.500                                             
     1     34.0145650     23  1.500                                             
     2     -5.4423304      7  1.500                                             
  local pseudopotential read in
  partial core-charges read in
  partial kinetic energy density read in
  atomic valenz-charges read in
  non local Contribution for L=           0  read in
    real space projection operators read in
  non local Contribution for L=           0  read in
    real space projection operators read in
  non local Contribution for L=           1  read in
    real space projection operators read in
  non local Contribution for L=           1  read in
    real space projection operators read in
    PAW grid and wavefunctions read in
 
   number of l-projection  operators is LMAX  =           4
   number of lm-projection operators is LMMAX =           8
 
 POTCAR:    PAW_PBE N 08Apr2002                   
   VRHFIN =N: s2p3                                                              
   LEXCH  = PE                                                                  
   EATOM  =   264.5486 eV,   19.4438 Ry                                         
                                                                                
   TITEL  = PAW_PBE N 08Apr2002                                                 
   LULTRA =        F    use ultrasoft PP ?                                      
   IUNSCR =        1    unscreen: 0-lin 1-nonlin 2-no                           
   RPACOR =    1.200    partial core radius                                     
   POMASS =   14.001; ZVAL   =    5.000    mass and valenz                      
   RCORE  =    1.500    outmost cutoff radius                                   
   RWIGS  =    1.400; RWIGS  =    0.741    wigner-seitz radius (au A)           
   ENMAX  =  400.000; ENMIN  =  300.000 eV                                      
   ICORE  =        2    local potential                                         
   LCOR   =        T    correct aug charges                                     
   LPAW   =        T    paw PP                                                  
   EAUG   =  627.112                                                            
   DEXC   =    0.000                                                            
   RMAX   =    1.529    core radius for proj-oper                               
   RAUG   =    1.300    factor for augmentation sphere                          
   RDEP   =    1.514    radius for radial grids                                 
   RDEPT  =    1.338    core radius for aug-charge                              
                                                                                
   Atomic configuration                                                         
    4 entries                                                                   
     n  l   j            E        occ.                                          
     1  0  0.50      -384.7179   2.0000                                         
     2  0  0.50       -18.5828   2.0000                                         
     2  1  0.50        -7.0898   3.0000                                         
     3  2  1.50        -6.8029   0.0000                                         
   Description                                                                  
     l       E           TYP  RCUT    TYP  RCUT                                 
     0    -18.5828119     23  1.200                                             
     0    -13.5018863     23  1.200                                             
     1     -7.0897853     23  1.500                                             
     1      9.5240782     23  1.500                                             
     2     -6.8029130      7  1.500                                             
  local pseudopotential read in
  partial core-charges read in
  partial kinetic energy density read in
  atomic valenz-charges read in
  non local Contribution for L=           0  read in
    real space projection operators read in
  non local Contribution for L=           0  read in
    real space projection operators read in
  non local Contribution for L=           1  read in
    real space projection operators read in
  non local Contribution for L=           1  read in
    real space projection operators read in
    PAW grid and wavefunctions read in
 
   number of l-projection  operators is LMAX  =           4
   number of lm-projection operators is LMMAX =           8
 
 POTCAR:    PAW_PBE Cu 22Jun2005                  
   VRHFIN =Cu: d10 p1                                                           
   LEXCH  = PE                                                                  
   EATOM  =  1390.9808 eV,  102.2342 Ry                                         
                                                                                
   TITEL  = PAW_PBE Cu 22Jun2005                                                
   LULTRA =        F    use ultrasoft PP ?                                      
   IUNSCR =        1    unscreen: 0-lin 1-nonlin 2-no                           
   RPACOR =    2.000    partial core radius                                     
   POMASS =   63.546; ZVAL   =   11.000    mass and valenz                      
   RCORE  =    2.300    outmost cutoff radius                                   
   RWIGS  =    2.200; RWIGS  =    1.164    wigner-seitz radius (au A)           
   ENMAX  =  295.446; ENMIN  =  221.585 eV                                      
   ICORE  =        3    local potential                                         
   LCOR   =        T    correct aug charges                                     
   LPAW   =        T    paw PP                                                  
   EAUG   =  586.980                                                            
   DEXC   =    0.000                                                            
   RMAX   =    2.344    core radius for proj-oper                               
   RAUG   =    1.300    factor for augmentation sphere                          
   RDEP   =    2.302    radius for radial grids                                 
   RDEPT  =    1.771    core radius for aug-charge                              
                                                                                
   Atomic configuration                                                         
    9 entries                                                                   
     n  l   j            E        occ.                                          
     1  0  0.50     -8850.2468   2.0000                                         
     2  0  0.50     -1062.3498   2.0000                                         
     2  1  1.50      -916.8226   6.0000                                         
     3  0  0.50      -114.6929   2.0000                                         
     3  1  1.50       -72.1325   6.0000                                         
     3  2  2.50        -5.0394  10.0000                                         
     4  0  0.50        -4.6097   1.0000                                         
     4  1  0.50        -4.0817   0.0000                                         
     4  3  2.50        -1.3606   0.0000                                         
   Description                                                                  
     l       E           TYP  RCUT    TYP  RCUT                                 
     2     -5.0393973     23  2.200                                             
     2     10.8846608     23  2.200                                             
     0     -4.6097109     23  2.200                                             
     0      8.2520465     23  2.200                                             
     1     -2.7211652     23  2.200                                             
     1     21.7055443     23  2.200                                             
     3      2.7211652     23  2.300                                             
  local pseudopotential read in
  partial core-charges read in
  partial kinetic energy density read in
  atomic valenz-charges read in
  non local Contribution for L=           2  read in
    real space projection operators read in
  non local Contribution for L=           2  read in
    real space projection operators read in
  non local Contribution for L=           0  read in
    real space projection operators read in
  non local Contribution for L=           0  read in
    real space projection operators read in
  non local Contribution for L=           1  read in
    real space projection operators read in
  non local Contribution for L=           1  read in
    real space projection operators read in
    PAW grid and wavefunctions read in
 
   number of l-projection  operators is LMAX  =           6
   number of lm-projection operators is LMMAX =          18
 
 POTCAR:    PAW_PBE Fe 06Sep2000                  
   VRHFIN =Fe:  d7 s1                                                           
   LEXCH  = PE                                                                  
   EATOM  =   594.3153 eV,   43.6809 Ry                                         
                                                                                
   TITEL  = PAW_PBE Fe 06Sep2000                                                
   LULTRA =        F    use ultrasoft PP ?                                      
   IUNSCR =        1    unscreen: 0-lin 1-nonlin 2-no                           
   RPACOR =    2.000    partial core radius                                     
   POMASS =   55.847; ZVAL   =    8.000    mass and valenz                      
   RCORE  =    2.300    outmost cutoff radius                                   
   RWIGS  =    2.460; RWIGS  =    1.302    wigner-seitz radius (au A)           
   ENMAX  =  267.882; ENMIN  =  200.911 eV                                      
   RCLOC  =    1.701    cutoff for local pot                                    
   LCOR   =        T    correct aug charges                                     
   LPAW   =        T    paw PP                                                  
   EAUG   =  511.368                                                            
   DEXC   =    0.000                                                            
   RMAX   =    2.356    core radius for proj-oper                               
   RAUG   =    1.300    factor for augmentation sphere                          
   RDEP   =    2.442    radius for radial grids                                 
   RDEPT  =    1.890    core radius for aug-charge                              
                                                                                
   Atomic configuration                                                         
    9 entries                                                                   
     n  l   j            E        occ.                                          
     1  0  0.50     -6993.8440   2.0000                                         
     2  0  0.50      -814.6047   2.0000                                         
     2  1  1.50      -693.3689   6.0000                                         
     3  0  0.50       -89.4732   2.0000                                         
     3  1  1.50       -55.6373   6.0000                                         
     3  2  2.50        -3.8151   7.0000                                         
     4  0  0.50        -4.2551   1.0000                                         
     4  1  1.50        -3.4015   0.0000                                         
     4  3  2.50        -1.3606   0.0000                                         
   Description                                                                  
     l       E           TYP  RCUT    TYP  RCUT                                 
     2     -3.8151135     23  2.300                                             
     2     -5.1756961     23  2.300                                             
     0     -4.2550963     23  2.300                                             
     0      7.2035603     23  2.300                                             
     1     -2.7211652     23  2.300                                             
     1     18.4316424     23  2.300                                             
  local pseudopotential read in
  partial core-charges read in
  partial kinetic energy density read in
  atomic valenz-charges read in
  non local Contribution for L=           2  read in
    real space projection operators read in
  non local Contribution for L=           2  read in
    real space projection operators read in
  non local Contribution for L=           0  read in
    real space projection operators read in
  non local Contribution for L=           0  read in
    real space projection operators read in
  non local Contribution for L=           1  read in
    real space projection operators read in
  non local Contribution for L=           1  read in
    real space projection operators read in
    PAW grid and wavefunctions read in
 
   number of l-projection  operators is LMAX  =           6
   number of lm-projection operators is LMMAX =          18
 

 ----------------------------------------------------------------------------- 
|                                                                             |
|  ADVICE TO THIS USER RUNNING 'VASP/VAMP'   (HEAR YOUR MASTER'S VOICE ...):  |
|                                                                             |
|      You have a (more or less) 'large supercell' and for larger cells       |
|      it might be more efficient to use real space projection opertators     |
|      So try LREAL= Auto  in the INCAR   file.                               |
|      Mind:          For very  accurate calculation you might also keep the  |
|      reciprocal projection scheme          (i.e. LREAL=.FALSE.)             |
|                                                                             |
 ----------------------------------------------------------------------------- 

  PAW_PBE C 08Apr2002                   :
 energy of atom  1       EATOM= -147.1560
 kinetic energy error for atom=    0.0076 (will be added to EATOM!!)
  PAW_PBE N 08Apr2002                   :
 energy of atom  2       EATOM= -264.5486
 kinetic energy error for atom=    0.0138 (will be added to EATOM!!)
  PAW_PBE Cu 22Jun2005                  :
 energy of atom  3       EATOM=-1390.9808
 kinetic energy error for atom=    0.0043 (will be added to EATOM!!)
  PAW_PBE Fe 06Sep2000                  :
 energy of atom  4       EATOM= -594.3153
 kinetic energy error for atom=    0.0026 (will be added to EATOM!!)
 
 
 POSCAR:  C  N Cu Fe                             
  positions in cartesian coordinates
  No initial velocities read in
 exchange correlation table for  LEXCH =        8
   RHO(1)=    0.500       N(1)  =     2000
   RHO(2)=  100.500       N(2)  =     4000

 VTST: version 3.2, (02/03/18)

 CHAIN: initializing optimizer
 
 OPT: Using VASP Conjugate-Gradient optimizer
 CHAIN: Read ICHAIN            0
 
 POSCAR:  C  N Cu Fe                             
  positions in cartesian coordinates
  No initial velocities read in
 


--------------------------------------------------------------------------------------------------------


 ion  position               nearest neighbor table
   1  0.225  1.000  0.500-   4 1.44  18 1.44   3 1.47
   2  0.056  0.099  0.500-   3 1.43   7 1.43  33 1.45
   3  0.113  1.000  0.500-   2 1.43  16 1.43   1 1.47
   4  0.280  0.101  0.500-   1 1.44   5 1.45  20 1.46
   5  0.222  0.202  0.500-  50 1.42   4 1.45   7 1.46
   6  0.052  0.298  0.500-  10 1.41  37 1.43   7 1.43
   7  0.111  0.200  0.500-   2 1.43   6 1.43   5 1.46
   8  0.211  0.399  0.500-  50 1.40  10 1.41  11 1.43
   9  0.049  0.500  0.500-  41 1.41  14 1.43  10 1.43
  10  0.103  0.399  0.500-   6 1.41   8 1.41   9 1.43
  11  0.264  0.500  0.499-  56 1.31   8 1.43  12 1.43
  12  0.210  0.601  0.500-  51 1.40  14 1.40  11 1.43
  13  0.052  0.701  0.500-  14 1.41  45 1.43  17 1.44
  14  0.103  0.600  0.500-  12 1.40  13 1.41   9 1.43
  15  0.221  0.798  0.500-  51 1.43  17 1.45  18 1.45
  16  0.056  0.901  0.500-  17 1.43   3 1.43  49 1.44
  17  0.110  0.800  0.500-  16 1.43  13 1.44  15 1.45
  18  0.280  0.898  0.500-   1 1.44  15 1.45  28 1.47
  19  0.557  0.001  0.500-  22 1.43  29 1.44  21 1.45
  20  0.392  0.103  0.500-  52 1.43  21 1.46   4 1.46
  21  0.446  0.001  0.500-  19 1.45  28 1.45  20 1.46
  22  0.613  0.100  0.500-  19 1.43  23 1.43  31 1.44
  23  0.558  0.201  0.500-  52 1.41  22 1.43  24 1.46
  24  0.615  0.302  0.500-  55 1.36  35 1.43  23 1.46
  25  0.612  0.498  0.500-  55 1.41  53 1.44  39 1.45
  26  0.616  0.698  0.500-  53 1.42  43 1.42  27 1.47
  27  0.560  0.801  0.500-  54 1.42  29 1.42  26 1.47
  28  0.392  0.898  0.500-  54 1.43  21 1.45  18 1.47
  29  0.614  0.901  0.500-  27 1.42  47 1.44  19 1.44
  30  0.890  0.000  0.500-  33 1.42  49 1.42  32 1.45
  31  0.723  0.099  0.500-  32 1.43  36 1.43  22 1.44
  32  0.780  0.000  0.500-  47 1.42  31 1.43  30 1.45
  33  0.946  0.099  0.500-  30 1.42  34 1.43   2 1.45
  34  0.888  0.199  0.500-  37 1.42  36 1.43  33 1.43
  35  0.725  0.300  0.500-  40 1.42  24 1.43  36 1.43
  36  0.779  0.199  0.500-  31 1.43  35 1.43  34 1.43
  37  0.942  0.299  0.500-  34 1.42  38 1.43   6 1.43
  38  0.888  0.399  0.500-  41 1.43  40 1.43  37 1.43
  39  0.723  0.499  0.500-  40 1.43  44 1.44  25 1.45
  40  0.778  0.400  0.500-  35 1.42  39 1.43  38 1.43
  41  0.941  0.500  0.500-   9 1.41  38 1.43  42 1.43
  42  0.887  0.600  0.500-  44 1.43  41 1.43  45 1.43
  43  0.725  0.700  0.500-  44 1.42  26 1.42  48 1.43
  44  0.778  0.600  0.500-  43 1.42  42 1.43  39 1.44
  45  0.942  0.701  0.500-  46 1.42  13 1.43  42 1.43
  46  0.889  0.801  0.500-  45 1.42  48 1.43  49 1.44
  47  0.724  0.901  0.500-  32 1.42  48 1.43  29 1.44
  48  0.779  0.801  0.500-  46 1.43  47 1.43  43 1.43
  49  0.946  0.901  0.500-  30 1.42  46 1.44  16 1.44
  50  0.271  0.304  0.499-   8 1.40   5 1.42  57 1.93
  51  0.271  0.695  0.499-  12 1.40  15 1.43  58 1.97
  52  0.450  0.201  0.499-  23 1.41  20 1.43  57 1.93
  53  0.559  0.600  0.500-  26 1.42  25 1.44  58 1.97
  54  0.451  0.800  0.500-  27 1.42  28 1.43  58 1.94
  55  0.562  0.397  0.499-  24 1.36  25 1.41  57 2.03
  56  0.365  0.501  0.499-  11 1.31  58 1.92  57 1.93
  57  0.412  0.352  0.499-  52 1.93  56 1.93  50 1.93  55 2.03
  58  0.415  0.647  0.499-  56 1.92  54 1.94  53 1.97  51 1.97
 
  LATTYP: Found a triclinic cell.
 ALAT       =    13.0612000000
 B/A-ratio  =     0.9447217714
 C/A-ratio  =     1.5092028298
 COS(alpha) =     0.0000785398
 COS(beta)  =     0.0002024582
 COS(gamma) =     0.0003263766
  
  Lattice vectors:
  
 A1 = (  13.0612000000,   0.0000000000,   0.0000000000)
 A2 = (   0.0040272257,  12.3391993428,   0.0000000000)
 A3 = (   0.0039908559,   0.0015468744,  19.7119995353)


Analysis of symmetry for initial positions (statically):
=====================================================================
 Subroutine PRICEL returns:
 Original cell was already a primitive cell.
 

 Routine SETGRP: Setting up the symmetry group for a 
 triclinic supercell.


 Subroutine GETGRP returns: Found  1 space group operations
 (whereof  1 operations were pure point group operations)
 out of a pool of  2 trial point group operations.


The static configuration has the point symmetry C_1 .


Analysis of symmetry for dynamics (positions and initial velocities):
=====================================================================
 Subroutine PRICEL returns:
 Original cell was already a primitive cell.
 

 Routine SETGRP: Setting up the symmetry group for a 
 triclinic supercell.


 Subroutine GETGRP returns: Found  1 space group operations
 (whereof  1 operations were pure point group operations)
 out of a pool of  2 trial point group operations.


The dynamic configuration has the point symmetry C_1 .


Analysis of structural, dynamic, and magnetic symmetry:
=====================================================================
 Subroutine PRICEL returns:
 Original cell was already a primitive cell.
 

 Routine SETGRP: Setting up the symmetry group for a 
 triclinic supercell.


 Subroutine GETGRP returns: Found  1 space group operations
 (whereof  1 operations were pure point group operations)
 out of a pool of  2 trial point group operations.


The magnetic configuration has the point symmetry C_1 .


 Subroutine INISYM returns: Found  1 space group operations
 (whereof  1 operations are pure point group operations),
 and found     1 'primitive' translations

 
 
 KPOINTS: KPOINTS created by Atomic Simulation Env

Automatic generation of k-mesh.
Space group operators:
 irot       det(A)        alpha          n_x          n_y          n_z        tau_x        tau_y        tau_z
    1     1.000000     0.000001     1.000000     0.000000     0.000000     0.000000     0.000000     0.000000
 
 Subroutine IBZKPT returns following result:
 ===========================================
 
 Found      1 irreducible k-points:
 
 Following reciprocal coordinates:
            Coordinates               Weight
  0.000000  0.000000  0.000000      1.000000
 
 Following cartesian coordinates:
            Coordinates               Weight
  0.000000  0.000000  0.000000      1.000000
 
 
 Subroutine IBZKPT_HF returns following result:
 ==============================================
 
 Found      1 k-points in 1st BZ
 the following      1 k-points will be used (e.g. in the exchange kernel)
 Following reciprocal coordinates:   # in IRBZ
  0.000000  0.000000  0.000000    1.00000000   1 t-inv F


--------------------------------------------------------------------------------------------------------




 Dimension of arrays:
   k-points           NKPTS =      1   k-points in BZ     NKDIM =      1   number of bands    NBANDS=    156
   number of dos      NEDOS =    301   number of ions     NIONS =     58
   non local maximal  LDIM  =      6   non local SUM 2l+1 LMDIM =     18
   total plane-waves  NPLWV = ******
   max r-space proj   IRMAX =      1   max aug-charges    IRDMAX=  14149
   dimension x,y,z NGX =    96 NGY =   90 NGZ =  144
   dimension x,y,z NGXF=   192 NGYF=  180 NGZF=  288
   support grid    NGXF=   192 NGYF=  180 NGZF=  288
   ions per type =              54   2   1   1
   NGX,Y,Z   is equivalent  to a cutoff of  12.22, 12.13, 12.14 a.u.
   NGXF,Y,Z  is equivalent  to a cutoff of  24.44, 24.25, 24.29 a.u.

 SYSTEM =  unknown system                          
 POSCAR =   C  N Cu Fe                             

 Startparameter for this run:
   NWRITE =      2    write-flag & timer
   PREC   = accura    normal or accurate (medium, high low for compatibility)
   ISTART =      1    job   : 0-new  1-cont  2-samecut
   ICHARG =      0    charge: 1-file 2-atom 10-const
   ISPIN  =      2    spin polarized calculation?
   LNONCOLLINEAR =      F non collinear calculations
   LSORBIT =      F    spin-orbit coupling
   INIWAV =      1    electr: 0-lowe 1-rand  2-diag
   LASPH  =      T    aspherical Exc in radial PAW
   METAGGA=      F    non-selfconsistent MetaGGA calc.

 Electronic Relaxation 1
   ENCUT  =  500.0 eV  36.75 Ry    6.06 a.u.  23.81 22.50 35.94*2*pi/ulx,y,z
   ENINI  =  500.0     initial cutoff
   ENAUG  =  644.9 eV  augmentation charge cutoff
   NELM   =    250;   NELMIN=  2; NELMDL=  0     # of ELM steps 
   EDIFF  = 0.1E-03   stopping-criterion for ELM
   LREAL  =      F    real-space projection
   NLSPLINE    = F    spline interpolate recip. space projectors
   LCOMPAT=      F    compatible to vasp.4.4
   GGA_COMPAT  = T    GGA compatible to vasp.4.4-vasp.4.6
   LMAXPAW     = -100 max onsite density
   LMAXMIX     =    2 max onsite mixed and CHGCAR
   VOSKOWN=      0    Vosko Wilk Nusair interpolation
   ROPT   =    0.00000   0.00000   0.00000   0.00000
 Ionic relaxation
   EDIFFG = -.3E-01   stopping-criterion for IOM
   NSW    =      0    number of steps for IOM
   NBLOCK =      1;   KBLOCK =      1    inner block; outer block 
   IBRION =     -1    ionic relax: 0-MD 1-quasi-New 2-CG
   NFREE  =      1    steps in history (QN), initial steepest desc. (CG)
   ISIF   =      2    stress and relaxation
   IWAVPR =     10    prediction:  0-non 1-charg 2-wave 3-comb
   ISYM   =      3    0-nonsym 1-usesym 2-fastsym
   LCORR  =      T    Harris-Foulkes like correction to forces

   POTIM  = 0.5000    time-step for ionic-motion
   TEIN   =    0.0    initial temperature
   TEBEG  =    0.0;   TEEND  =   0.0 temperature during run
   SMASS  =  -3.00    Nose mass-parameter (am)
   estimated Nose-frequenzy (Omega)   =  0.10E-29 period in steps =****** mass=  -0.390E-26a.u.
   SCALEE = 1.0000    scale energy and forces
   NPACO  =    256;   APACO  = 16.0  distance and # of slots for P.C.
   PSTRESS=    0.0 pullay stress

  Mass of Ions in am
   POMASS =  12.01 14.00 63.55 55.85
  Ionic Valenz
   ZVAL   =   4.00  5.00 11.00  8.00
  Atomic Wigner-Seitz radii
   RWIGS  =  -1.00 -1.00 -1.00 -1.00
  virtual crystal weights 
   VCA    =   1.00  1.00  1.00  1.00
   NELECT =     245.0000    total number of electrons
   NUPDOWN=      -1.0000    fix difference up-down

 DOS related values:
   EMIN   =  10.00;   EMAX   =-10.00  energy-range for DOS
   EFERMI =   0.00
   ISMEAR =     0;   SIGMA  =   0.10  broadening in eV -4-tet -1-fermi 0-gaus

 Electronic relaxation 2 (details)
   IALGO  =     53    algorithm
   LDIAG  =      T    sub-space diagonalisation (order eigenvalues)
   LSUBROT=      F    optimize rotation matrix (better conditioning)
   TURBO    =      0    0=normal 1=particle mesh
   IRESTART =      0    0=no restart 2=restart with 2 vectors
   NREBOOT  =      0    no. of reboots
   NMIN     =      0    reboot dimension
   EREF     =   0.00    reference energy to select bands
   IMIX   =      4    mixing-type and parameters
     AMIX     =   0.40;   BMIX     =  1.00
     AMIX_MAG =   1.60;   BMIX_MAG =  1.00
     AMIN     =   0.10
     WC   =   100.;   INIMIX=   1;  MIXPRE=   1;  MAXMIX= -45

 Intra band minimization:
   WEIMIN = 0.0000     energy-eigenvalue tresh-hold
   EBREAK =  0.16E-06  absolut break condition
   DEPER  =   0.30     relativ break condition  

   TIME   =   0.20     timestep for ELM

  volume/ion in A,a.u.               =      54.77       369.63
  Fermi-wavevector in a.u.,A,eV,Ry     =   0.696835  1.316827  6.606703  0.485579
  Thomas-Fermi vector in A             =   1.779995
 
 Write flags
   LWAVE        =      T    write WAVECAR
   LDOWNSAMPLE  =      F    k-point downsampling of WAVECAR
   LCHARG       =      T    write CHGCAR
   LVTOT        =      F    write LOCPOT, total local potential
   LVHAR        =      F    write LOCPOT, Hartree potential only
   LELF         =      F    write electronic localiz. function (ELF)
   LORBIT       =     11    0 simple, 1 ext, 2 COOP (PROOUT), +10 PAW based schemes


 Dipole corrections
   LMONO  =      F    monopole corrections only (constant potential shift)
   LDIPOL =      T    correct potential (dipole corrections)
   IDIPOL =      3    1-x, 2-y, 3-z, 4-all directions 
   EPSILON=  1.0000000 bulk dielectric constant

 Exchange correlation treatment:
   GGA     =    PE    GGA type
   LEXCH   =     8    internal setting for exchange type
   VOSKOWN=      0    Vosko Wilk Nusair interpolation
   EXXOEP  =     0    0=HF, 1=EXX-LHF (local Hartree Fock) 2=EXX OEP
   LHFCALC =     T    Hartree Fock is set to
   LSYMGRAD=     F    symmetrize gradient (conserves proper symmetry)
   PRECFOCK=normal    Normal, Fast or Accurate (Low or Medium for compatibility)
   LRHFCALC=     F    long range Hartree Fock
   LRSCOR  =     F    long range correlation only (use DFT for short range part)
   LTHOMAS =     F    Thomas Fermi screening in HF
   LMODELHF=     F    short range full HF, long range fraction AEXX
   ENCUT4O =  -1.0   cutoff for four orbital integrals eV
   LMAXFOCK=     4    L truncation for augmentation on plane wave grid
   LMAXFOCKAE=  -1    L truncation for all-electron charge restoration on plane wave grid
   NMAXFOCKAE=   1    number of basis functions for all-electron charge restoration
   LFOCKAEDFT=     F  apply the AE augmentation even for DFT
   NKREDX  =     1    reduce k-point grid by
   NKREDY  =     1    reduce k-point grid by
   NKREDZ  =     1    reduce k-point grid by
   SHIFTRED=     F    shift reduced grid of Gamma
   HFKIDENT=     F    idential grid for each k-point
   ODDONLY =     F    use only odd q-grid points
   EVENONLY=     F    use only even q-grid points
   HFALPHA =   -1.0000 decay constant for conv. correction
   MCALPHA =    0.0000 extent of test-charge in conv. correction in multipole expansion
   AEXX    =    0.2500 exact exchange contribution
   HFSCREEN=    0.2000 screening length (either q_TF or 0.3 A-1)
   HFSCREENC=   0.2000 screening length for correlation (either q_TF or 0.3 A-1)
   HFRCUT  =    0.0000 spherical cutoff for potential kernel
   ALDAX   =    0.7500 LDA exchange part
   AGGAX   =    0.7500 GGA exchange part
   ALDAC   =    1.0000 LDA correlation
   AGGAC   =    1.0000 GGA correlation
   ENCUTFOCK=  -1.0 apply spherical cutoff to Coloumb kernel
   NBANDSGWLOW=     1    first orbital included in HF term
   NBLOCK_FOCK=    64    blocking factor in FOCK_ACC
 Linear response parameters
   LEPSILON=     F    determine dielectric tensor
   LRPA    =     F    only Hartree local field effects (RPA)
   LNABLA  =     F    use nabla operator in PAW spheres
   LVEL    =     F    velocity operator in full k-point grid
   LINTERFAST=   F  fast interpolation
   KINTER  =     0    interpolate to denser k-point grid
   CSHIFT  =0.1000    complex shift for real part using Kramers Kronig
   OMEGAMAX=  -1.0    maximum frequency
   DEG_THRESHOLD= 0.2000000E-02 threshold for treating states as degnerate
   RTIME   =   -0.100 relaxation time in fs
  (WPLASMAI=    0.000 imaginary part of plasma frequency in eV, 0.658/RTIME)
   DFIELD  = 0.0000000 0.0000000 0.0000000 field for delta impulse in time
 
 Orbital magnetization related:
   ORBITALMAG=     F  switch on orbital magnetization
   LCHIMAG   =     F  perturbation theory with respect to B field
   DQ        =  0.001000  dq finite difference perturbation B field
   LLRAUG    =     F  two centre corrections for induced B field



--------------------------------------------------------------------------------------------------------


 Static calculation
 charge density and potential will be updated during run
 spin polarized calculation
 Conjugate gradient for all bands (Freysoldt, et al. PRB 79, 241103 (2009))
 perform sub-space diagonalisation
    before iterative eigenvector-optimisation
 modified Broyden-mixing scheme, WC =      100.0
 initial mixing is a Kerker type mixing with AMIX =  0.4000 and BMIX =      1.0000
 Hartree-type preconditioning will be used
 using additional bands           33
 reciprocal scheme for non local part
 use partial core corrections
 no Harris-corrections to forces 
 use gradient corrections 
 use of overlap-Matrix (Vanderbilt PP)
 Gauss-broadening in eV      SIGMA  =   0.10


--------------------------------------------------------------------------------------------------------


  energy-cutoff  :      500.00
  volume of cell :     3176.88
      direct lattice vectors                 reciprocal lattice vectors
    13.061200000  0.000000000  0.000000000     0.076562644 -0.000024988 -0.000015499
     0.004027226 12.339199343  0.000000000     0.000000000  0.081042535 -0.000006360
     0.003990856  0.001546874 19.711999535     0.000000000  0.000000000  0.050730521

  length of vectors
    13.061200000 12.339200000 19.712000000     0.076562649  0.081042536  0.050730521


 
 old parameters found on file WAVECAR:
  energy-cutoff  :      500.00
  volume of cell :     3176.88
      direct lattice vectors                 reciprocal lattice vectors
    13.061200000  0.000000000  0.000000000     0.076562644 -0.000024988 -0.000015499
     0.004027226 12.339199343  0.000000000     0.000000000  0.081042535 -0.000006360
     0.003990856  0.001546874 19.711999535     0.000000000  0.000000000  0.050730521

  length of vectors

 
 k-points in units of 2pi/SCALE and weight: KPOINTS created by Atomic Simulation Env
   0.00000000  0.00000000  0.00000000       1.000
 
 k-points in reciprocal lattice and weights: KPOINTS created by Atomic Simulation Env
   0.00000000  0.00000000  0.00000000       1.000
 
 position of ions in fractional coordinates (direct lattice) 
   0.22497000  0.99985000  0.49980000
   0.05644000  0.09940000  0.49996000
   0.11275000  0.99992000  0.49992000
   0.27973000  0.10107000  0.49964000
   0.22245000  0.20165000  0.49961000
   0.05205000  0.29825000  0.50003000
   0.11088000  0.20004000  0.49987000
   0.21122000  0.39857000  0.49963000
   0.04893000  0.49976000  0.50019000
   0.10302000  0.39900000  0.50002000
   0.26407000  0.50005000  0.49931000
   0.21014000  0.60122000  0.49972000
   0.05153000  0.70133000  0.50015000
   0.10258000  0.60046000  0.50011000
   0.22135000  0.79785000  0.49981000
   0.05607000  0.90062000  0.50003000
   0.11044000  0.79994000  0.50002000
   0.27977000  0.89821000  0.49979000
   0.55708000  0.00070000  0.49991000
   0.39163000  0.10335000  0.49962000
   0.44641000  0.00064000  0.49979000
   0.61343000  0.10003000  0.49988000
   0.55822000  0.20053000  0.49964000
   0.61545000  0.30235000  0.49962000
   0.61180000  0.49760000  0.49957000
   0.61562000  0.69826000  0.49980000
   0.55958000  0.80132000  0.49986000
   0.39195000  0.89797000  0.49978000
   0.61407000  0.90117000  0.50000000
   0.89020000  0.00012000  0.50010000
   0.72349000  0.09940000  0.50001000
   0.77952000  0.00022000  0.50010000
   0.94571000  0.09946000  0.50007000
   0.88849000  0.19869000  0.50009000
   0.72472000  0.29963000  0.49988000
   0.77892000  0.19904000  0.50002000
   0.94227000  0.29877000  0.50012000
   0.88770000  0.39902000  0.50014000
   0.72265000  0.49902000  0.49985000
   0.77844000  0.39960000  0.49997000
   0.94106000  0.49980000  0.50021000
   0.88706000  0.60040000  0.50016000
   0.72462000  0.70028000  0.49997000
   0.77777000  0.59970000  0.50000000
   0.94202000  0.70082000  0.50017000
   0.88855000  0.80120000  0.50013000
   0.72394000  0.90094000  0.50008000
   0.77924000  0.80084000  0.50008000
   0.94554000  0.90063000  0.50010000
   0.27077000  0.30428000  0.49937000
   0.27125000  0.69488000  0.49948000
   0.44993000  0.20119000  0.49948000
   0.55906000  0.59964000  0.49951000
   0.45064000  0.79972000  0.49973000
   0.56168000  0.39666000  0.49940000
   0.36458000  0.50076000  0.49859000
   0.41177000  0.35217000  0.49900000
   0.41520000  0.64695000  0.49904000
 
 position of ions in cartesian coordinates  (Angst):
   2.94439942 12.33812159  9.85205737
   0.73956970  1.22728979  9.85521129
   1.47867231 12.33898552  9.85442281
   3.65601050  1.24789576  9.84890345
   2.90826990  2.48897238  9.84831209
   0.68303213  3.68093969  9.85659113
   1.45102637  2.46910667  9.85343721
   2.76238575  4.91880755  9.84870633
   0.64309335  6.16741199  9.85974505
   1.34916719  4.92411401  9.85639401
   3.45307757  6.17098900  9.84239849
   2.74909613  7.41934643  9.85048041
   0.67786408  8.65462434  9.85895657
   1.34423195  7.40996924  9.85816809
   2.89630441  9.84560334  9.85225449
   0.73796403 11.11370320  9.85659113
   1.44769597  9.87139259  9.85639401
   3.65974381 11.08396535  9.85186025
   7.27813118  0.00941074  9.85422569
   5.11756788  1.27602910  9.84850921
   5.83264746  0.00867020  9.85186025
   8.01452971  1.23506336  9.85363433
   7.29382463  2.47515252  9.84890345
   8.04172708  3.73152977  9.84850921
   7.99483982  6.14075837  9.84752361
   8.04554262  8.61674246  9.85205737
   7.31400826  9.88842044  9.85324009
   5.12494822 11.08100393  9.85166313
   8.02611573 11.12048971  9.85599977
  11.62907655  0.00225430  9.85797097
   9.45204336  1.22728987  9.85619689
  10.18346334  0.00348822  9.85797097
  12.35450371  1.22803031  9.85737961
  11.60754154  2.45244909  9.85777385
   9.46891449  3.69796755  9.85363433
  10.17642699  2.45676771  9.85639401
  12.31037605  3.68735621  9.85836521
  11.59803017  4.92436098  9.85875945
   9.44268068  6.15828046  9.85304297
  10.17096512  4.93151745  9.85540841
  12.29538195  6.16790559  9.86013929
  11.59048208  7.40922897  9.85915369
   9.46922224  8.64166791  9.85540841
  10.16302008  7.40059128  9.85599977
  12.30873009  8.64833138  9.85935081
  11.61075182  9.88694015  9.85856233
   9.46114916 11.11765182  9.85757673
  10.18303040  9.88249796  9.85757673
  12.35550992 11.11382670  9.85797097
   3.53979944  3.75534404  9.84358121
   3.54764229  8.57503547  9.84574953
   5.87942931  2.48329615  9.84574953
   7.30640283  7.39985017  9.84634089
   5.89111417  9.86867752  9.85067753
   7.33980529  4.89523932  9.84417257
   4.76585877  6.17974872  9.82820585
   5.38162003  4.34626772  9.83628777
   5.42760725  7.98361697  9.83707625
 


--------------------------------------------------------------------------------------------------------


 k-point  1 :   0.0000 0.0000 0.0000  plane waves:   80677

 maximum and minimum number of plane-waves per node :      2532     2509

 maximum number of plane-waves:     80677
 maximum index in each direction: 
   IXMAX=   23   IYMAX=   22   IZMAX=   35
   IXMIN=  -23   IYMIN=  -22   IZMIN=  -35


 parallel 3D FFT for wavefunctions:
    minimum data exchange during FFTs selected (reduces bandwidth)
 parallel 3D FFT for charge:
    minimum data exchange during FFTs selected (reduces bandwidth)


 FFT grid for exact exchange (Hartree Fock) 
  NGX = 72; NGY = 70; NGZ =108

 
 Radii for the augmentation spheres in the non-local exchange
 for species   1 augmentation radius   0.874 (default was   0.699)
       energy cutoff for augmentation   2000.0
 for species   2 augmentation radius   0.886 (default was   0.709)
       energy cutoff for augmentation   2000.0
 for species   3 augmentation radius   1.179 (default was   0.943)
       energy cutoff for augmentation   2000.0
 for species   4 augmentation radius   1.263 (default was   1.010)
       energy cutoff for augmentation   2000.0

 real space projection operators:
  total allocation   :       2374.11 KBytes
  max/ min on nodes  :        119.51         43.66

 Maximum index for augmentation-charges in exchange          143
  SETUP_FOCK is finished

 total amount of memory used by VASP MPI-rank0   119744. kBytes
=======================================================================

   base      :      30000. kBytes
   nonl-proj :       3791. kBytes
   fftplans  :      12931. kBytes
   grid      :      33177. kBytes
   one-center:         62. kBytes
   HF        :         23. kBytes
   nonlr-proj:       1618. kBytes
   wavefun   :      38142. kBytes
 
     INWAV:  cpu time    1.8230: real time    1.8233
 Broyden mixing: mesh for mixing (old mesh)
   NGX = 47   NGY = 45   NGZ = 71
  (NGX  =192   NGY  =180   NGZ  =288)
  gives a total of 150165 points

 charge density for first step will be calculated from the start-wavefunctions


--------------------------------------------------------------------------------------------------------


 Maximum index for augmentation-charges          224 (set IRDMAX)


--------------------------------------------------------------------------------------------------------


 initial charge from wavefunction
 First call to EWALD:  gamma=   0.121
 Maximum number of real-space cells 3x 3x 2
 Maximum number of reciprocal cells 2x 2x 4

    FEWALD:  cpu time    0.0034: real time    0.0034


--------------------------------------- Iteration      1(   1)  ---------------------------------------


    POTLOK:  cpu time    1.2460: real time    1.2469
    SETDIJ:  cpu time    2.0871: real time    2.0870
    TRIAL :  cpu time   61.6416: real time   61.6558
    CORREC:  cpu time    0.0010: real time    0.0013
    CHARGE:  cpu time    0.1685: real time    0.1686
    --------------------------------------------
      LOOP:  cpu time   65.1522: real time   65.1707

 eigenvalue-minimisations  :     0
 total energy-change (2. order) :-0.5699280E+03  (-0.7944200E+01)
 number of electron     245.0000042 magnetization       3.0000376
 augmentation part       16.4231584 magnetization       2.1030903

 DIPCOR: dipole corrections for dipol
 direction  3 min pos     1,
 dipolmoment           0.000000      0.000000      0.001053 electrons x Angstroem
 Tr[quadrupol]     -6636.349762

 energy correction for charged system         0.000000 eV
 dipol+quadrupol energy correction            0.000000 eV
 added-field ion interaction          0.000000 eV  (added to PSCEN)


 Free energy of the ion-electron system (eV)
  ---------------------------------------------------
  alpha Z        PSCENC =       100.63779080
  Ewald energy   TEWEN  =     38072.77838420
  -Hartree energ DENC   =    -47033.59095864
  -exchange      EXHF   =       554.33662479
  -V(xc)+E(xc)   XCENC  =       635.39257315
  PAW double counting   =     28033.33124667   -28169.88809980
  entropy T*S    EENTRO =        -0.00007465
  eigenvalues    EBANDS =     -3115.16120512
  atomic energy  EATOM  =     10352.23585582
  ---------------------------------------------------
  free energy    TOTEN  =      -569.92799491 eV

  energy without entropy =     -569.92792026  energy(sigma->0) =     -569.92795759
  exchange ACFDT corr.  =        -0.00027704  see jH, gK, PRB 81, 115126


--------------------------------------------------------------------------------------------------------




--------------------------------------- Iteration      1(   2)  ---------------------------------------


    POTLOK:  cpu time    1.2649: real time    1.2651
    SETDIJ:  cpu time    2.0867: real time    2.0866
    TRIAL :  cpu time   61.9720: real time   61.9763
    CORREC:  cpu time    0.0010: real time    0.0012
    CHARGE:  cpu time    0.1682: real time    0.1682
    --------------------------------------------
      LOOP:  cpu time   65.4953: real time   65.4999

 eigenvalue-minimisations  :     0
 total energy-change (2. order) :-0.7140959E+01  (-0.8832118E+01)
 number of electron     245.0000042 magnetization       2.9999974
 augmentation part       16.3883622 magnetization       2.1387727

 DIPCOR: dipole corrections for dipol
 direction  3 min pos     1,
 dipolmoment           0.000000      0.000000      0.000111 electrons x Angstroem
 Tr[quadrupol]     -6636.164969

 energy correction for charged system         0.000000 eV
 dipol+quadrupol energy correction            0.000000 eV
 added-field ion interaction          0.000000 eV  (added to PSCEN)


 Free energy of the ion-electron system (eV)
  ---------------------------------------------------
  alpha Z        PSCENC =       100.63779077
  Ewald energy   TEWEN  =     38072.77838420
  -Hartree energ DENC   =    -47024.46519952
  -exchange      EXHF   =       554.23203650
  -V(xc)+E(xc)   XCENC  =       635.13643221
  PAW double counting   =     27752.29991620   -27890.64179339
  entropy T*S    EENTRO =        -0.00003673
  eigenvalues    EBANDS =     -3129.28230227
  atomic energy  EATOM  =     10352.23585582
  ---------------------------------------------------
  free energy    TOTEN  =      -577.06895413 eV

  energy without entropy =     -577.06891740  energy(sigma->0) =     -577.06893577
  exchange ACFDT corr.  =        -0.00013468  see jH, gK, PRB 81, 115126


--------------------------------------------------------------------------------------------------------




--------------------------------------- Iteration      1(   3)  ---------------------------------------


    POTLOK:  cpu time    1.2677: real time    1.2678
    SETDIJ:  cpu time    2.0826: real time    2.0825
    TRIAL :  cpu time   61.9150: real time   61.9153
    CORREC:  cpu time    0.0008: real time    0.0008
    CHARGE:  cpu time    0.1689: real time    0.1693
    --------------------------------------------
      LOOP:  cpu time   65.4377: real time   65.4382

 eigenvalue-minimisations  :     0
 total energy-change (2. order) :-0.7574379E+01  (-0.6521338E+01)
 number of electron     245.0000041 magnetization       2.9999892
 augmentation part       16.3372652 magnetization       2.1667977

 DIPCOR: dipole corrections for dipol
 direction  3 min pos     1,
 dipolmoment          -0.000000     -0.000000     -0.000044 electrons x Angstroem
 Tr[quadrupol]     -6635.930002

 energy correction for charged system         0.000000 eV
 dipol+quadrupol energy correction            0.000000 eV
 added-field ion interaction          0.000000 eV  (added to PSCEN)


 Free energy of the ion-electron system (eV)
  ---------------------------------------------------
  alpha Z        PSCENC =       100.63779077
  Ewald energy   TEWEN  =     38072.77838420
  -Hartree energ DENC   =    -47004.70985067
  -exchange      EXHF   =       553.98999289
  -V(xc)+E(xc)   XCENC  =       634.63713370
  PAW double counting   =     27410.00404625   -27547.41445511
  entropy T*S    EENTRO =        -0.00001820
  eigenvalues    EBANDS =     -3156.80219408
  atomic energy  EATOM  =     10352.23585582
  ---------------------------------------------------
  free energy    TOTEN  =      -584.64333294 eV

  energy without entropy =     -584.64331475  energy(sigma->0) =     -584.64332384
  exchange ACFDT corr.  =        -0.00002869  see jH, gK, PRB 81, 115126


--------------------------------------------------------------------------------------------------------




--------------------------------------- Iteration      1(   4)  ---------------------------------------


    POTLOK:  cpu time    1.2694: real time    1.2694
    SETDIJ:  cpu time    2.0824: real time    2.0823
    TRIAL :  cpu time   61.8943: real time   61.9036
    CORREC:  cpu time    0.0009: real time    0.0012
    CHARGE:  cpu time    0.1688: real time    0.1688
    --------------------------------------------
      LOOP:  cpu time   65.4181: real time   65.4275

 eigenvalue-minimisations  :     0
 total energy-change (2. order) :-0.5431050E+01  (-0.4038086E+01)
 number of electron     245.0000041 magnetization       2.9999922
 augmentation part       16.3479995 magnetization       2.1845449

 DIPCOR: dipole corrections for dipol
 direction  3 min pos     1,
 dipolmoment           0.000000      0.000000      0.000277 electrons x Angstroem
 Tr[quadrupol]     -6635.833967

 energy correction for charged system         0.000000 eV
 dipol+quadrupol energy correction            0.000000 eV
 added-field ion interaction          0.000000 eV  (added to PSCEN)


 Free energy of the ion-electron system (eV)
  ---------------------------------------------------
  alpha Z        PSCENC =       100.63779077
  Ewald energy   TEWEN  =     38072.77838420
  -Hartree energ DENC   =    -46993.26385627
  -exchange      EXHF   =       553.95548367
  -V(xc)+E(xc)   XCENC  =       634.35460908
  PAW double counting   =     27141.39859353   -27277.45646562
  entropy T*S    EENTRO =        -0.00000620
  eigenvalues    EBANDS =     -3174.71476042
  atomic energy  EATOM  =     10352.23585582
  ---------------------------------------------------
  free energy    TOTEN  =      -590.07438344 eV

  energy without entropy =     -590.07437723  energy(sigma->0) =     -590.07438033
  exchange ACFDT corr.  =        -0.00001181  see jH, gK, PRB 81, 115126


--------------------------------------------------------------------------------------------------------




--------------------------------------- Iteration      1(   5)  ---------------------------------------


    POTLOK:  cpu time    1.2703: real time    1.2703
    SETDIJ:  cpu time    2.0854: real time    2.0853
    TRIAL :  cpu time   61.8845: real time   61.8866
    CORREC:  cpu time    0.0009: real time    0.0012
    CHARGE:  cpu time    0.1686: real time    0.1686
    --------------------------------------------
      LOOP:  cpu time   65.4122: real time   65.4146

 eigenvalue-minimisations  :     0
 total energy-change (2. order) :-0.3337262E+01  (-0.2372874E+01)
 number of electron     245.0000041 magnetization       2.9999973
 augmentation part       16.3708570 magnetization       2.1955297

 DIPCOR: dipole corrections for dipol
 direction  3 min pos     1,
 dipolmoment           0.000000      0.000000      0.000565 electrons x Angstroem
 Tr[quadrupol]     -6635.901773

 energy correction for charged system         0.000000 eV
 dipol+quadrupol energy correction            0.000000 eV
 added-field ion interaction          0.000000 eV  (added to PSCEN)


 Free energy of the ion-electron system (eV)
  ---------------------------------------------------
  alpha Z        PSCENC =       100.63779078
  Ewald energy   TEWEN  =     38072.77838420
  -Hartree energ DENC   =    -46997.70101155
  -exchange      EXHF   =       554.24999560
  -V(xc)+E(xc)   XCENC  =       634.47886579
  PAW double counting   =     26986.70417494   -27123.13894363
  entropy T*S    EENTRO =        -0.00000151
  eigenvalues    EBANDS =     -3173.65675158
  atomic energy  EATOM  =     10352.23585582
  ---------------------------------------------------
  free energy    TOTEN  =      -593.41164584 eV

  energy without entropy =     -593.41164433  energy(sigma->0) =     -593.41164508
  exchange ACFDT corr.  =        -0.00000354  see jH, gK, PRB 81, 115126


--------------------------------------------------------------------------------------------------------




--------------------------------------- Iteration      1(   6)  ---------------------------------------


    POTLOK:  cpu time    1.2698: real time    1.2697
    SETDIJ:  cpu time    2.0816: real time    2.0815
    TRIAL :  cpu time   61.9564: real time   61.9567
    CORREC:  cpu time    0.0008: real time    0.0011
    CHARGE:  cpu time    0.1691: real time    0.1691
    --------------------------------------------
      LOOP:  cpu time   65.4802: real time   65.4807

 eigenvalue-minimisations  :     0
 total energy-change (2. order) :-0.1963376E+01  (-0.1400765E+01)
 number of electron     245.0000041 magnetization       2.9999996
 augmentation part       16.3758071 magnetization       2.2015486

 DIPCOR: dipole corrections for dipol
 direction  3 min pos     1,
 dipolmoment           0.000000      0.000000      0.000699 electrons x Angstroem
 Tr[quadrupol]     -6636.014455

 energy correction for charged system         0.000000 eV
 dipol+quadrupol energy correction            0.000000 eV
 added-field ion interaction          0.000000 eV  (added to PSCEN)


 Free energy of the ion-electron system (eV)
  ---------------------------------------------------
  alpha Z        PSCENC =       100.63779078
  Ewald energy   TEWEN  =     38072.77838420
  -Hartree energ DENC   =    -47006.09551723
  -exchange      EXHF   =       554.61619958
  -V(xc)+E(xc)   XCENC  =       634.71327464
  PAW double counting   =     26919.02665893   -27055.86742574
  entropy T*S    EENTRO =        -0.00000032
  eigenvalues    EBANDS =     -3167.42024102
  atomic energy  EATOM  =     10352.23585582
  ---------------------------------------------------
  free energy    TOTEN  =      -595.37502155 eV

  energy without entropy =     -595.37502123  energy(sigma->0) =     -595.37502139
  exchange ACFDT corr.  =        -0.00000079  see jH, gK, PRB 81, 115126


--------------------------------------------------------------------------------------------------------




--------------------------------------- Iteration      1(   7)  ---------------------------------------


    POTLOK:  cpu time    1.2681: real time    1.2702
    SETDIJ:  cpu time    2.0852: real time    2.0851
    TRIAL :  cpu time   61.9568: real time   61.9634
    CORREC:  cpu time    0.0008: real time    0.0010
    CHARGE:  cpu time    0.1687: real time    0.1687
    --------------------------------------------
      LOOP:  cpu time   65.4818: real time   65.4906

 eigenvalue-minimisations  :     0
 total energy-change (2. order) :-0.1167998E+01  (-0.8382959E+00)
 number of electron     245.0000041 magnetization       3.0000002
 augmentation part       16.3819038 magnetization       2.2050580

 DIPCOR: dipole corrections for dipol
 direction  3 min pos     1,
 dipolmoment           0.000000      0.000000      0.000770 electrons x Angstroem
 Tr[quadrupol]     -6636.088094

 energy correction for charged system         0.000000 eV
 dipol+quadrupol energy correction            0.000000 eV
 added-field ion interaction          0.000000 eV  (added to PSCEN)


 Free energy of the ion-electron system (eV)
  ---------------------------------------------------
  alpha Z        PSCENC =       100.63779079
  Ewald energy   TEWEN  =     38072.77838420
  -Hartree energ DENC   =    -47010.93919465
  -exchange      EXHF   =       554.88313845
  -V(xc)+E(xc)   XCENC  =       634.86903405
  PAW double counting   =     26899.80557674   -27036.40235238
  entropy T*S    EENTRO =        -0.00000007
  eigenvalues    EBANDS =     -3164.41125233
  atomic energy  EATOM  =     10352.23585582
  ---------------------------------------------------
  free energy    TOTEN  =      -596.54301963 eV

  energy without entropy =     -596.54301956  energy(sigma->0) =     -596.54301959
  exchange ACFDT corr.  =        -0.00000016  see jH, gK, PRB 81, 115126


--------------------------------------------------------------------------------------------------------




--------------------------------------- Iteration      1(   8)  ---------------------------------------


    POTLOK:  cpu time    1.2636: real time    1.2660
    SETDIJ:  cpu time    2.0825: real time    2.0825
    TRIAL :  cpu time   61.9011: real time   61.9042
    CORREC:  cpu time    0.0007: real time    0.0009
    CHARGE:  cpu time    0.1687: real time    0.1687
    --------------------------------------------
      LOOP:  cpu time   65.4191: real time   65.4249

 eigenvalue-minimisations  :     0
 total energy-change (2. order) :-0.7047338E+00  (-0.5062194E+00)
 number of electron     245.0000041 magnetization       3.0000003
 augmentation part       16.3903057 magnetization       2.2088006

 DIPCOR: dipole corrections for dipol
 direction  3 min pos     1,
 dipolmoment           0.000000      0.000000      0.000832 electrons x Angstroem
 Tr[quadrupol]     -6636.114183

 energy correction for charged system         0.000000 eV
 dipol+quadrupol energy correction            0.000000 eV
 added-field ion interaction          0.000000 eV  (added to PSCEN)


 Free energy of the ion-electron system (eV)
  ---------------------------------------------------
  alpha Z        PSCENC =       100.63779079
  Ewald energy   TEWEN  =     38072.77838420
  -Hartree energ DENC   =    -47013.33830298
  -exchange      EXHF   =       555.05553668
  -V(xc)+E(xc)   XCENC  =       634.96936368
  PAW double counting   =     26903.15796630   -27039.75162571
  entropy T*S    EENTRO =        -0.00000002
  eigenvalues    EBANDS =     -3162.99272210
  atomic energy  EATOM  =     10352.23585582
  ---------------------------------------------------
  free energy    TOTEN  =      -597.24775339 eV

  energy without entropy =     -597.24775337  energy(sigma->0) =     -597.24775338
  exchange ACFDT corr.  =        -0.00000003  see jH, gK, PRB 81, 115126


--------------------------------------------------------------------------------------------------------




--------------------------------------- Iteration      1(   9)  ---------------------------------------


    POTLOK:  cpu time    1.2654: real time    1.2654
    SETDIJ:  cpu time    2.0802: real time    2.0803
    TRIAL :  cpu time   61.8883: real time   61.8884
    CORREC:  cpu time    0.0007: real time    0.0010
    CHARGE:  cpu time    0.1690: real time    0.1690
    --------------------------------------------
      LOOP:  cpu time   65.4058: real time   65.4062

 eigenvalue-minimisations  :     0
 total energy-change (2. order) :-0.4276900E+00  (-0.3095356E+00)
 number of electron     245.0000041 magnetization       3.0000003
 augmentation part       16.3943131 magnetization       2.2133724

 DIPCOR: dipole corrections for dipol
 direction  3 min pos     1,
 dipolmoment           0.000000      0.000000      0.000841 electrons x Angstroem
 Tr[quadrupol]     -6636.110578

 energy correction for charged system         0.000000 eV
 dipol+quadrupol energy correction            0.000000 eV
 added-field ion interaction          0.000000 eV  (added to PSCEN)


 Free energy of the ion-electron system (eV)
  ---------------------------------------------------
  alpha Z        PSCENC =       100.63779079
  Ewald energy   TEWEN  =     38072.77838420
  -Hartree energ DENC   =    -47013.91668713
  -exchange      EXHF   =       555.14611634
  -V(xc)+E(xc)   XCENC  =       635.01718055
  PAW double counting   =     26915.08717749   -27051.83928127
  entropy T*S    EENTRO =        -0.00000000
  eigenvalues    EBANDS =     -3162.82198019
  atomic energy  EATOM  =     10352.23585582
  ---------------------------------------------------
  free energy    TOTEN  =      -597.67544342 eV

  energy without entropy =     -597.67544342  energy(sigma->0) =     -597.67544342
  exchange ACFDT corr.  =        -0.00000001  see jH, gK, PRB 81, 115126


--------------------------------------------------------------------------------------------------------




--------------------------------------- Iteration      1(  10)  ---------------------------------------


    POTLOK:  cpu time    1.2636: real time    1.2635
    SETDIJ:  cpu time    2.0861: real time    2.0861
    TRIAL :  cpu time   61.9776: real time   61.9777
    CORREC:  cpu time    0.0007: real time    0.0010
    CHARGE:  cpu time    0.1694: real time    0.1694
    --------------------------------------------
      LOOP:  cpu time   65.4998: real time   65.5001

 eigenvalue-minimisations  :     0
 total energy-change (2. order) :-0.2629453E+00  (-0.1898735E+00)
 number of electron     245.0000041 magnetization       3.0000003
 augmentation part       16.3976637 magnetization       2.2176712

 DIPCOR: dipole corrections for dipol
 direction  3 min pos     1,
 dipolmoment           0.000000      0.000000      0.000850 electrons x Angstroem
 Tr[quadrupol]     -6636.097864

 energy correction for charged system         0.000000 eV
 dipol+quadrupol energy correction            0.000000 eV
 added-field ion interaction          0.000000 eV  (added to PSCEN)


 Free energy of the ion-electron system (eV)
  ---------------------------------------------------
  alpha Z        PSCENC =       100.63779079
  Ewald energy   TEWEN  =     38072.77838420
  -Hartree energ DENC   =    -47013.14394428
  -exchange      EXHF   =       555.17823230
  -V(xc)+E(xc)   XCENC  =       635.01796371
  PAW double counting   =     26928.86555011   -27065.60558421
  entropy T*S    EENTRO =        -0.00000000
  eigenvalues    EBANDS =     -3163.90263714
  atomic energy  EATOM  =     10352.23585582
  ---------------------------------------------------
  free energy    TOTEN  =      -597.93838869 eV

  energy without entropy =     -597.93838869  energy(sigma->0) =     -597.93838869
  exchange ACFDT corr.  =        -0.00000000  see jH, gK, PRB 81, 115126


--------------------------------------------------------------------------------------------------------




--------------------------------------- Iteration      1(  11)  ---------------------------------------


    POTLOK:  cpu time    1.2590: real time    1.2591
    SETDIJ:  cpu time    2.0888: real time    2.0888
    TRIAL :  cpu time   61.6467: real time   61.6523
    CORREC:  cpu time    0.0006: real time    0.0009
    CHARGE:  cpu time    0.1691: real time    0.1691
    --------------------------------------------
      LOOP:  cpu time   65.1665: real time   65.1725

 eigenvalue-minimisations  :     0
 total energy-change (2. order) :-0.1620562E+00  (-0.1157896E+00)
 number of electron     245.0000041 magnetization       3.0000003
 augmentation part       16.4010943 magnetization       2.2208102

 DIPCOR: dipole corrections for dipol
 direction  3 min pos     1,
 dipolmoment           0.000000      0.000000      0.000881 electrons x Angstroem
 Tr[quadrupol]     -6636.091309

 energy correction for charged system         0.000000 eV
 dipol+quadrupol energy correction            0.000000 eV
 added-field ion interaction          0.000000 eV  (added to PSCEN)


 Free energy of the ion-electron system (eV)
  ---------------------------------------------------
  alpha Z        PSCENC =       100.63779079
  Ewald energy   TEWEN  =     38072.77838420
  -Hartree energ DENC   =    -47012.60010658
  -exchange      EXHF   =       555.19817244
  -V(xc)+E(xc)   XCENC  =       635.01561156
  PAW double counting   =     26941.57274223   -27078.32061969
  entropy T*S    EENTRO =        -0.00000000
  eigenvalues    EBANDS =     -3164.61827567
  atomic energy  EATOM  =     10352.23585582
  ---------------------------------------------------
  free energy    TOTEN  =      -598.10044489 eV

  energy without entropy =     -598.10044489  energy(sigma->0) =     -598.10044489
  exchange ACFDT corr.  =        -0.00000000  see jH, gK, PRB 81, 115126


--------------------------------------------------------------------------------------------------------




--------------------------------------- Iteration      1(  12)  ---------------------------------------


    POTLOK:  cpu time    1.2539: real time    1.2540
    SETDIJ:  cpu time    2.0813: real time    2.0813
    TRIAL :  cpu time   61.5270: real time   61.5271
    CORREC:  cpu time    0.0006: real time    0.0009
    CHARGE:  cpu time    0.1687: real time    0.1687
    --------------------------------------------
      LOOP:  cpu time   65.0337: real time   65.0341

 eigenvalue-minimisations  :     0
 total energy-change (2. order) :-0.9957586E-01  (-0.7163779E-01)
 number of electron     245.0000041 magnetization       3.0000003
 augmentation part       16.4015720 magnetization       2.2230467

 DIPCOR: dipole corrections for dipol
 direction  3 min pos     1,
 dipolmoment           0.000000      0.000000      0.000905 electrons x Angstroem
 Tr[quadrupol]     -6636.092634

 energy correction for charged system         0.000000 eV
 dipol+quadrupol energy correction            0.000000 eV
 added-field ion interaction          0.000000 eV  (added to PSCEN)


 Free energy of the ion-electron system (eV)
  ---------------------------------------------------
  alpha Z        PSCENC =       100.63779079
  Ewald energy   TEWEN  =     38072.77838420
  -Hartree energ DENC   =    -47012.68508947
  -exchange      EXHF   =       555.22359385
  -V(xc)+E(xc)   XCENC  =       635.02444505
  PAW double counting   =     26951.81186329   -27088.64023211
  entropy T*S    EENTRO =        -0.00000000
  eigenvalues    EBANDS =     -3164.58663218
  atomic energy  EATOM  =     10352.23585582
  ---------------------------------------------------
  free energy    TOTEN  =      -598.20002075 eV

  energy without entropy =     -598.20002075  energy(sigma->0) =     -598.20002075
  exchange ACFDT corr.  =        -0.00000000  see jH, gK, PRB 81, 115126


--------------------------------------------------------------------------------------------------------




--------------------------------------- Iteration      1(  13)  ---------------------------------------


    POTLOK:  cpu time    1.2569: real time    1.2569
    SETDIJ:  cpu time    2.0848: real time    2.0849
    TRIAL :  cpu time   61.4394: real time   61.4395
    CORREC:  cpu time    0.0006: real time    0.0006
    CHARGE:  cpu time    0.1686: real time    0.1689
    --------------------------------------------
      LOOP:  cpu time   64.9526: real time   64.9530

 eigenvalue-minimisations  :     0
 total energy-change (2. order) :-0.6212991E-01  (-0.4500040E-01)
 number of electron     245.0000041 magnetization       3.0000003
 augmentation part       16.4017898 magnetization       2.2251257

 DIPCOR: dipole corrections for dipol
 direction  3 min pos     1,
 dipolmoment           0.000000      0.000000      0.000920 electrons x Angstroem
 Tr[quadrupol]     -6636.096627

 energy correction for charged system         0.000000 eV
 dipol+quadrupol energy correction            0.000000 eV
 added-field ion interaction          0.000000 eV  (added to PSCEN)


 Free energy of the ion-electron system (eV)
  ---------------------------------------------------
  alpha Z        PSCENC =       100.63779079
  Ewald energy   TEWEN  =     38072.77838420
  -Hartree energ DENC   =    -47012.76514654
  -exchange      EXHF   =       555.24600375
  -V(xc)+E(xc)   XCENC  =       635.02973880
  PAW double counting   =     26959.16654108   -27095.98975638
  entropy T*S    EENTRO =        -0.00000000
  eigenvalues    EBANDS =     -3164.60156219
  atomic energy  EATOM  =     10352.23585582
  ---------------------------------------------------
  free energy    TOTEN  =      -598.26215065 eV

  energy without entropy =     -598.26215065  energy(sigma->0) =     -598.26215065
  exchange ACFDT corr.  =        -0.00000000  see jH, gK, PRB 81, 115126


--------------------------------------------------------------------------------------------------------




--------------------------------------- Iteration      1(  14)  ---------------------------------------


    POTLOK:  cpu time    1.2470: real time    1.2470
    SETDIJ:  cpu time    2.0772: real time    2.0790
    TRIAL :  cpu time   61.4538: real time   61.4546
    CORREC:  cpu time    0.0006: real time    0.0009
    CHARGE:  cpu time    0.1687: real time    0.1687
    --------------------------------------------
      LOOP:  cpu time   64.9499: real time   64.9528

 eigenvalue-minimisations  :     0
 total energy-change (2. order) :-0.3940888E-01  (-0.2879026E-01)
 number of electron     245.0000041 magnetization       3.0000003
 augmentation part       16.4031459 magnetization       2.2271181

 DIPCOR: dipole corrections for dipol
 direction  3 min pos     1,
 dipolmoment           0.000000      0.000000      0.000929 electrons x Angstroem
 Tr[quadrupol]     -6636.100712

 energy correction for charged system         0.000000 eV
 dipol+quadrupol energy correction            0.000000 eV
 added-field ion interaction          0.000000 eV  (added to PSCEN)


 Free energy of the ion-electron system (eV)
  ---------------------------------------------------
  alpha Z        PSCENC =       100.63779080
  Ewald energy   TEWEN  =     38072.77838420
  -Hartree energ DENC   =    -47012.88583983
  -exchange      EXHF   =       555.26744976
  -V(xc)+E(xc)   XCENC  =       635.03515941
  PAW double counting   =     26964.08860376   -27100.89735776
  entropy T*S    EENTRO =        -0.00000000
  eigenvalues    EBANDS =     -3164.56160568
  atomic energy  EATOM  =     10352.23585582
  ---------------------------------------------------
  free energy    TOTEN  =      -598.30155953 eV

  energy without entropy =     -598.30155953  energy(sigma->0) =     -598.30155953
  exchange ACFDT corr.  =        -0.00000000  see jH, gK, PRB 81, 115126


--------------------------------------------------------------------------------------------------------




--------------------------------------- Iteration      1(  15)  ---------------------------------------


    POTLOK:  cpu time    1.2438: real time    1.2437
    SETDIJ:  cpu time    2.0829: real time    2.0829
    TRIAL :  cpu time   61.3757: real time   61.3760
    CORREC:  cpu time    0.0005: real time    0.0005
    CHARGE:  cpu time    0.1688: real time    0.1690
    --------------------------------------------
      LOOP:  cpu time   64.8740: real time   64.8744

 eigenvalue-minimisations  :     0
 total energy-change (2. order) :-0.2552636E-01  (-0.1905556E-01)
 number of electron     245.0000041 magnetization       3.0000003
 augmentation part       16.4035037 magnetization       2.2288120

 DIPCOR: dipole corrections for dipol
 direction  3 min pos     1,
 dipolmoment           0.000000      0.000000      0.000937 electrons x Angstroem
 Tr[quadrupol]     -6636.103868

 energy correction for charged system         0.000000 eV
 dipol+quadrupol energy correction            0.000000 eV
 added-field ion interaction          0.000000 eV  (added to PSCEN)


 Free energy of the ion-electron system (eV)
  ---------------------------------------------------
  alpha Z        PSCENC =       100.63779080
  Ewald energy   TEWEN  =     38072.77838420
  -Hartree energ DENC   =    -47013.12403374
  -exchange      EXHF   =       555.28961424
  -V(xc)+E(xc)   XCENC  =       635.04435637
  PAW double counting   =     26967.01431835   -27103.86114412
  entropy T*S    EENTRO =        -0.00000000
  eigenvalues    EBANDS =     -3164.34222781
  atomic energy  EATOM  =     10352.23585582
  ---------------------------------------------------
  free energy    TOTEN  =      -598.32708589 eV

  energy without entropy =     -598.32708589  energy(sigma->0) =     -598.32708589
  exchange ACFDT corr.  =        -0.00000000  see jH, gK, PRB 81, 115126


--------------------------------------------------------------------------------------------------------




--------------------------------------- Iteration      1(  16)  ---------------------------------------


    POTLOK:  cpu time    1.2404: real time    1.2405
    SETDIJ:  cpu time    2.0809: real time    2.0808
    TRIAL :  cpu time   61.4087: real time   61.4177
    CORREC:  cpu time    0.0005: real time    0.0005
    CHARGE:  cpu time    0.1690: real time    0.1692
    --------------------------------------------
      LOOP:  cpu time   64.9020: real time   64.9112

 eigenvalue-minimisations  :     0
 total energy-change (2. order) :-0.1707886E-01  (-0.1297095E-01)
 number of electron     245.0000041 magnetization       3.0000003
 augmentation part       16.4030377 magnetization       2.2302173

 DIPCOR: dipole corrections for dipol
 direction  3 min pos     1,
 dipolmoment           0.000000      0.000000      0.000947 electrons x Angstroem
 Tr[quadrupol]     -6636.105141

 energy correction for charged system         0.000000 eV
 dipol+quadrupol energy correction            0.000000 eV
 added-field ion interaction          0.000000 eV  (added to PSCEN)


 Free energy of the ion-electron system (eV)
  ---------------------------------------------------
  alpha Z        PSCENC =       100.63779080
  Ewald energy   TEWEN  =     38072.77838420
  -Hartree energ DENC   =    -47013.21513601
  -exchange      EXHF   =       555.30736744
  -V(xc)+E(xc)   XCENC  =       635.05025779
  PAW double counting   =     26968.33751538   -27105.19691031
  entropy T*S    EENTRO =        -0.00000000
  eigenvalues    EBANDS =     -3164.27928988
  atomic energy  EATOM  =     10352.23585582
  ---------------------------------------------------
  free energy    TOTEN  =      -598.34416475 eV

  energy without entropy =     -598.34416475  energy(sigma->0) =     -598.34416475
  exchange ACFDT corr.  =        -0.00000000  see jH, gK, PRB 81, 115126


--------------------------------------------------------------------------------------------------------




--------------------------------------- Iteration      1(  17)  ---------------------------------------


    POTLOK:  cpu time    1.2406: real time    1.2405
    SETDIJ:  cpu time    2.0802: real time    2.0802
    TRIAL :  cpu time   61.3829: real time   61.3905
    CORREC:  cpu time    0.0005: real time    0.0008
    CHARGE:  cpu time    0.1694: real time    0.1694
    --------------------------------------------
      LOOP:  cpu time   64.8761: real time   64.8840

 eigenvalue-minimisations  :     0
 total energy-change (2. order) :-0.1171565E-01  (-0.8962318E-02)
 number of electron     245.0000041 magnetization       3.0000003
 augmentation part       16.4031172 magnetization       2.2315479

 DIPCOR: dipole corrections for dipol
 direction  3 min pos     1,
 dipolmoment           0.000000      0.000000      0.000951 electrons x Angstroem
 Tr[quadrupol]     -6636.105207

 energy correction for charged system         0.000000 eV
 dipol+quadrupol energy correction            0.000000 eV
 added-field ion interaction          0.000000 eV  (added to PSCEN)


 Free energy of the ion-electron system (eV)
  ---------------------------------------------------
  alpha Z        PSCENC =       100.63779080
  Ewald energy   TEWEN  =     38072.77838420
  -Hartree energ DENC   =    -47013.19239260
  -exchange      EXHF   =       555.32120625
  -V(xc)+E(xc)   XCENC  =       635.05333835
  PAW double counting   =     26968.64730706   -27105.49676617
  entropy T*S    EENTRO =        -0.00000000
  eigenvalues    EBANDS =     -3164.34060411
  atomic energy  EATOM  =     10352.23585582
  ---------------------------------------------------
  free energy    TOTEN  =      -598.35588040 eV

  energy without entropy =     -598.35588040  energy(sigma->0) =     -598.35588040
  exchange ACFDT corr.  =        -0.00000000  see jH, gK, PRB 81, 115126


--------------------------------------------------------------------------------------------------------




--------------------------------------- Iteration      1(  18)  ---------------------------------------


    POTLOK:  cpu time    1.2376: real time    1.2376
    SETDIJ:  cpu time    2.0837: real time    2.0837
    TRIAL :  cpu time   61.4325: real time   61.4326
    CORREC:  cpu time    0.0005: real time    0.0008
    CHARGE:  cpu time    0.1690: real time    0.1690
    --------------------------------------------
      LOOP:  cpu time   64.9255: real time   64.9258

 eigenvalue-minimisations  :     0
 total energy-change (2. order) :-0.8152804E-02  (-0.6301817E-02)
 number of electron     245.0000041 magnetization       3.0000003
 augmentation part       16.4031613 magnetization       2.2328061

 DIPCOR: dipole corrections for dipol
 direction  3 min pos     1,
 dipolmoment           0.000000      0.000000      0.000951 electrons x Angstroem
 Tr[quadrupol]     -6636.105335

 energy correction for charged system         0.000000 eV
 dipol+quadrupol energy correction            0.000000 eV
 added-field ion interaction          0.000000 eV  (added to PSCEN)


 Free energy of the ion-electron system (eV)
  ---------------------------------------------------
  alpha Z        PSCENC =       100.63779080
  Ewald energy   TEWEN  =     38072.77838420
  -Hartree energ DENC   =    -47013.22921105
  -exchange      EXHF   =       555.33442444
  -V(xc)+E(xc)   XCENC  =       635.05788071
  PAW double counting   =     26968.51711169   -27105.37899872
  entropy T*S    EENTRO =        -0.00000000
  eigenvalues    EBANDS =     -3164.31727109
  atomic energy  EATOM  =     10352.23585582
  ---------------------------------------------------
  free energy    TOTEN  =      -598.36403320 eV

  energy without entropy =     -598.36403320  energy(sigma->0) =     -598.36403320
  exchange ACFDT corr.  =        -0.00000000  see jH, gK, PRB 81, 115126


[...]
  augment   101.45649    97.06889   110.58894     1.83793     0.03501     0.03150
  Kinetic  3556.69463  3547.63039  4006.60960     2.70259     0.05778     0.14884
  Fock     -395.56575  -390.83982  -382.70662    -1.75876    -0.03079     0.00610
  -------------------------------------------------------------------------------------
  Total     -49.93876   -36.84048    -0.31443    -0.35464     0.01267     0.02254
  in kB     -25.18533   -18.57955    -0.15857    -0.17885     0.00639     0.01137
  external pressure =      -14.64 kB  Pullay stress =        0.00 kB


 VOLUME and BASIS-vectors are now :
 -----------------------------------------------------------------------------
  energy-cutoff  :      500.00
  volume of cell :     3176.88
      direct lattice vectors                 reciprocal lattice vectors
    13.061200000  0.000000000  0.000000000     0.076562644 -0.000024988 -0.000015499
     0.004027226 12.339199343  0.000000000     0.000000000  0.081042535 -0.000006360
     0.003990856  0.001546874 19.711999535     0.000000000  0.000000000  0.050730521

  length of vectors
    13.061200000 12.339200000 19.712000000     0.076562649  0.081042536  0.050730521


 FORCES acting on ions:
    Electron-Ion                     Ewald-Force                    Non-Local-Force
 -----------------------------------------------------------------------------------------------
   0.142E+01 0.589E+01 -.114E+00   -.842E+00 -.598E+01 0.118E+00   -.343E+00 0.123E+00 -.506E-02
   0.286E+00 0.568E+01 -.385E+00   -.480E+00 -.602E+01 0.386E+00   -.187E-01 0.965E-01 -.914E-04
   -.116E+02 0.302E+01 -.221E+00   0.116E+02 -.313E+01 0.215E+00   -.210E+00 0.771E-01 0.561E-02
   -.156E+01 0.998E+01 0.538E+00   0.222E+01 -.999E+01 -.545E+00   -.402E+00 -.240E+00 0.887E-02
   0.408E+01 0.252E+02 0.570E+00   -.371E+01 -.249E+02 -.566E+00   -.545E+00 0.939E-01 -.190E-02
   0.679E+01 0.140E+02 -.963E+00   -.698E+01 -.140E+02 0.963E+00   -.355E-01 0.469E-01 0.858E-03
   -.302E+01 0.107E+02 -.237E+00   0.345E+01 -.107E+02 0.238E+00   -.188E+00 0.713E-01 -.208E-02
   0.325E+02 0.504E+01 -.322E+00   -.323E+02 -.566E+01 0.324E+00   -.547E+00 0.255E+00 -.436E-03
   0.208E+01 -.187E+01 -.196E+01   -.240E+01 0.206E+01 0.196E+01   -.615E-01 -.202E+00 -.484E-02
   0.141E+02 -.524E+00 -.146E+01   -.140E+02 0.630E+00 0.146E+01   0.168E+00 -.780E-01 -.864E-02
   0.646E+02 -.180E+02 0.824E+00   -.657E+02 0.185E+02 -.839E+00   0.214E+01 -.423E+00 0.245E-02
   0.126E+02 -.191E+02 -.620E+00   -.121E+02 0.209E+02 0.614E+00   -.667E+00 -.129E+01 0.133E-02
   0.192E+01 -.153E+02 -.144E+01   -.201E+01 0.155E+02 0.144E+01   -.118E+00 -.133E+00 -.187E-02
   0.105E+02 -.561E+01 -.186E+01   -.101E+02 0.575E+01 0.186E+01   -.233E+00 -.123E+00 -.548E-02
   -.122E+02 -.149E+02 -.338E+00   0.127E+02 0.134E+02 0.344E+00   -.742E+00 0.899E+00 -.896E-02
   -.170E+01 -.247E+01 -.627E+00   0.170E+01 0.248E+01 0.629E+00   -.159E+00 0.222E+00 -.168E-02
   -.701E+01 -.695E+01 -.840E+00   0.793E+01 0.669E+01 0.842E+00   -.666E+00 0.412E-01 -.214E-02
   -.770E+01 0.645E+01 -.143E+00   0.844E+01 -.703E+01 0.131E+00   -.472E+00 0.885E+00 0.875E-02
   0.760E+01 0.780E+01 -.668E+00   -.787E+01 -.796E+01 0.664E+00   0.417E+00 0.179E+00 0.243E-02
   0.133E+02 0.156E+02 0.370E+00   -.132E+02 -.159E+02 -.368E+00   -.168E+00 -.174E+00 -.884E-03
   0.842E+01 0.854E+01 -.307E+00   -.901E+01 -.886E+01 0.310E+00   0.318E+00 0.364E+00 -.355E-02
   -.373E+01 0.998E+01 -.509E+00   0.383E+01 -.104E+02 0.512E+00   0.105E+00 0.165E+00 -.425E-02
   -.169E+02 0.256E+02 0.248E+00   0.158E+02 -.260E+02 -.247E+00   0.723E+00 0.379E+00 -.475E-03
   -.354E+02 0.404E+02 0.305E+00   0.370E+02 -.432E+02 -.291E+00   -.143E+01 0.300E+01 -.113E-01
   -.255E+01 -.371E+02 0.509E+00   0.369E+01 0.419E+02 -.499E+00   -.875E+00 -.467E+01 -.790E-02
   0.246E+01 -.928E+01 -.330E+00   -.321E+01 0.786E+01 0.333E+00   0.842E+00 0.102E+01 -.418E-02
   -.602E+00 -.245E+00 -.626E+00   -.840E+00 -.420E+00 0.621E+00   0.865E+00 0.601E+00 0.297E-02
   0.121E+02 0.711E+01 -.288E+00   -.116E+02 -.788E+01 0.287E+00   -.578E+00 0.979E+00 0.688E-04
   0.104E+01 -.924E+00 -.101E+01   -.121E+01 0.662E+00 0.101E+01   0.375E+00 0.521E+00 -.580E-02
   0.224E+01 0.178E+01 -.751E+00   -.229E+01 -.172E+01 0.749E+00   0.650E-02 0.138E-01 0.180E-02
   0.371E+00 0.590E+01 -.684E+00   -.691E+00 -.631E+01 0.680E+00   0.763E-01 0.205E+00 0.362E-02
   -.600E+01 0.217E+01 -.967E+00   0.596E+01 -.228E+01 0.970E+00   0.550E-01 0.729E-01 -.601E-02
   -.671E+01 0.191E+01 -.725E+00   0.691E+01 -.211E+01 0.727E+00   -.496E-01 0.358E-01 -.338E-02
   -.144E+01 0.818E+01 -.880E+00   0.128E+01 -.817E+01 0.878E+00   -.684E-01 0.160E+00 0.493E-04
   -.125E+02 0.103E+02 -.357E+00   0.130E+02 -.106E+02 0.360E+00   -.551E+00 0.129E+00 -.217E-02
   -.490E+01 0.629E+01 -.759E+00   0.514E+01 -.644E+01 0.761E+00   0.287E-01 0.374E+00 -.504E-02
   -.123E+01 0.342E+01 -.112E+01   0.123E+01 -.346E+01 0.112E+01   0.138E+00 -.237E-01 -.124E-02
   -.124E+01 0.125E+01 -.124E+01   0.115E+01 -.129E+01 0.125E+01   -.227E+00 -.464E-01 -.336E-02
   -.408E+01 -.118E+02 -.199E+00   0.368E+01 0.122E+02 0.201E+00   0.266E+00 -.390E+00 0.570E-03
   -.901E+01 -.357E+01 -.620E+00   0.939E+01 0.401E+01 0.619E+00   -.756E-01 -.306E+00 -.239E-03
   0.728E+01 -.245E+01 -.157E+01   -.692E+01 0.261E+01 0.158E+01   0.811E-01 -.144E+00 -.251E-02
   0.427E+00 -.505E+01 -.119E+01   -.750E+00 0.530E+01 0.119E+01   0.111E+00 -.147E+00 -.163E-02
   -.180E+00 -.690E+01 -.532E+00   -.634E+00 0.705E+01 0.534E+00   0.706E+00 0.142E-01 -.135E-03
   0.711E+00 -.160E+01 -.579E+00   -.728E+00 0.178E+01 0.576E+00   0.212E+00 -.272E+00 0.239E-02
   0.513E+00 -.338E+01 -.113E+01   -.352E+00 0.334E+01 0.113E+01   0.179E-01 0.897E-02 0.267E-02
   -.934E+00 -.652E+01 -.849E+00   0.559E+00 0.632E+01 0.849E+00   0.701E-01 0.320E-01 -.451E-03
   0.256E+01 0.186E+01 -.928E+00   -.295E+01 -.170E+01 0.925E+00   0.155E+00 0.112E+00 0.188E-02
   0.135E+01 -.273E+01 -.794E+00   -.128E+01 0.227E+01 0.798E+00   0.198E+00 0.941E-01 -.313E-02
   -.596E+01 0.913E+00 -.725E+00   0.619E+01 -.868E+00 0.728E+00   -.576E-01 0.755E-01 -.134E-02
   0.734E+01 0.468E+02 0.147E+01   -.467E+01 -.468E+02 -.152E+01   -.281E+01 0.956E-02 0.501E-01
   -.345E+02 -.397E+02 0.133E+01   0.425E+02 0.394E+02 -.144E+01   -.834E+01 0.416E+00 0.105E+00
   0.241E+02 0.380E+02 0.612E+00   -.260E+02 -.348E+02 -.622E+00   0.222E+01 -.287E+01 0.131E-01
   0.270E+02 0.587E+01 0.713E+00   -.363E+02 -.516E+01 -.763E+00   0.948E+01 -.405E+00 0.470E-01
   0.328E+02 0.753E+01 -.459E+00   -.358E+02 -.136E+02 0.446E+00   0.363E+01 0.597E+01 0.961E-02
   0.391E+01 -.489E+02 0.151E+01   -.245E+02 0.507E+02 -.161E+01   0.194E+02 -.190E+01 0.100E+00
   -.758E+02 -.572E+02 0.840E+01   0.966E+02 0.577E+02 -.878E+01   -.202E+02 -.106E+01 0.368E+00
   -.209E+02 0.241E+02 0.814E+01   0.162E+02 -.262E+02 -.811E+01   0.489E+01 0.252E+01 -.295E-01
   -.234E+02 -.498E+02 0.619E+01   0.232E+02 0.503E+02 -.612E+01   -.189E+00 -.830E+00 -.658E-01
 -----------------------------------------------------------------------------------------------
   -.658E+01 -.456E+01 -.590E+00   -.107E-12 -.853E-13 0.622E-14   0.663E+01 0.452E+01 0.532E+00
 
 
 POSITION                                       TOTAL-FORCE (eV/Angst)
 -----------------------------------------------------------------------------------
      2.94440     12.33812      9.85206         0.227577      0.040130     -0.001669
      0.73957      1.22729      9.85521        -0.206319     -0.231456      0.000604
      1.47867     12.33899      9.85442        -0.223897     -0.022830      0.000787
      3.65601      1.24790      9.84890         0.237540     -0.265860      0.003017
      2.90827      2.48897      9.84831        -0.195388      0.408685      0.002396
      0.68303      3.68094      9.85659        -0.222020      0.004457      0.000892
      1.45103      2.46911      9.85344         0.230019      0.147992     -0.001164
      2.76239      4.91881      9.84871        -0.342264     -0.356759      0.000753
      0.64309      6.16741      9.85975        -0.398285     -0.013147     -0.003837
      1.34917      4.92411      9.85639         0.364131      0.014387     -0.006097
      3.45308      6.17099      9.84240         1.271947      0.073045     -0.012944
      2.74910      7.41935      9.85048        -0.216846      0.441241     -0.004322
      0.67786      8.65462      9.85896        -0.214499      0.069127     -0.002562
      1.34423      7.40997      9.85817         0.256097      0.015618     -0.005799
      2.89630      9.84560      9.85225        -0.269067     -0.535256     -0.004044
      0.73796     11.11370      9.85659        -0.160464      0.247620      0.000175
      1.44770      9.87139      9.85639         0.223474     -0.221461     -0.000386
      3.65974     11.08397      9.85186         0.240720      0.356779     -0.002508
      7.27813      0.00941      9.85423         0.182429      0.032839     -0.002120
      5.11757      1.27603      9.84851        -0.132006     -0.396900      0.001249
      5.83265      0.00867      9.85186        -0.263730      0.070383     -0.000713
      8.01453      1.23506      9.85363         0.210713     -0.253827     -0.001599
      7.29382      2.47515      9.84890        -0.449140      0.013477      0.000703
      8.04173      3.73153      9.84851         0.085172      0.437475      0.002390
      7.99484      6.14076      9.84752         0.216087     -0.096344      0.001231
      8.04554      8.61674      9.85206         0.132972     -0.358615     -0.001348
      7.31401      9.88842      9.85324        -0.543425     -0.030307     -0.001342
      5.12495     11.08100      9.85166        -0.047350      0.251917     -0.001482
      8.02612     11.12049      9.85600         0.221342      0.278620     -0.003384
     11.62908      0.00225      9.85797        -0.037821      0.070545      0.000123
      9.45204      1.22729      9.85620        -0.235259     -0.193888      0.000212
     10.18346      0.00349      9.85797         0.008843     -0.026946     -0.003010
     12.35450      1.22803      9.85738         0.135229     -0.164839     -0.001415
     11.60754      2.45245      9.85777        -0.232479      0.190764     -0.001880
      9.46891      3.69797      9.85363        -0.150818     -0.111264      0.000853
     10.17643      2.45677      9.85639         0.266334      0.241122     -0.003195
     12.31038      3.68736      9.85837         0.140632     -0.067482     -0.001141
     11.59803      4.92436      9.85876        -0.330998     -0.087471     -0.002773
      9.44268      6.15828      9.85304        -0.123666     -0.027416      0.002598
     10.17097      4.93152      9.85541         0.295749      0.122518     -0.001381
     12.29538      6.16791      9.86014         0.455020      0.013168     -0.001063
     11.59048      7.40923      9.85915        -0.209659      0.091280     -0.001487
      9.46922      8.64167      9.85541        -0.078753      0.163833      0.002486
     10.16302      7.40059      9.85600         0.208912     -0.098739      0.000090
     12.30873      8.64833      9.85935         0.181317     -0.023212      0.001945
     11.61075      9.88694      9.85856        -0.301561     -0.174370     -0.000961
      9.46115     11.11765      9.85758        -0.216357      0.282277     -0.001216
     10.18303      9.88250      9.85758         0.277360     -0.356561      0.000341
     12.35551     11.11383      9.85797         0.166288      0.128385      0.000913
      3.53980      3.75534      9.84358        -0.306757     -0.003134      0.006256
      3.54764      8.57504      9.84575        -0.793938      0.149770      0.004372
      5.87943      2.48330      9.84575         0.428086      0.193886      0.003796
      7.30640      7.39985      9.84634         0.684122      0.298553     -0.000678
      5.89111      9.86868      9.85068         0.819919      0.211345     -0.003015
      7.33981      4.89524      9.84417         0.463466     -0.248859      0.004675
      4.76586      6.17975      9.82821        -1.185717     -0.671723      0.014607
      5.38162      4.34627      9.83629        -0.056539      0.013109      0.008729
      5.42761      7.98362      9.83708        -0.486476     -0.035679      0.014340
 -----------------------------------------------------------------------------------
    total drift:                                0.006794      0.002738     -0.003935


--------------------------------------------------------------------------------------------------------



  FREE ENERGIE OF THE ION-ELECTRON SYSTEM (eV)
  ---------------------------------------------------
  free  energy   TOTEN  =      -598.39907006 eV

  energy  without entropy=     -598.39907006  energy(sigma->0) =     -598.39907006
 


--------------------------------------------------------------------------------------------------------


    POTLOK:  cpu time    3.3132: real time    3.3131


--------------------------------------------------------------------------------------------------------


 stress matrix after NEB project (eV)
    -49.93876     -0.35222      0.02254
     -0.35464    -36.84048      0.01275
      0.02225      0.01267     -0.31443
  FORCES: max atom, RMS     1.362846    0.446095
  FORCE total and by dimension    3.397361    1.271947
  Stress total and by dimension   62.060059   49.938761
 writing wavefunctions
     LOOP+:  cpu time 5617.1183: real time 5617.6293
    4ORBIT:  cpu time    0.0000: real time    0.0000
 


 total charge     
 
# of ion       s       p       d       tot
------------------------------------------
    1        0.856   1.727   0.000   2.583
    2        0.862   1.755   0.000   2.617
    3        0.860   1.738   0.000   2.598
    4        0.858   1.720   0.000   2.578
    5        0.859   1.739   0.000   2.598
    6        0.867   1.775   0.000   2.642
    7        0.863   1.734   0.000   2.597
    8        0.884   1.800   0.000   2.684
    9        0.868   1.787   0.000   2.655
   10        0.874   1.787   0.000   2.661
   11        0.896   1.760   0.000   2.656
   12        0.883   1.803   0.000   2.686
   13        0.867   1.773   0.000   2.640
   14        0.876   1.794   0.000   2.670
   15        0.859   1.733   0.000   2.591
   16        0.863   1.754   0.000   2.618
   17        0.863   1.742   0.000   2.604
   18        0.861   1.702   0.000   2.563
   19        0.862   1.751   0.000   2.613
   20        0.854   1.725   0.000   2.579
   21        0.857   1.720   0.000   2.577
   22        0.864   1.756   0.000   2.620
   23        0.867   1.751   0.000   2.618
   24        0.867   1.724   0.000   2.591
   25        0.852   1.687   0.000   2.539
   26        0.869   1.738   0.000   2.607
   27        0.872   1.738   0.000   2.610
   28        0.854   1.717   0.000   2.572
   29        0.867   1.760   0.000   2.628
   30        0.865   1.762   0.000   2.627
   31        0.864   1.769   0.000   2.633
   32        0.864   1.762   0.000   2.626
   33        0.862   1.758   0.000   2.620
   34        0.866   1.769   0.000   2.634
   35        0.867   1.788   0.000   2.654
   36        0.866   1.764   0.000   2.630
   37        0.867   1.769   0.000   2.636
   38        0.866   1.778   0.000   2.644
   39        0.863   1.758   0.000   2.621
   40        0.870   1.769   0.000   2.640
   41        0.872   1.779   0.000   2.651
   42        0.865   1.770   0.000   2.635
   43        0.869   1.775   0.000   2.644
   44        0.866   1.767   0.000   2.634
   45        0.866   1.769   0.000   2.635
   46        0.866   1.769   0.000   2.635
   47        0.866   1.766   0.000   2.631
   48        0.866   1.764   0.000   2.630
   49        0.864   1.755   0.000   2.619
   50        0.869   1.648   0.000   2.518
   51        0.880   1.666   0.000   2.545
   52        0.865   1.636   0.000   2.502
   53        0.871   1.673   0.000   2.544
   54        0.870   1.665   0.000   2.536
   55        1.232   2.631   0.000   3.864
   56        1.257   2.582   0.000   3.839
   57        0.507   0.545   9.079  10.131
   58        0.522   0.716   6.017   7.256
--------------------------------------------------
tot         50.300 100.813  15.096 166.208
 


 magnetization (x)
 
# of ion       s       p       d       tot
------------------------------------------
    1        0.003   0.027   0.000   0.030
    2        0.002   0.022   0.000   0.023
    3       -0.002  -0.020   0.000  -0.022
    4       -0.005  -0.067   0.000  -0.072
    5        0.002   0.022   0.000   0.024
    6        0.001   0.011   0.000   0.013
    7       -0.002  -0.020   0.000  -0.022
    8        0.001   0.015   0.000   0.016
    9        0.001   0.015   0.000   0.016
   10       -0.002  -0.021   0.000  -0.023
   11        0.000  -0.010   0.000  -0.009
   12        0.002   0.023   0.000   0.025
   13        0.001   0.015   0.000   0.016
   14       -0.002  -0.028   0.000  -0.031
   15        0.003   0.027   0.000   0.030
   16        0.002   0.022   0.000   0.024
   17       -0.003  -0.034   0.000  -0.037
   18       -0.004  -0.061   0.000  -0.066
   19        0.002   0.027   0.000   0.030
   20        0.003   0.034   0.000   0.037
   21       -0.003  -0.023   0.000  -0.026
   22       -0.003  -0.035   0.000  -0.038
   23        0.003   0.038   0.000   0.041
   24       -0.002  -0.018   0.000  -0.019
   25       -0.001  -0.008   0.000  -0.009
   26       -0.000  -0.024   0.000  -0.024
   27        0.007   0.064   0.000   0.071
   28        0.003   0.040   0.000   0.044
   29       -0.003  -0.036   0.000  -0.039
   30        0.002   0.017   0.000   0.019
   31        0.004   0.051   0.000   0.054
   32       -0.002  -0.021   0.000  -0.023
   33       -0.002  -0.026   0.000  -0.028
   34        0.001   0.017   0.000   0.019
   35        0.002   0.025   0.000   0.027
   36       -0.002  -0.024   0.000  -0.026
   37       -0.001  -0.011   0.000  -0.012
   38        0.001   0.017   0.000   0.018
   39        0.001   0.010   0.000   0.010
   40       -0.001  -0.007   0.000  -0.008
   41       -0.001  -0.009   0.000  -0.009
   42        0.001   0.019   0.000   0.020
   43        0.002   0.022   0.000   0.024
   44       -0.001  -0.012   0.000  -0.013
   45       -0.001  -0.015   0.000  -0.017
   46        0.002   0.022   0.000   0.024
   47        0.003   0.047   0.000   0.051
   48       -0.002  -0.028   0.000  -0.030
   49       -0.002  -0.025   0.000  -0.027
   50       -0.002  -0.030   0.000  -0.033
   51       -0.014  -0.070   0.000  -0.084
   52       -0.003  -0.044   0.000  -0.047
   53       -0.003   0.034   0.000   0.030
   54       -0.018  -0.115   0.000  -0.133
   55        0.004   0.079   0.000   0.083
   56       -0.001   0.018   0.000   0.017
   57        0.001   0.000   0.006   0.007
   58        0.062   0.028   2.871   2.960
--------------------------------------------------
tot          0.034  -0.032   2.877   2.879
 

 total amount of memory used by VASP MPI-rank0   132992. kBytes
=======================================================================

   base      :      30000. kBytes
   nonl-proj :       3791. kBytes
   fftplans  :      12931. kBytes
   grid      :      33177. kBytes
   one-center:         62. kBytes
   HF        :         23. kBytes
   nonlr-proj:      14866. kBytes
   wavefun   :      38142. kBytes
 
  
  
 General timing and accounting informations for this job:
 ========================================================
  
                  Total CPU time used (sec):     5664.139
                            User time (sec):     5648.375
                          System time (sec):       15.763
                         Elapsed time (sec):     5665.842
  
                   Maximum memory used (kb):      366864.
                   Average memory used (kb):           0.
  
                          Minor page faults:       436114
                          Major page faults:            0
                 Voluntary context switches:          994
