 vasp.5.4.4.18Apr17-6-g9f103f2a35 (build Feb 25 2019 10:51:38) complex          
  
 executed on             LinuxIFC date 2021.06.15  04:12:15
 running on   48 total cores
 distrk:  each k-point on   16 cores,    3 groups
 distr:  one band on NCORES_PER_BAND=  16 cores,    1 groups


--------------------------------------------------------------------------------------------------------


 INCAR:
 POTCAR:    PAW_PBE C 08Apr2002                   
 POTCAR:    PAW_PBE N 08Apr2002                   
 POTCAR:    PAW_PBE Fe 06Sep2000                  
 POTCAR:    PAW_PBE Cr 06Sep2000                  

 ----------------------------------------------------------------------------- 
|                                                                             |
|           W    W    AA    RRRRR   N    N  II  N    N   GGGG   !!!           |
|           W    W   A  A   R    R  NN   N  II  NN   N  G    G  !!!           |
|           W    W  A    A  R    R  N N  N  II  N N  N  G       !!!           |
|           W WW W  AAAAAA  RRRRR   N  N N  II  N  N N  G  GGG   !            |
|           WW  WW  A    A  R   R   N   NN  II  N   NN  G    G                |
|           W    W  A    A  R    R  N    N  II  N    N   GGGG   !!!           |
|                                                                             |
|      For optimal performance we recommend to set                            |
|        NCORE= 4 - approx SQRT( number of cores)                             |
|      NCORE specifies how many cores store one orbital (NPAR=cpu/NCORE).     |
|      This setting can  greatly improve the performance of VASP for DFT.     |
|      The default,   NCORE=1            might be grossly inefficient         |
|      on modern multi-core architectures or massively parallel machines.     |
|      Do your own testing !!!!                                               |
|      Unfortunately you need to use the default for GW and RPA calculations. |
|      (for HF NCORE is supported but not extensively tested yet)             |
|                                                                             |
 ----------------------------------------------------------------------------- 


 ----------------------------------------------------------------------------- 
|                                                                             |
|           W    W    AA    RRRRR   N    N  II  N    N   GGGG   !!!           |
|           W    W   A  A   R    R  NN   N  II  NN   N  G    G  !!!           |
|           W    W  A    A  R    R  N N  N  II  N N  N  G       !!!           |
|           W WW W  AAAAAA  RRRRR   N  N N  II  N  N N  G  GGG   !            |
|           WW  WW  A    A  R   R   N   NN  II  N   NN  G    G                |
|           W    W  A    A  R    R  N    N  II  N    N   GGGG   !!!           |
|                                                                             |
|      You have enabled k-point parallelism (KPAR>1).                         |
|      This developmental code was originally  written by Paul Kent at ORNL,  |
|      and carefully double checked in Vienna.                                |
|      GW as well as linear response parallelism added by Martijn Marsman     |
|      and Georg Kresse.                                                      |
|      Carefully verify results versus KPAR=1.                                |
|      Report problems to Paul Kent and Vienna.                               |
|                                                                             |
 ----------------------------------------------------------------------------- 

 POTCAR:    PAW_PBE C 08Apr2002                   
   VRHFIN =C: s2p2                                                              
   LEXCH  = PE                                                                  
   EATOM  =   147.1560 eV,   10.8157 Ry                                         
                                                                                
   TITEL  = PAW_PBE C 08Apr2002                                                 
   LULTRA =        F    use ultrasoft PP ?                                      
   IUNSCR =        1    unscreen: 0-lin 1-nonlin 2-no                           
   RPACOR =    1.200    partial core radius                                     
   POMASS =   12.011; ZVAL   =    4.000    mass and valenz                      
   RCORE  =    1.500    outmost cutoff radius                                   
   RWIGS  =    1.630; RWIGS  =    0.863    wigner-seitz radius (au A)           
   ENMAX  =  400.000; ENMIN  =  300.000 eV                                      
   ICORE  =        2    local potential                                         
   LCOR   =        T    correct aug charges                                     
   LPAW   =        T    paw PP                                                  
   EAUG   =  644.873                                                            
   DEXC   =    0.000                                                            
   RMAX   =    1.529    core radius for proj-oper                               
   RAUG   =    1.300    factor for augmentation sphere                          
   RDEP   =    1.501    radius for radial grids                                 
   RDEPT  =    1.300    core radius for aug-charge                              
                                                                                
   Atomic configuration                                                         
    4 entries                                                                   
     n  l   j            E        occ.                                          
     1  0  0.50      -273.3789   2.0000                                         
     2  0  0.50       -13.7508   2.0000                                         
     2  1  0.50        -5.2854   2.0000                                         
     3  2  1.50        -5.4423   0.0000                                         
   Description                                                                  
     l       E           TYP  RCUT    TYP  RCUT                                 
     0    -13.7508458     23  1.200                                             
     0     -8.2022199     23  1.200                                             
     1     -5.2854383     23  1.500                                             
     1     34.0145650     23  1.500                                             
     2     -5.4423304      7  1.500                                             
  local pseudopotential read in
  partial core-charges read in
  partial kinetic energy density read in
  atomic valenz-charges read in
  non local Contribution for L=           0  read in
    real space projection operators read in
  non local Contribution for L=           0  read in
    real space projection operators read in
  non local Contribution for L=           1  read in
    real space projection operators read in
  non local Contribution for L=           1  read in
    real space projection operators read in
    PAW grid and wavefunctions read in
 
   number of l-projection  operators is LMAX  =           4
   number of lm-projection operators is LMMAX =           8
 
 POTCAR:    PAW_PBE N 08Apr2002                   
   VRHFIN =N: s2p3                                                              
   LEXCH  = PE                                                                  
   EATOM  =   264.5486 eV,   19.4438 Ry                                         
                                                                                
   TITEL  = PAW_PBE N 08Apr2002                                                 
   LULTRA =        F    use ultrasoft PP ?                                      
   IUNSCR =        1    unscreen: 0-lin 1-nonlin 2-no                           
   RPACOR =    1.200    partial core radius                                     
   POMASS =   14.001; ZVAL   =    5.000    mass and valenz                      
   RCORE  =    1.500    outmost cutoff radius                                   
   RWIGS  =    1.400; RWIGS  =    0.741    wigner-seitz radius (au A)           
   ENMAX  =  400.000; ENMIN  =  300.000 eV                                      
   ICORE  =        2    local potential                                         
   LCOR   =        T    correct aug charges                                     
   LPAW   =        T    paw PP                                                  
   EAUG   =  627.112                                                            
   DEXC   =    0.000                                                            
   RMAX   =    1.529    core radius for proj-oper                               
   RAUG   =    1.300    factor for augmentation sphere                          
   RDEP   =    1.514    radius for radial grids                                 
   RDEPT  =    1.338    core radius for aug-charge                              
                                                                                
   Atomic configuration                                                         
    4 entries                                                                   
     n  l   j            E        occ.                                          
     1  0  0.50      -384.7179   2.0000                                         
     2  0  0.50       -18.5828   2.0000                                         
     2  1  0.50        -7.0898   3.0000                                         
     3  2  1.50        -6.8029   0.0000                                         
   Description                                                                  
     l       E           TYP  RCUT    TYP  RCUT                                 
     0    -18.5828119     23  1.200                                             
     0    -13.5018863     23  1.200                                             
     1     -7.0897853     23  1.500                                             
     1      9.5240782     23  1.500                                             
     2     -6.8029130      7  1.500                                             
  local pseudopotential read in
  partial core-charges read in
  partial kinetic energy density read in
  atomic valenz-charges read in
  non local Contribution for L=           0  read in
    real space projection operators read in
  non local Contribution for L=           0  read in
    real space projection operators read in
  non local Contribution for L=           1  read in
    real space projection operators read in
  non local Contribution for L=           1  read in
    real space projection operators read in
    PAW grid and wavefunctions read in
 
   number of l-projection  operators is LMAX  =           4
   number of lm-projection operators is LMMAX =           8
 
 POTCAR:    PAW_PBE Fe 06Sep2000                  
   VRHFIN =Fe:  d7 s1                                                           
   LEXCH  = PE                                                                  
   EATOM  =   594.3153 eV,   43.6809 Ry                                         
                                                                                
   TITEL  = PAW_PBE Fe 06Sep2000                                                
   LULTRA =        F    use ultrasoft PP ?                                      
   IUNSCR =        1    unscreen: 0-lin 1-nonlin 2-no                           
   RPACOR =    2.000    partial core radius                                     
   POMASS =   55.847; ZVAL   =    8.000    mass and valenz                      
   RCORE  =    2.300    outmost cutoff radius                                   
   RWIGS  =    2.460; RWIGS  =    1.302    wigner-seitz radius (au A)           
   ENMAX  =  267.882; ENMIN  =  200.911 eV                                      
   RCLOC  =    1.701    cutoff for local pot                                    
   LCOR   =        T    correct aug charges                                     
   LPAW   =        T    paw PP                                                  
   EAUG   =  511.368                                                            
   DEXC   =    0.000                                                            
   RMAX   =    2.356    core radius for proj-oper                               
   RAUG   =    1.300    factor for augmentation sphere                          
   RDEP   =    2.442    radius for radial grids                                 
   RDEPT  =    1.890    core radius for aug-charge                              
                                                                                
   Atomic configuration                                                         
    9 entries                                                                   
     n  l   j            E        occ.                                          
     1  0  0.50     -6993.8440   2.0000                                         
     2  0  0.50      -814.6047   2.0000                                         
     2  1  1.50      -693.3689   6.0000                                         
     3  0  0.50       -89.4732   2.0000                                         
     3  1  1.50       -55.6373   6.0000                                         
     3  2  2.50        -3.8151   7.0000                                         
     4  0  0.50        -4.2551   1.0000                                         
     4  1  1.50        -3.4015   0.0000                                         
     4  3  2.50        -1.3606   0.0000                                         
   Description                                                                  
     l       E           TYP  RCUT    TYP  RCUT                                 
     2     -3.8151135     23  2.300                                             
     2     -5.1756961     23  2.300                                             
     0     -4.2550963     23  2.300                                             
     0      7.2035603     23  2.300                                             
     1     -2.7211652     23  2.300                                             
     1     18.4316424     23  2.300                                             
  local pseudopotential read in
  partial core-charges read in
  partial kinetic energy density read in
  atomic valenz-charges read in
  non local Contribution for L=           2  read in
    real space projection operators read in
  non local Contribution for L=           2  read in
    real space projection operators read in
  non local Contribution for L=           0  read in
    real space projection operators read in
  non local Contribution for L=           0  read in
    real space projection operators read in
  non local Contribution for L=           1  read in
    real space projection operators read in
  non local Contribution for L=           1  read in
    real space projection operators read in
    PAW grid and wavefunctions read in
 
   number of l-projection  operators is LMAX  =           6
   number of lm-projection operators is LMMAX =          18
 
 POTCAR:    PAW_PBE Cr 06Sep2000                  
   VRHFIN =Cr : d5 s1                                                           
   LEXCH  = PE                                                                  
   EATOM  =   276.8859 eV,   20.3505 Ry                                         
                                                                                
   TITEL  = PAW_PBE Cr 06Sep2000                                                
   LULTRA =        F    use ultrasoft PP ?                                      
   IUNSCR =        1    unscreen: 0-lin 1-nonlin 2-no                           
   RPACOR =    2.080    partial core radius                                     
   POMASS =   51.996; ZVAL   =    6.000    mass and valenz                      
   RCORE  =    2.500    outmost cutoff radius                                   
   RWIGS  =    2.500; RWIGS  =    1.323    wigner-seitz radius (au A)           
   ENMAX  =  227.080; ENMIN  =  170.310 eV                                      
   RCLOC  =    1.721    cutoff for local pot                                    
   LCOR   =        T    correct aug charges                                     
   LPAW   =        T    paw PP                                                  
   EAUG   =  402.108                                                            
   DEXC   =    0.000                                                            
   RMAX   =    2.552    core radius for proj-oper                               
   RAUG   =    1.300    factor for augmentation sphere                          
   RDEP   =    2.609    radius for radial grids                                 
   RDEPT  =    2.065    core radius for aug-charge                              
                                                                                
   Atomic configuration                                                         
    9 entries                                                                   
     n  l   j            E        occ.                                          
     1  0  0.50     -5880.4963   2.0000                                         
     2  0  0.50      -667.0865   2.0000                                         
     2  1  1.50      -560.6250   6.0000                                         
     3  0  0.50       -73.9860   2.0000                                         
     3  1  1.50       -45.4378   6.0000                                         
     3  2  2.50        -2.9137   5.0000                                         
     4  0  0.50        -4.0071   1.0000                                         
     4  1  0.50        -1.2789   0.0000                                         
     4  3  2.50        -1.3606   0.0000                                         
   Description                                                                  
     l       E           TYP  RCUT    TYP  RCUT                                 
     2     -2.9136677     23  2.500                                             
     2     -4.2742503     23  2.500                                             
     0     -4.0071322     23  2.500                                             
     0      9.4498801     23  2.500                                             
     1     -5.4423304     23  2.500                                             
     1     27.2116520     23  2.500                                             
  local pseudopotential read in
  partial core-charges read in
  partial kinetic energy density read in
  atomic valenz-charges read in
  non local Contribution for L=           2  read in
    real space projection operators read in
  non local Contribution for L=           2  read in
    real space projection operators read in
  non local Contribution for L=           0  read in
    real space projection operators read in
  non local Contribution for L=           0  read in
    real space projection operators read in
  non local Contribution for L=           1  read in
    real space projection operators read in
  non local Contribution for L=           1  read in
    real space projection operators read in
    PAW grid and wavefunctions read in
 
   number of l-projection  operators is LMAX  =           6
   number of lm-projection operators is LMMAX =          18
 

 ----------------------------------------------------------------------------- 
|                                                                             |
|  ADVICE TO THIS USER RUNNING 'VASP/VAMP'   (HEAR YOUR MASTER'S VOICE ...):  |
|                                                                             |
|      You have a (more or less) 'large supercell' and for larger cells       |
|      it might be more efficient to use real space projection opertators     |
|      So try LREAL= Auto  in the INCAR   file.                               |
|      Mind:          For very  accurate calculation you might also keep the  |
|      reciprocal projection scheme          (i.e. LREAL=.FALSE.)             |
|                                                                             |
 ----------------------------------------------------------------------------- 

  PAW_PBE C 08Apr2002                   :
 energy of atom  1       EATOM= -147.1560
 kinetic energy error for atom=    0.0076 (will be added to EATOM!!)
  PAW_PBE N 08Apr2002                   :
 energy of atom  2       EATOM= -264.5486
 kinetic energy error for atom=    0.0138 (will be added to EATOM!!)
  PAW_PBE Fe 06Sep2000                  :
 energy of atom  3       EATOM= -594.3153
 kinetic energy error for atom=    0.0026 (will be added to EATOM!!)
  PAW_PBE Cr 06Sep2000                  :
 energy of atom  4       EATOM= -276.8859
 kinetic energy error for atom=    0.0012 (will be added to EATOM!!)
 
 
 POSCAR:  C  N Fe Cr                             
  positions in cartesian coordinates
  No initial velocities read in
 exchange correlation table for  LEXCH =        8
   RHO(1)=    0.500       N(1)  =     2000
   RHO(2)=  100.500       N(2)  =     4000

 VTST: version 3.2, (02/03/18)

 CHAIN: initializing optimizer
 
 OPT: Using VASP Conjugate-Gradient optimizer
 CHAIN: Read ICHAIN            0
 
 POSCAR:  C  N Fe Cr                             
  positions in cartesian coordinates
  No initial velocities read in
 


--------------------------------------------------------------------------------------------------------


 ion  position               nearest neighbor table
   1  0.222  0.001  0.492-  19 1.43   3 1.43   4 1.44
   2  0.057  0.101  0.487-   3 1.43  37 1.43   7 1.44
   3  0.111  0.001  0.489-   2 1.43   1 1.43  17 1.43
   4  0.278  0.102  0.492-  21 1.42   1 1.44   5 1.44
   5  0.225  0.204  0.495-   7 1.44   4 1.44   8 1.45
   6  0.057  0.301  0.491-   7 1.43  11 1.43  41 1.43
   7  0.113  0.202  0.491-   6 1.43   5 1.44   2 1.44
   8  0.282  0.305  0.504-   5 1.45  25 1.46   9 1.47
   9  0.222  0.406  0.507-  54 1.39  11 1.44   8 1.47
  10  0.054  0.501  0.497-  14 1.42  45 1.43  11 1.44
  11  0.111  0.402  0.497-   6 1.43   9 1.44  10 1.44
  12  0.218  0.602  0.511-  54 1.39  14 1.43  15 1.44
  13  0.052  0.701  0.495-  14 1.43  18 1.43  49 1.43
  14  0.108  0.602  0.500-  10 1.42  12 1.43  13 1.43
  15  0.272  0.704  0.514-  16 1.42  12 1.44  29 1.45
  16  0.219  0.801  0.500-  15 1.42  18 1.43  19 1.44
  17  0.055  0.900  0.489-  18 1.43  53 1.43   3 1.43
  18  0.109  0.801  0.493-  17 1.43  16 1.43  13 1.43
  19  0.276  0.901  0.498-   1 1.43  31 1.44  16 1.44
  20  0.555  0.998  0.489-  33 1.42  23 1.43  22 1.43
  21  0.389  0.100  0.490-   4 1.42  26 1.43  22 1.43
  22  0.444  1.000  0.491-  31 1.43  20 1.43  21 1.43
  23  0.612  0.097  0.484-  24 1.42  20 1.43  35 1.43
  24  0.557  0.196  0.488-  27 1.41  23 1.42  26 1.43
  25  0.395  0.298  0.506-  55 1.39  26 1.43   8 1.46
  26  0.446  0.198  0.493-  21 1.43  25 1.43  24 1.43
  27  0.614  0.294  0.491-  28 1.41  24 1.41  39 1.42
  28  0.562  0.388  0.511-  56 1.37  55 1.38  27 1.41
  29  0.379  0.714  0.538-  57 1.33  15 1.45  32 1.46
  30  0.556  0.802  0.511-  58 1.39  33 1.43  32 1.45
  31  0.388  0.901  0.500-  22 1.43  32 1.43  19 1.44
  32  0.443  0.804  0.516-  31 1.43  30 1.45  29 1.46
  33  0.610  0.900  0.495-  20 1.42  30 1.43  51 1.43
  34  0.889  0.999  0.484-  53 1.43  36 1.43  37 1.44
  35  0.723  0.098  0.482-  36 1.43  23 1.43  40 1.43
  36  0.778  0.998  0.484-  35 1.43  51 1.43  34 1.43
  37  0.946  0.100  0.483-  38 1.43   2 1.43  34 1.44
  38  0.891  0.199  0.483-  37 1.43  40 1.43  41 1.43
  39  0.724  0.296  0.487-  27 1.42  40 1.42  44 1.43
  40  0.779  0.198  0.482-  39 1.42  38 1.43  35 1.43
  41  0.946  0.300  0.487-  38 1.43   6 1.43  42 1.44
  42  0.889  0.399  0.490-  44 1.42  45 1.43  41 1.44
  43  0.720  0.493  0.506-  56 1.38  44 1.43  48 1.46
  44  0.778  0.397  0.492-  42 1.42  39 1.43  43 1.43
  45  0.942  0.500  0.495-  42 1.43  10 1.43  46 1.44
  46  0.884  0.599  0.498-  49 1.44  45 1.44  48 1.45
  47  0.718  0.702  0.507-  58 1.38  52 1.44  48 1.47
  48  0.772  0.598  0.505-  46 1.45  43 1.46  47 1.47
  49  0.941  0.699  0.494-  50 1.43  13 1.43  46 1.44
  50  0.887  0.799  0.491-  49 1.43  52 1.43  53 1.44
  51  0.721  0.899  0.491-  36 1.43  33 1.43  52 1.43
  52  0.776  0.799  0.495-  50 1.43  51 1.43  47 1.44
  53  0.943  0.899  0.487-  34 1.43  17 1.43  50 1.44
  54  0.270  0.505  0.519-   9 1.39  12 1.39  59 1.89
  55  0.456  0.387  0.524-  28 1.38  25 1.39  59 1.91
  56  0.617  0.482  0.523-  28 1.37  43 1.38  60 1.97
  57  0.413  0.645  0.584-  29 1.33  59 1.86  60 1.88
  58  0.613  0.709  0.522-  47 1.38  30 1.39  60 2.00
  59  0.389  0.498  0.574-  57 1.86  54 1.89  55 1.91  60 2.37
  60  0.549  0.594  0.578-  57 1.88  56 1.97  58 2.00  59 2.37
 
  LATTYP: Found a triclinic cell.
 ALAT       =    12.3992000000
 B/A-ratio  =     1.6073940254
 C/A-ratio  =     1.0369056068
 COS(alpha) =     0.0007382742
 COS(beta)  =     0.0094455815
 COS(gamma) =     0.0105363577
  
  Lattice vectors:
  
 A1 = (  -0.1171176535,  12.3986468655,   0.0000000000)
 A2 = (  -0.0147141002,   0.2098642031, -19.9292896178)
 A3 = ( -12.8568000000,   0.0000000000,   0.0000000000)


Analysis of symmetry for initial positions (statically):
=====================================================================
 Subroutine PRICEL returns:
 Original cell was already a primitive cell.
 

 Routine SETGRP: Setting up the symmetry group for a 
 triclinic supercell.


 Subroutine GETGRP returns: Found  1 space group operations
 (whereof  1 operations were pure point group operations)
 out of a pool of  2 trial point group operations.


The static configuration has the point symmetry C_1 .


Analysis of symmetry for dynamics (positions and initial velocities):
=====================================================================
 Subroutine PRICEL returns:
 Original cell was already a primitive cell.
 

 Routine SETGRP: Setting up the symmetry group for a 
 triclinic supercell.


 Subroutine GETGRP returns: Found  1 space group operations
 (whereof  1 operations were pure point group operations)
 out of a pool of  2 trial point group operations.


The dynamic configuration has the point symmetry C_1 .


Analysis of structural, dynamic, and magnetic symmetry:
=====================================================================
 Subroutine PRICEL returns:
 Original cell was already a primitive cell.
 

 Routine SETGRP: Setting up the symmetry group for a 
 triclinic supercell.


 Subroutine GETGRP returns: Found  1 space group operations
 (whereof  1 operations were pure point group operations)
 out of a pool of  2 trial point group operations.


The magnetic configuration has the point symmetry C_1 .


 Subroutine INISYM returns: Found  1 space group operations
 (whereof  1 operations are pure point group operations),
 and found     1 'primitive' translations

 
 
 KPOINTS: KPOINTS created by Atomic Simulation Env

Automatic generation of k-mesh.
Space group operators:
 irot       det(A)        alpha          n_x          n_y          n_z        tau_x        tau_y        tau_z
    1     1.000000     0.000000     1.000000     0.000000     0.000000     0.000000     0.000000     0.000000
 
 Subroutine IBZKPT returns following result:
 ===========================================
 
 Found      2 irreducible k-points:
 
 Following reciprocal coordinates:
            Coordinates               Weight
  0.250000  0.250000  0.000000      2.000000
 -0.250000  0.250000 -0.000000      2.000000
 
 Following cartesian coordinates:
            Coordinates               Weight
  0.019445  0.020347  0.000200      2.000000
 -0.019445  0.019980  0.000225      2.000000
 
 
 Subroutine IBZKPT_HF returns following result:
 ==============================================
 
 Found      4 k-points in 1st BZ
 the following      4 k-points will be used (e.g. in the exchange kernel)
 Following reciprocal coordinates:   # in IRBZ
  0.250000  0.250000  0.000000    0.25000000   1 t-inv F
 -0.250000  0.250000 -0.000000    0.25000000   2 t-inv F
 -0.250000 -0.250000  0.000000    0.25000000   1 t-inv T
  0.250000 -0.250000  0.000000    0.25000000   2 t-inv T


--------------------------------------------------------------------------------------------------------




 Dimension of arrays:
   k-points           NKPTS =      2   k-points in BZ     NKDIM =      4   number of bands    NBANDS=    160
   number of dos      NEDOS =    301   number of ions     NIONS =     60
   non local maximal  LDIM  =      6   non local SUM 2l+1 LMDIM =     18
   total plane-waves  NPLWV = ******
   max r-space proj   IRMAX =      1   max aug-charges    IRDMAX=  21038
   dimension x,y,z NGX =    96 NGY =   90 NGZ =  150
   dimension x,y,z NGXF=   192 NGYF=  180 NGZF=  300
   support grid    NGXF=   192 NGYF=  180 NGZF=  300
   ions per type =              53   5   1   1
   NGX,Y,Z   is equivalent  to a cutoff of  12.41, 12.07, 12.51 a.u.
   NGXF,Y,Z  is equivalent  to a cutoff of  24.83, 24.13, 25.02 a.u.

 SYSTEM =  unknown system                          
 POSCAR =   C  N Fe Cr                             

 Startparameter for this run:
   NWRITE =      2    write-flag & timer
   PREC   = accura    normal or accurate (medium, high low for compatibility)
   ISTART =      1    job   : 0-new  1-cont  2-samecut
   ICHARG =      0    charge: 1-file 2-atom 10-const
   ISPIN  =      2    spin polarized calculation?
   LNONCOLLINEAR =      F non collinear calculations
   LSORBIT =      F    spin-orbit coupling
   INIWAV =      1    electr: 0-lowe 1-rand  2-diag
   LASPH  =      T    aspherical Exc in radial PAW
   METAGGA=      F    non-selfconsistent MetaGGA calc.

 Electronic Relaxation 1
   ENCUT  =  500.0 eV  36.75 Ry    6.06 a.u.  23.44 22.61 36.34*2*pi/ulx,y,z
   ENINI  =  500.0     initial cutoff
   ENAUG  =  644.9 eV  augmentation charge cutoff
   NELM   =    250;   NELMIN=  2; NELMDL=  0     # of ELM steps 
   EDIFF  = 0.1E-03   stopping-criterion for ELM
   LREAL  =      F    real-space projection
   NLSPLINE    = F    spline interpolate recip. space projectors
   LCOMPAT=      F    compatible to vasp.4.4
   GGA_COMPAT  = T    GGA compatible to vasp.4.4-vasp.4.6
   LMAXPAW     = -100 max onsite density
   LMAXMIX     =    2 max onsite mixed and CHGCAR
   VOSKOWN=      0    Vosko Wilk Nusair interpolation
   ROPT   =    0.00000   0.00000   0.00000   0.00000
 Ionic relaxation
   EDIFFG = -.3E-01   stopping-criterion for IOM
   NSW    =      0    number of steps for IOM
   NBLOCK =      1;   KBLOCK =      1    inner block; outer block 
   IBRION =     -1    ionic relax: 0-MD 1-quasi-New 2-CG
   NFREE  =      1    steps in history (QN), initial steepest desc. (CG)
   ISIF   =      2    stress and relaxation
   IWAVPR =     10    prediction:  0-non 1-charg 2-wave 3-comb
   ISYM   =      3    0-nonsym 1-usesym 2-fastsym
   LCORR  =      T    Harris-Foulkes like correction to forces

   POTIM  = 0.5000    time-step for ionic-motion
   TEIN   =    0.0    initial temperature
   TEBEG  =    0.0;   TEEND  =   0.0 temperature during run
   SMASS  =  -3.00    Nose mass-parameter (am)
   estimated Nose-frequenzy (Omega)   =  0.10E-29 period in steps =****** mass=  -0.378E-26a.u.
   SCALEE = 1.0000    scale energy and forces
   NPACO  =    256;   APACO  = 16.0  distance and # of slots for P.C.
   PSTRESS=    0.0 pullay stress

  Mass of Ions in am
   POMASS =  12.01 14.00 55.85 52.00
  Ionic Valenz
   ZVAL   =   4.00  5.00  8.00  6.00
  Atomic Wigner-Seitz radii
   RWIGS  =  -1.00 -1.00 -1.00 -1.00
  virtual crystal weights 
   VCA    =   1.00  1.00  1.00  1.00
   NELECT =     251.0000    total number of electrons
   NUPDOWN=      -1.0000    fix difference up-down

 DOS related values:
   EMIN   =  10.00;   EMAX   =-10.00  energy-range for DOS
   EFERMI =   0.00
   ISMEAR =     0;   SIGMA  =   0.10  broadening in eV -4-tet -1-fermi 0-gaus

 Electronic relaxation 2 (details)
   IALGO  =     53    algorithm
   LDIAG  =      T    sub-space diagonalisation (order eigenvalues)
   LSUBROT=      F    optimize rotation matrix (better conditioning)
   TURBO    =      0    0=normal 1=particle mesh
   IRESTART =      0    0=no restart 2=restart with 2 vectors
   NREBOOT  =      0    no. of reboots
   NMIN     =      0    reboot dimension
   EREF     =   0.00    reference energy to select bands
   IMIX   =      4    mixing-type and parameters
     AMIX     =   0.40;   BMIX     =  1.00
     AMIX_MAG =   1.60;   BMIX_MAG =  1.00
     AMIN     =   0.10
     WC   =   100.;   INIMIX=   1;  MIXPRE=   1;  MAXMIX= -45

 Intra band minimization:
   WEIMIN = 0.0000     energy-eigenvalue tresh-hold
   EBREAK =  0.16E-06  absolut break condition
   DEPER  =   0.30     relativ break condition  

   TIME   =   0.20     timestep for ELM

  volume/ion in A,a.u.               =      52.95       357.31
  Fermi-wavevector in a.u.,A,eV,Ry     =   0.702479  1.327492  6.714150  0.493476
  Thomas-Fermi vector in A             =   1.787189
 
 Write flags
   LWAVE        =      T    write WAVECAR
   LDOWNSAMPLE  =      F    k-point downsampling of WAVECAR
   LCHARG       =      T    write CHGCAR
   LVTOT        =      F    write LOCPOT, total local potential
   LVHAR        =      F    write LOCPOT, Hartree potential only
   LELF         =      F    write electronic localiz. function (ELF)
   LORBIT       =     11    0 simple, 1 ext, 2 COOP (PROOUT), +10 PAW based schemes


 Dipole corrections
   LMONO  =      F    monopole corrections only (constant potential shift)
   LDIPOL =      T    correct potential (dipole corrections)
   IDIPOL =      3    1-x, 2-y, 3-z, 4-all directions 
   EPSILON=  1.0000000 bulk dielectric constant

 Exchange correlation treatment:
   GGA     =    PE    GGA type
   LEXCH   =     8    internal setting for exchange type
   VOSKOWN=      0    Vosko Wilk Nusair interpolation
   EXXOEP  =     0    0=HF, 1=EXX-LHF (local Hartree Fock) 2=EXX OEP
   LHFCALC =     T    Hartree Fock is set to
   LSYMGRAD=     F    symmetrize gradient (conserves proper symmetry)
   PRECFOCK=normal    Normal, Fast or Accurate (Low or Medium for compatibility)
   LRHFCALC=     F    long range Hartree Fock
   LRSCOR  =     F    long range correlation only (use DFT for short range part)
   LTHOMAS =     F    Thomas Fermi screening in HF
   LMODELHF=     F    short range full HF, long range fraction AEXX
   ENCUT4O =  -1.0   cutoff for four orbital integrals eV
   LMAXFOCK=     4    L truncation for augmentation on plane wave grid
   LMAXFOCKAE=  -1    L truncation for all-electron charge restoration on plane wave grid
   NMAXFOCKAE=   1    number of basis functions for all-electron charge restoration
   LFOCKAEDFT=     F  apply the AE augmentation even for DFT
   NKREDX  =     1    reduce k-point grid by
   NKREDY  =     1    reduce k-point grid by
   NKREDZ  =     1    reduce k-point grid by
   SHIFTRED=     F    shift reduced grid of Gamma
   HFKIDENT=     F    idential grid for each k-point
   ODDONLY =     F    use only odd q-grid points
   EVENONLY=     F    use only even q-grid points
   HFALPHA =   -1.0000 decay constant for conv. correction
   MCALPHA =    0.0000 extent of test-charge in conv. correction in multipole expansion
   AEXX    =    0.2500 exact exchange contribution
   HFSCREEN=    0.2000 screening length (either q_TF or 0.3 A-1)
   HFSCREENC=   0.2000 screening length for correlation (either q_TF or 0.3 A-1)
   HFRCUT  =    0.0000 spherical cutoff for potential kernel
   ALDAX   =    0.7500 LDA exchange part
   AGGAX   =    0.7500 GGA exchange part
   ALDAC   =    1.0000 LDA correlation
   AGGAC   =    1.0000 GGA correlation
   ENCUTFOCK=  -1.0 apply spherical cutoff to Coloumb kernel
   NBANDSGWLOW=     1    first orbital included in HF term
   NBLOCK_FOCK=    64    blocking factor in FOCK_ACC
 Linear response parameters
   LEPSILON=     F    determine dielectric tensor
   LRPA    =     F    only Hartree local field effects (RPA)
   LNABLA  =     F    use nabla operator in PAW spheres
   LVEL    =     F    velocity operator in full k-point grid
   LINTERFAST=   F  fast interpolation
   KINTER  =     0    interpolate to denser k-point grid
   CSHIFT  =0.1000    complex shift for real part using Kramers Kronig
   OMEGAMAX=  -1.0    maximum frequency
   DEG_THRESHOLD= 0.2000000E-02 threshold for treating states as degnerate
   RTIME   =   -0.100 relaxation time in fs
  (WPLASMAI=    0.000 imaginary part of plasma frequency in eV, 0.658/RTIME)
   DFIELD  = 0.0000000 0.0000000 0.0000000 field for delta impulse in time
 
 Orbital magnetization related:
   ORBITALMAG=     F  switch on orbital magnetization
   LCHIMAG   =     F  perturbation theory with respect to B field
   DQ        =  0.001000  dq finite difference perturbation B field
   LLRAUG    =     F  two centre corrections for induced B field



--------------------------------------------------------------------------------------------------------


 Static calculation
 charge density and potential will be updated during run
 spin polarized calculation
 Conjugate gradient for all bands (Freysoldt, et al. PRB 79, 241103 (2009))
 perform sub-space diagonalisation
    before iterative eigenvector-optimisation
 modified Broyden-mixing scheme, WC =      100.0
 initial mixing is a Kerker type mixing with AMIX =  0.4000 and BMIX =      1.0000
 Hartree-type preconditioning will be used
 using additional bands           34
 reciprocal scheme for non local part
 use partial core corrections
 no Harris-corrections to forces 
 use gradient corrections 
 use of overlap-Matrix (Vanderbilt PP)
 Gauss-broadening in eV      SIGMA  =   0.10


--------------------------------------------------------------------------------------------------------


  energy-cutoff  :      500.00
  volume of cell :     3176.87
      direct lattice vectors                 reciprocal lattice vectors
    12.856800000  0.000000000  0.000000000     0.077779852  0.000734709 -0.000049689
    -0.117117654 12.398646865  0.000000000     0.000000000  0.080653963  0.000849322
     0.014714100 -0.209864203 19.929289618     0.000000000  0.000000000  0.050177403

  length of vectors
    12.856800000 12.399200000 19.930400000     0.077783338  0.080658434  0.050177403


 
 old parameters found on file WAVECAR:
  energy-cutoff  :      500.00
  volume of cell :     3176.87
      direct lattice vectors                 reciprocal lattice vectors
    12.856800000  0.000000000  0.000000000     0.077779852  0.000734709 -0.000049689
    -0.117117654 12.398646865  0.000000000     0.000000000  0.080653963  0.000849322
     0.014714100 -0.209864203 19.929289618     0.000000000  0.000000000  0.050177403

  length of vectors

 
 k-points in units of 2pi/SCALE and weight: KPOINTS created by Atomic Simulation Env
   0.01944496  0.02034717  0.00019991       0.500
  -0.01944496  0.01997981  0.00022475       0.500
 
 k-points in reciprocal lattice and weights: KPOINTS created by Atomic Simulation Env
   0.25000000  0.25000000  0.00000000       0.500
  -0.25000000  0.25000000 -0.00000000       0.500
 
 position of ions in fractional coordinates (direct lattice) 
   0.22218591  0.00104912  0.49201449
   0.05725284  0.10095449  0.48666663
   0.11100666  0.00064235  0.48860415
   0.27813199  0.10208620  0.49241996
   0.22498869  0.20410925  0.49505133
   0.05707664  0.30100034  0.49083309
   0.11318431  0.20204838  0.49054644
   0.28181487  0.30493913  0.50377676
   0.22215955  0.40574245  0.50662253
   0.05354344  0.50123738  0.49710227
   0.11129189  0.40215333  0.49731211
   0.21797505  0.60201775  0.51124710
   0.05242343  0.70054813  0.49528260
   0.10814131  0.60162086  0.50012897
   0.27233442  0.70378339  0.51439399
   0.21925516  0.80118652  0.50011988
   0.05450081  0.90044330  0.48854930
   0.10855776  0.80068777  0.49338076
   0.27648266  0.90146262  0.49756666
   0.55477378  0.99826286  0.48867426
   0.38863668  0.09952347  0.49043534
   0.44379368  0.99964159  0.49123879
   0.61168597  0.09706094  0.48377605
   0.55679752  0.19581891  0.48769887
   0.39516940  0.29837497  0.50605979
   0.44595526  0.19842438  0.49270976
   0.61416219  0.29357092  0.49135560
   0.56168434  0.38818573  0.51104115
   0.37871588  0.71385164  0.53841872
   0.55572070  0.80230142  0.51124270
   0.38829843  0.90063617  0.50010542
   0.44321898  0.80418348  0.51576017
   0.61001094  0.89979405  0.49474746
   0.88914398  0.99920285  0.48377565
   0.72278643  0.09775095  0.48194412
   0.77774602  0.99836242  0.48394240
   0.94589467  0.09966226  0.48338175
   0.89071679  0.19910164  0.48304196
   0.72443845  0.29619360  0.48719877
   0.77948704  0.19761263  0.48210770
   0.94570383  0.29997287  0.48682892
   0.88919341  0.39915077  0.49017690
   0.72047234  0.49289683  0.50613071
   0.77843498  0.39713096  0.49233331
   0.94221345  0.50041590  0.49469884
   0.88381914  0.59931089  0.49770552
   0.71762563  0.70202213  0.50705871
   0.77158407  0.59817929  0.50509572
   0.94089883  0.69926666  0.49431832
   0.88673583  0.79917104  0.49100912
   0.72116802  0.89919625  0.49058336
   0.77570116  0.79933920  0.49478776
   0.94325006  0.89937758  0.48685142
   0.26971061  0.50502911  0.51896742
   0.45647101  0.38682426  0.52389328
   0.61679118  0.48182144  0.52306969
   0.41276425  0.64539605  0.58406174
   0.61284066  0.70949728  0.52150271
   0.38898355  0.49807225  0.57402168
   0.54946347  0.59392961  0.57824941
 
 position of ions in cartesian coordinates  (Angst):
   2.86371645 -0.09024855  9.80549936
   0.73142557  1.14956520  9.69892013
   1.43430463 -0.09457625  9.73753358
   3.57117677  1.16238938  9.81358000
   2.87601403  2.42678496  9.86602138
   0.70579261  3.62898869  9.78195480
   1.43874259  2.40217834  9.77624216
   3.59493630  3.67510792 10.03991295
   2.81619585  4.92433542 10.09662719
   0.63700800  6.11034134  9.90689511
   1.39107585  4.88178909  9.91107697
   2.73947731  7.35691306 10.18879142
   0.59923864  8.58190674  9.87063035
   1.32724974  7.35432539  9.96721518
   3.42649262  8.61800887 10.25150688
   2.73244546  9.82867146  9.96703391
   0.60243671 11.06174945  9.73644041
   1.30919040  9.82390191  9.83272811
   3.45642637 11.07249520  9.91615014
   7.02289169 12.27455347  9.73893076
   4.99218447  1.13103152  9.77402793
   5.59591899 12.29110964  9.79004010
   7.86007501  1.10189702  9.64131304
   7.14287653  2.32553894  9.71949211
   5.05311522  3.59324203 10.08541212
   5.71756843  2.35679171  9.81935542
   7.86900790  3.53676424  9.79236808
   7.18351936  4.70572860 10.18468702
   4.79339209  8.73779958 10.73030255
   7.05834873  9.84016050 10.18870383
   4.89415350 11.06171561  9.96674573
   5.61178261  9.86254736 10.27873380
   7.74468667 11.05239892  9.85996546
  11.32164040 12.28723612  9.64130507
   9.28836363  1.11083670  9.60480390
   9.88951990 12.27678093  9.64462819
  12.15661887  1.13423261  9.63345491
  11.43555686  2.36721768  9.62668309
   9.28643940  3.57015421  9.70952546
  10.00565882  2.34895210  9.60806390
  12.13075613  3.61708970  9.70215460
  11.39264680  4.84605888  9.76887747
   9.21268906  6.00503499 10.08682544
   9.96891599  4.82056346  9.81185304
  12.06252135  6.10066047  9.85899651
  11.30021927  7.32619356  9.91891751
   9.15161093  8.59771105 10.10531995
   9.85747676  7.31061223 10.06619898
  12.02232509  8.56622066  9.85141297
  11.31421289  9.80559430  9.78546302
   9.17381974 11.04586082  9.77697794
   9.88669826  9.80688622  9.86076860
  12.02900795 11.04889230  9.70260295
   3.41610368  6.15276492 10.34265195
   5.83116117  4.68615095 10.44082087
   7.88122751  5.86416028 10.42440729
   5.23983407  7.87946402 11.63993563
   7.80374857  8.68736144 10.39317854
   4.95119685  6.05495531 11.43984433
   7.00329069  7.24256963 11.52409995
 


--------------------------------------------------------------------------------------------------------


 k-point  1 :   0.2500 0.2500 0.0000  plane waves:   80642
 k-point  2 :  -0.2500 0.2500-0.0000  plane waves:   80652

 maximum and minimum number of plane-waves per node :      5100     5010

 maximum number of plane-waves:     80652
 maximum index in each direction: 
   IXMAX=   23   IYMAX=   22   IZMAX=   36
   IXMIN=  -23   IYMIN=  -22   IZMIN=  -36


 parallel 3D FFT for wavefunctions:
    minimum data exchange during FFTs selected (reduces bandwidth)
 parallel 3D FFT for charge:
    minimum data exchange during FFTs selected (reduces bandwidth)


 FFT grid for exact exchange (Hartree Fock) 
  NGX = 72; NGY = 70; NGZ =112

 
 Radii for the augmentation spheres in the non-local exchange
 for species   1 augmentation radius   0.874 (default was   0.699)
       energy cutoff for augmentation   2000.0
 for species   2 augmentation radius   0.886 (default was   0.709)
       energy cutoff for augmentation   2000.0
 for species   3 augmentation radius   1.263 (default was   1.010)
       energy cutoff for augmentation   2000.0
 for species   4 augmentation radius   1.424 (default was   1.139)
       energy cutoff for augmentation   2000.0

 real space projection operators:
  total allocation   :       2726.13 KBytes
  max/ min on nodes  :        197.99        138.44

 Maximum index for augmentation-charges in exchange          108
  SETUP_FOCK is finished

 total amount of memory used by VASP MPI-rank0   297229. kBytes
=======================================================================

   base      :      30000. kBytes
   nonl-proj :      10788. kBytes
   fftplans  :      26523. kBytes
   grid      :      69087. kBytes
   one-center:        124. kBytes
   HF        :         23. kBytes
   nonlr-proj:       2476. kBytes
   wavefun   :     158208. kBytes
 
     INWAV:  cpu time    5.9914: real time    8.6673
 Broyden mixing: mesh for mixing (old mesh)
   NGX = 47   NGY = 45   NGZ = 73
  (NGX  =192   NGY  =180   NGZ  =300)
  gives a total of 154395 points

 charge density for first step will be calculated from the start-wavefunctions


--------------------------------------------------------------------------------------------------------


 Maximum index for augmentation-charges         1377 (set IRDMAX)


--------------------------------------------------------------------------------------------------------


 initial charge from wavefunction
 First call to EWALD:  gamma=   0.121
 Maximum number of real-space cells 3x 3x 2
 Maximum number of reciprocal cells 2x 2x 4

    FEWALD:  cpu time    0.0062: real time    0.0062


--------------------------------------- Iteration      1(   1)  ---------------------------------------


    POTLOK:  cpu time    4.6474: real time    4.6510
    SETDIJ:  cpu time    2.6129: real time    2.6147
    TRIAL :  cpu time  539.0766: real time  539.6045
    CORREC:  cpu time    0.0013: real time    0.0013
    CHARGE:  cpu time    1.5120: real time    1.5126
    --------------------------------------------
      LOOP:  cpu time  547.8936: real time  548.4292

 eigenvalue-minimisations  :     0
 total energy-change (2. order) :-0.6305190E+03  (-0.5894453E+00)
 number of electron     251.0000007 magnetization       2.8748860
 augmentation part       12.9206844 magnetization       1.1594628

 DIPCOR: dipole corrections for dipol
 direction  3 min pos     1,
 dipolmoment          -0.000056      0.000796     -0.075601 electrons x Angstroem
 Tr[quadrupol]     -6895.064353

 energy correction for charged system         0.000000 eV
 dipol+quadrupol energy correction            0.000163 eV
 added-field ion interaction          0.000000 eV  (added to PSCEN)


 Free energy of the ion-electron system (eV)
  ---------------------------------------------------
  alpha Z        PSCENC =       106.77767567
  Ewald energy   TEWEN  =     40138.80511009
  -Hartree energ DENC   =    -48660.99400516
  -exchange      EXHF   =       567.11484896
  -V(xc)+E(xc)   XCENC  =       624.82393511
  PAW double counting   =     26875.63909788   -26899.67439206
  entropy T*S    EENTRO =        -0.01618005
  eigenvalues    EBANDS =     -3258.47962787
  atomic energy  EATOM  =      9875.49622477
  ---------------------------------------------------
  free energy    TOTEN  =      -630.51898914 eV

  energy without entropy =     -630.50280909  energy(sigma->0) =     -630.51089912
  exchange ACFDT corr.  =        -0.07000840  see jH, gK, PRB 81, 115126


--------------------------------------------------------------------------------------------------------




--------------------------------------- Iteration      1(   2)  ---------------------------------------


    POTLOK:  cpu time    4.6708: real time    4.6722
    SETDIJ:  cpu time    2.6276: real time    2.6292
    TRIAL :  cpu time  539.5787: real time  540.0897
    CORREC:  cpu time    0.0013: real time    0.0013
    CHARGE:  cpu time    1.5052: real time    1.5058
    --------------------------------------------
      LOOP:  cpu time  548.3879: real time  548.9034

 eigenvalue-minimisations  :     0
 total energy-change (2. order) :-0.4778564E+00  (-0.5363252E+00)
 number of electron     251.0000007 magnetization       2.9585876
 augmentation part       12.8892172 magnetization       1.1969692

 DIPCOR: dipole corrections for dipol
 direction  3 min pos     1,
 dipolmoment           0.000007     -0.000100      0.009470 electrons x Angstroem
 Tr[quadrupol]     -6894.812838

 energy correction for charged system         0.000000 eV
 dipol+quadrupol energy correction            0.000003 eV
 added-field ion interaction          0.000000 eV  (added to PSCEN)


 Free energy of the ion-electron system (eV)
  ---------------------------------------------------
  alpha Z        PSCENC =       106.77751482
  Ewald energy   TEWEN  =     40138.80511009
  -Hartree energ DENC   =    -48647.49153267
  -exchange      EXHF   =       567.13109506
  -V(xc)+E(xc)   XCENC  =       624.49075365
  PAW double counting   =     27015.40438244   -27039.60265986
  entropy T*S    EENTRO =        -0.00674933
  eigenvalues    EBANDS =     -3271.99155379
  atomic energy  EATOM  =      9875.49622477
  ---------------------------------------------------
  free energy    TOTEN  =      -630.99684553 eV

  energy without entropy =     -630.99009619  energy(sigma->0) =     -630.99347086
  exchange ACFDT corr.  =        -0.06661331  see jH, gK, PRB 81, 115126


--------------------------------------------------------------------------------------------------------




--------------------------------------- Iteration      1(   3)  ---------------------------------------


    POTLOK:  cpu time    4.7230: real time    4.7251
    SETDIJ:  cpu time    2.6340: real time    2.6344
    TRIAL :  cpu time  539.2656: real time  539.7775
    CORREC:  cpu time    0.0048: real time    0.0048
    CHARGE:  cpu time    1.5094: real time    1.5211
    --------------------------------------------
      LOOP:  cpu time  548.1381: real time  548.6662

 eigenvalue-minimisations  :     0
 total energy-change (2. order) :-0.3889689E+00  (-0.2915127E+00)
 number of electron     251.0000007 magnetization       2.9864749
 augmentation part       12.8693839 magnetization       1.2109903

 DIPCOR: dipole corrections for dipol
 direction  3 min pos     1,
 dipolmoment           0.000023     -0.000325      0.030842 electrons x Angstroem
 Tr[quadrupol]     -6894.613859

 energy correction for charged system         0.000000 eV
 dipol+quadrupol energy correction            0.000027 eV
 added-field ion interaction          0.000000 eV  (added to PSCEN)


 Free energy of the ion-electron system (eV)
  ---------------------------------------------------
  alpha Z        PSCENC =       106.77753946
  Ewald energy   TEWEN  =     40138.80511009
  -Hartree energ DENC   =    -48631.11948173
  -exchange      EXHF   =       567.17216444
  -V(xc)+E(xc)   XCENC  =       624.11843622
  PAW double counting   =     27184.99006704   -27208.73725083
  entropy T*S    EENTRO =        -0.00265563
  eigenvalues    EBANDS =     -3288.88187455
  atomic energy  EATOM  =      9875.49622477
  ---------------------------------------------------
  free energy    TOTEN  =      -631.38581443 eV

  energy without entropy =     -631.38315881  energy(sigma->0) =     -631.38448662
  exchange ACFDT corr.  =        -0.01833883  see jH, gK, PRB 81, 115126


--------------------------------------------------------------------------------------------------------




--------------------------------------- Iteration      1(   4)  ---------------------------------------


    POTLOK:  cpu time    4.7436: real time    4.7454
    SETDIJ:  cpu time    2.6373: real time    2.6379
    TRIAL :  cpu time  537.8291: real time  538.3282
    CORREC:  cpu time    0.0024: real time    0.0024
    CHARGE:  cpu time    1.4988: real time    1.4994
    --------------------------------------------
      LOOP:  cpu time  546.7166: real time  547.2204

 eigenvalue-minimisations  :     0
 total energy-change (2. order) :-0.2217209E+00  (-0.1774121E+00)
 number of electron     251.0000007 magnetization       2.9961112
 augmentation part       12.8789664 magnetization       1.2223370

 DIPCOR: dipole corrections for dipol
 direction  3 min pos     1,
 dipolmoment           0.000012     -0.000166      0.015753 electrons x Angstroem
 Tr[quadrupol]     -6894.555837

 energy correction for charged system         0.000000 eV
 dipol+quadrupol energy correction            0.000007 eV
 added-field ion interaction          0.000000 eV  (added to PSCEN)


 Free energy of the ion-electron system (eV)
  ---------------------------------------------------
  alpha Z        PSCENC =       106.77751935
  Ewald energy   TEWEN  =     40138.80511009
  -Hartree energ DENC   =    -48623.44861226
  -exchange      EXHF   =       567.36388140
  -V(xc)+E(xc)   XCENC  =       623.96884843
  PAW double counting   =     27326.31516545   -27349.79070348
  entropy T*S    EENTRO =        -0.00089811
  eigenvalues    EBANDS =     -3297.09231350
  atomic energy  EATOM  =      9875.49622477
  ---------------------------------------------------
  free energy    TOTEN  =      -631.60753537 eV

  energy without entropy =     -631.60663726  energy(sigma->0) =     -631.60708632
  exchange ACFDT corr.  =        -0.00580458  see jH, gK, PRB 81, 115126


--------------------------------------------------------------------------------------------------------




--------------------------------------- Iteration      1(   5)  ---------------------------------------


    POTLOK:  cpu time    4.7498: real time    4.7526
    SETDIJ:  cpu time    2.6350: real time    2.6357
    TRIAL :  cpu time  538.2517: real time  538.6812
    CORREC:  cpu time    0.0030: real time    0.0030
    CHARGE:  cpu time    1.4906: real time    1.4910
    --------------------------------------------
      LOOP:  cpu time  547.1341: real time  547.5691

 eigenvalue-minimisations  :     0
 total energy-change (2. order) :-0.1433131E+00  (-0.1161359E+00)
 number of electron     251.0000007 magnetization       2.9989816
 augmentation part       12.8938047 magnetization       1.2338442

 DIPCOR: dipole corrections for dipol
 direction  3 min pos     1,
 dipolmoment          -0.000002      0.000031     -0.002951 electrons x Angstroem
 Tr[quadrupol]     -6894.610713

 energy correction for charged system         0.000000 eV
 dipol+quadrupol energy correction            0.000000 eV
 added-field ion interaction          0.000000 eV  (added to PSCEN)


 Free energy of the ion-electron system (eV)
  ---------------------------------------------------
  alpha Z        PSCENC =       106.77751251
  Ewald energy   TEWEN  =     40138.80511009
  -Hartree energ DENC   =    -48624.98910997
  -exchange      EXHF   =       567.69711404
  -V(xc)+E(xc)   XCENC  =       624.04554151
  PAW double counting   =     27426.06465380   -27449.66989340
  entropy T*S    EENTRO =        -0.00027194
  eigenvalues    EBANDS =     -3295.97710374
  atomic energy  EATOM  =      9875.49622477
  ---------------------------------------------------
  free energy    TOTEN  =      -631.75084850 eV

  energy without entropy =     -631.75057656  energy(sigma->0) =     -631.75071253
  exchange ACFDT corr.  =        -0.00164751  see jH, gK, PRB 81, 115126


--------------------------------------------------------------------------------------------------------




--------------------------------------- Iteration      1(   6)  ---------------------------------------


    POTLOK:  cpu time    4.7225: real time    4.7253
    SETDIJ:  cpu time    2.6448: real time    2.6459
    TRIAL :  cpu time  538.3065: real time  539.2217
    CORREC:  cpu time    0.0010: real time    0.0010
    CHARGE:  cpu time    1.4910: real time    1.4923
    --------------------------------------------
      LOOP:  cpu time  547.1698: real time  548.0920

 eigenvalue-minimisations  :     0
 total energy-change (2. order) :-0.9639356E-01  (-0.7764076E-01)
 number of electron     251.0000007 magnetization       2.9997454
 augmentation part       12.9013052 magnetization       1.2444951

 DIPCOR: dipole corrections for dipol
 direction  3 min pos     1,
 dipolmoment          -0.000012      0.000173     -0.016423 electrons x Angstroem
 Tr[quadrupol]     -6894.699536

 energy correction for charged system         0.000000 eV
 dipol+quadrupol energy correction            0.000008 eV
 added-field ion interaction          0.000000 eV  (added to PSCEN)


 Free energy of the ion-electron system (eV)
  ---------------------------------------------------
  alpha Z        PSCENC =       106.77751997
  Ewald energy   TEWEN  =     40138.80511009
  -Hartree energ DENC   =    -48629.78353715
  -exchange      EXHF   =       568.04463335
  -V(xc)+E(xc)   XCENC  =       624.20614465
  PAW double counting   =     27490.09625740   -27513.87979804
  entropy T*S    EENTRO =        -0.00007765
  eigenvalues    EBANDS =     -3291.60952516
  atomic energy  EATOM  =      9875.49622477
  ---------------------------------------------------
  free energy    TOTEN  =      -631.84724206 eV

  energy without entropy =     -631.84716441  energy(sigma->0) =     -631.84720323
  exchange ACFDT corr.  =        -0.00043263  see jH, gK, PRB 81, 115126


--------------------------------------------------------------------------------------------------------




--------------------------------------- Iteration      1(   7)  ---------------------------------------


    POTLOK:  cpu time    4.7446: real time    4.7458
    SETDIJ:  cpu time    2.5936: real time    2.6046
    TRIAL :  cpu time  538.3263: real time  538.7322
    CORREC:  cpu time    0.0011: real time    0.0011
    CHARGE:  cpu time    1.4852: real time    1.4965
    --------------------------------------------
      LOOP:  cpu time  547.1598: real time  547.5908

 eigenvalue-minimisations  :     0
 total energy-change (2. order) :-0.6622487E-01  (-0.5350319E-01)
 number of electron     251.0000007 magnetization       2.9999396
 augmentation part       12.9044191 magnetization       1.2533336

 DIPCOR: dipole corrections for dipol
 direction  3 min pos     1,
 dipolmoment          -0.000017      0.000241     -0.022865 electrons x Angstroem
 Tr[quadrupol]     -6894.768678

 energy correction for charged system         0.000000 eV
 dipol+quadrupol energy correction            0.000015 eV
 added-field ion interaction          0.000000 eV  (added to PSCEN)


 Free energy of the ion-electron system (eV)
  ---------------------------------------------------
  alpha Z        PSCENC =       106.77752721
  Ewald energy   TEWEN  =     40138.80511009
  -Hartree energ DENC   =    -48633.85465737
  -exchange      EXHF   =       568.32635709
  -V(xc)+E(xc)   XCENC  =       624.35141838
  PAW double counting   =     27528.58072547   -27552.43048536
  entropy T*S    EENTRO =        -0.00002098
  eigenvalues    EBANDS =     -3287.96560956
  atomic energy  EATOM  =      9875.49622477
  ---------------------------------------------------
  free energy    TOTEN  =      -631.91346693 eV

  energy without entropy =     -631.91344595  energy(sigma->0) =     -631.91345644
  exchange ACFDT corr.  =        -0.00010814  see jH, gK, PRB 81, 115126


--------------------------------------------------------------------------------------------------------




--------------------------------------- Iteration      1(   8)  ---------------------------------------


    POTLOK:  cpu time    4.7118: real time    4.7147
    SETDIJ:  cpu time    2.6105: real time    2.6107
    TRIAL :  cpu time  537.9813: real time  538.4005
    CORREC:  cpu time    0.0010: real time    0.0010
    CHARGE:  cpu time    1.4748: real time    1.4754
    --------------------------------------------
      LOOP:  cpu time  546.7841: real time  547.2088

 eigenvalue-minimisations  :     0
 total energy-change (2. order) :-0.4649406E-01  (-0.3760655E-01)
 number of electron     251.0000007 magnetization       2.9999857
 augmentation part       12.9077512 magnetization       1.2604564

 DIPCOR: dipole corrections for dipol
 direction  3 min pos     1,
 dipolmoment          -0.000017      0.000244     -0.023128 electrons x Angstroem
 Tr[quadrupol]     -6894.804068

 energy correction for charged system         0.000000 eV
 dipol+quadrupol energy correction            0.000015 eV
 added-field ion interaction          0.000000 eV  (added to PSCEN)


 Free energy of the ion-electron system (eV)
  ---------------------------------------------------
  alpha Z        PSCENC =       106.77752755
  Ewald energy   TEWEN  =     40138.80511009
  -Hartree energ DENC   =    -48636.25068902
  -exchange      EXHF   =       568.52779246
  -V(xc)+E(xc)   XCENC  =       624.45254186
  PAW double counting   =     27550.56014258   -27574.42837606
  entropy T*S    EENTRO =        -0.00000563
  eigenvalues    EBANDS =     -3285.90021425
  atomic energy  EATOM  =      9875.49622477
  ---------------------------------------------------
  free energy    TOTEN  =      -631.95996099 eV

  energy without entropy =     -631.95995536  energy(sigma->0) =     -631.95995818
  exchange ACFDT corr.  =        -0.00002564  see jH, gK, PRB 81, 115126


--------------------------------------------------------------------------------------------------------




--------------------------------------- Iteration      1(   9)  ---------------------------------------


    POTLOK:  cpu time    4.7281: real time    4.7304
    SETDIJ:  cpu time    2.5788: real time    2.5793
    TRIAL :  cpu time  537.1582: real time  537.5761
    CORREC:  cpu time    0.0009: real time    0.0009
    CHARGE:  cpu time    1.4770: real time    1.4773
    --------------------------------------------
      LOOP:  cpu time  545.9495: real time  546.3720

 eigenvalue-minimisations  :     0
 total energy-change (2. order) :-0.3314752E-01  (-0.2684404E-01)
 number of electron     251.0000007 magnetization       2.9999962
 augmentation part       12.9116066 magnetization       1.2662828

 DIPCOR: dipole corrections for dipol
 direction  3 min pos     1,
 dipolmoment          -0.000015      0.000216     -0.020557 electrons x Angstroem
 Tr[quadrupol]     -6894.814800

 energy correction for charged system         0.000000 eV
 dipol+quadrupol energy correction            0.000012 eV
 added-field ion interaction          0.000000 eV  (added to PSCEN)


 Free energy of the ion-electron system (eV)
  ---------------------------------------------------
  alpha Z        PSCENC =       106.77752434
  Ewald energy   TEWEN  =     40138.80511009
  -Hartree energ DENC   =    -48637.35601355
  -exchange      EXHF   =       568.66485504
  -V(xc)+E(xc)   XCENC  =       624.51521673
  PAW double counting   =     27562.64198533   -27586.55064784
  entropy T*S    EENTRO =        -0.00000168
  eigenvalues    EBANDS =     -3284.98735780
  atomic energy  EATOM  =      9875.49622477
  ---------------------------------------------------
  free energy    TOTEN  =      -631.99310851 eV

  energy without entropy =     -631.99310683  energy(sigma->0) =     -631.99310767
  exchange ACFDT corr.  =        -0.00000603  see jH, gK, PRB 81, 115126


--------------------------------------------------------------------------------------------------------




--------------------------------------- Iteration      1(  10)  ---------------------------------------


    POTLOK:  cpu time    4.7084: real time    4.7097
    SETDIJ:  cpu time    2.6243: real time    2.6259
    TRIAL :  cpu time  536.3248: real time  536.7438
    CORREC:  cpu time    0.0032: real time    0.0032
    CHARGE:  cpu time    1.4769: real time    1.4787
    --------------------------------------------
      LOOP:  cpu time  545.1394: real time  545.5645

 eigenvalue-minimisations  :     0
 total energy-change (2. order) :-0.2388188E-01  (-0.1926604E-01)
 number of electron     251.0000007 magnetization       2.9999987
 augmentation part       12.9147800 magnetization       1.2710008

 DIPCOR: dipole corrections for dipol
 direction  3 min pos     1,
 dipolmoment          -0.000014      0.000196     -0.018592 electrons x Angstroem
 Tr[quadrupol]     -6894.813864

 energy correction for charged system         0.000000 eV
 dipol+quadrupol energy correction            0.000010 eV
 added-field ion interaction          0.000000 eV  (added to PSCEN)


 Free energy of the ion-electron system (eV)
  ---------------------------------------------------
  alpha Z        PSCENC =       106.77752214
  Ewald energy   TEWEN  =     40138.80511009
  -Hartree energ DENC   =    -48637.69016324
  -exchange      EXHF   =       568.75796102
  -V(xc)+E(xc)   XCENC  =       624.55198581
  PAW double counting   =     27568.83824069   -27592.80599540
  entropy T*S    EENTRO =        -0.00000062
  eigenvalues    EBANDS =     -3284.74787458
  atomic energy  EATOM  =      9875.49622477
  ---------------------------------------------------
  free energy    TOTEN  =      -632.01699039 eV

  energy without entropy =     -632.01698977  energy(sigma->0) =     -632.01699008
  exchange ACFDT corr.  =        -0.00000158  see jH, gK, PRB 81, 115126


--------------------------------------------------------------------------------------------------------




--------------------------------------- Iteration      1(  11)  ---------------------------------------


    POTLOK:  cpu time    4.6824: real time    4.6846
    SETDIJ:  cpu time    2.6171: real time    2.6174
    TRIAL :  cpu time  535.1561: real time  535.5727
    CORREC:  cpu time    0.0031: real time    0.0031
    CHARGE:  cpu time    1.4849: real time    1.4854
    --------------------------------------------
      LOOP:  cpu time  543.9457: real time  544.3670

 eigenvalue-minimisations  :     0
 total energy-change (2. order) :-0.1728475E-01  (-0.1396199E-01)
 number of electron     251.0000007 magnetization       2.9999994
 augmentation part       12.9168569 magnetization       1.2747051

 DIPCOR: dipole corrections for dipol
 direction  3 min pos     1,
 dipolmoment          -0.000014      0.000195     -0.018511 electrons x Angstroem
 Tr[quadrupol]     -6894.810397

 energy correction for charged system         0.000000 eV
 dipol+quadrupol energy correction            0.000010 eV
 added-field ion interaction          0.000000 eV  (added to PSCEN)


 Free energy of the ion-electron system (eV)
  ---------------------------------------------------
  alpha Z        PSCENC =       106.77752206
  Ewald energy   TEWEN  =     40138.80511009
  -Hartree energ DENC   =    -48637.67645651
  -exchange      EXHF   =       568.82463766
  -V(xc)+E(xc)   XCENC  =       624.57456861
  PAW double counting   =     27571.63597387   -27595.65642467
  entropy T*S    EENTRO =        -0.00000028
  eigenvalues    EBANDS =     -3284.81543040
  atomic energy  EATOM  =      9875.49622477
  ---------------------------------------------------
  free energy    TOTEN  =      -632.03427513 eV

  energy without entropy =     -632.03427485  energy(sigma->0) =     -632.03427499
  exchange ACFDT corr.  =        -0.00000052  see jH, gK, PRB 81, 115126


--------------------------------------------------------------------------------------------------------




--------------------------------------- Iteration      1(  12)  ---------------------------------------


    POTLOK:  cpu time    4.6603: real time    4.6615
    SETDIJ:  cpu time    2.6187: real time    2.6297
    TRIAL :  cpu time  535.5476: real time  535.9921
    CORREC:  cpu time    0.0008: real time    0.0008
    CHARGE:  cpu time    1.4745: real time    1.4751
    --------------------------------------------
      LOOP:  cpu time  544.3058: real time  544.7647

 eigenvalue-minimisations  :     0
 total energy-change (2. order) :-0.1262281E-01  (-0.1022693E-01)
 number of electron     251.0000007 magnetization       2.9999997
 augmentation part       12.9182348 magnetization       1.2775930

 DIPCOR: dipole corrections for dipol
 direction  3 min pos     1,
 dipolmoment          -0.000014      0.000206     -0.019577 electrons x Angstroem
 Tr[quadrupol]     -6894.808379

 energy correction for charged system         0.000000 eV
 dipol+quadrupol energy correction            0.000011 eV
 added-field ion interaction          0.000000 eV  (added to PSCEN)


 Free energy of the ion-electron system (eV)
  ---------------------------------------------------
  alpha Z        PSCENC =       106.77752322
  Ewald energy   TEWEN  =     40138.80511009
  -Hartree energ DENC   =    -48637.59893726
  -exchange      EXHF   =       568.87696644
  -V(xc)+E(xc)   XCENC  =       624.59125295
  PAW double counting   =     27572.80932201   -27596.86620139
  entropy T*S    EENTRO =        -0.00000015
  eigenvalues    EBANDS =     -3284.93815850
  atomic energy  EATOM  =      9875.49622477
  ---------------------------------------------------
  free energy    TOTEN  =      -632.04689795 eV

  energy without entropy =     -632.04689779  energy(sigma->0) =     -632.04689787
  exchange ACFDT corr.  =        -0.00000022  see jH, gK, PRB 81, 115126


--------------------------------------------------------------------------------------------------------




--------------------------------------- Iteration      1(  13)  ---------------------------------------


    POTLOK:  cpu time    4.6557: real time    4.6676
    SETDIJ:  cpu time    2.6161: real time    2.6165
    TRIAL :  cpu time  534.8634: real time  535.7311
    CORREC:  cpu time    0.0024: real time    0.0024
    CHARGE:  cpu time    1.4779: real time    1.4785
    --------------------------------------------
      LOOP:  cpu time  543.6186: real time  544.5011

 eigenvalue-minimisations  :     0
 total energy-change (2. order) :-0.9307701E-02  (-0.7562630E-02)
 number of electron     251.0000007 magnetization       2.9999998
 augmentation part       12.9194439 magnetization       1.2799807

 DIPCOR: dipole corrections for dipol
 direction  3 min pos     1,
 dipolmoment          -0.000015      0.000216     -0.020496 electrons x Angstroem
 Tr[quadrupol]     -6894.808264

 energy correction for charged system         0.000000 eV
 dipol+quadrupol energy correction            0.000012 eV
 added-field ion interaction          0.000000 eV  (added to PSCEN)


 Free energy of the ion-electron system (eV)
  ---------------------------------------------------
  alpha Z        PSCENC =       106.77752427
  Ewald energy   TEWEN  =     40138.80511009
  -Hartree energ DENC   =    -48637.58735350
  -exchange      EXHF   =       568.92116219
  -V(xc)+E(xc)   XCENC  =       624.60598143
  PAW double counting   =     27573.56550599   -27597.64755441
  entropy T*S    EENTRO =        -0.00000010
  eigenvalues    EBANDS =     -3284.99280632
  atomic energy  EATOM  =      9875.49622477
  ---------------------------------------------------
  free energy    TOTEN  =      -632.05620565 eV

  energy without entropy =     -632.05620555  energy(sigma->0) =     -632.05620560
  exchange ACFDT corr.  =        -0.00000011  see jH, gK, PRB 81, 115126


--------------------------------------------------------------------------------------------------------




--------------------------------------- Iteration      1(  14)  ---------------------------------------


    POTLOK:  cpu time    4.6604: real time    4.6614
    SETDIJ:  cpu time    2.6043: real time    2.6058
    TRIAL :  cpu time  535.0299: real time  535.4421
    CORREC:  cpu time    0.0009: real time    0.0009
    CHARGE:  cpu time    1.4737: real time    1.4741
    --------------------------------------------
      LOOP:  cpu time  543.7713: real time  544.1880

 eigenvalue-minimisations  :     0
 total energy-change (2. order) :-0.6923260E-02  (-0.5642145E-02)
 number of electron     251.0000007 magnetization       2.9999999
 augmentation part       12.9206496 magnetization       1.2821076

 DIPCOR: dipole corrections for dipol
 direction  3 min pos     1,
 dipolmoment          -0.000015      0.000217     -0.020650 electrons x Angstroem
 Tr[quadrupol]     -6894.809000

 energy correction for charged system         0.000000 eV
 dipol+quadrupol energy correction            0.000012 eV
 added-field ion interaction          0.000000 eV  (added to PSCEN)


 Free energy of the ion-electron system (eV)
  ---------------------------------------------------
  alpha Z        PSCENC =       106.77752445
  Ewald energy   TEWEN  =     40138.80511009
  -Hartree energ DENC   =    -48637.64720910
  -exchange      EXHF   =       568.95943166
  -V(xc)+E(xc)   XCENC  =       624.61946154
  PAW double counting   =     27574.53874908   -27598.64262212
  entropy T*S    EENTRO =        -0.00000007
  eigenvalues    EBANDS =     -3284.96979918
  atomic energy  EATOM  =      9875.49622477
  ---------------------------------------------------
  free energy    TOTEN  =      -632.06312891 eV

  energy without entropy =     -632.06312884  energy(sigma->0) =     -632.06312887
  exchange ACFDT corr.  =        -0.00000007  see jH, gK, PRB 81, 115126


--------------------------------------------------------------------------------------------------------




--------------------------------------- Iteration      1(  15)  ---------------------------------------


    POTLOK:  cpu time    4.6521: real time    4.6542
    SETDIJ:  cpu time    2.5979: real time    2.5987
    TRIAL :  cpu time  535.0103: real time  535.4198
    CORREC:  cpu time    0.0007: real time    0.0007
    CHARGE:  cpu time    1.4746: real time    1.4749
    --------------------------------------------
      LOOP:  cpu time  543.7409: real time  544.1555

 eigenvalue-minimisations  :     0
 total energy-change (2. order) :-0.5192765E-02  (-0.4247240E-02)
 number of electron     251.0000007 magnetization       2.9999999
 augmentation part       12.9217057 magnetization       1.2840073

 DIPCOR: dipole corrections for dipol
 direction  3 min pos     1,
 dipolmoment          -0.000015      0.000213     -0.020228 electrons x Angstroem
 Tr[quadrupol]     -6894.809552

 energy correction for charged system         0.000000 eV
 dipol+quadrupol energy correction            0.000012 eV
 added-field ion interaction          0.000000 eV  (added to PSCEN)


 Free energy of the ion-electron system (eV)
  ---------------------------------------------------
  alpha Z        PSCENC =       106.77752396
  Ewald energy   TEWEN  =     40138.80511009
  -Hartree energ DENC   =    -48637.72999457
  -exchange      EXHF   =       568.99242053
  -V(xc)+E(xc)   XCENC  =       624.63119998
  PAW double counting   =     27575.92249742   -27600.04744884
  entropy T*S    EENTRO =        -0.00000005
  eigenvalues    EBANDS =     -3284.91585494
  atomic energy  EATOM  =      9875.49622477
  ---------------------------------------------------
  free energy    TOTEN  =      -632.06832167 eV

  energy without entropy =     -632.06832162  energy(sigma->0) =     -632.06832165
  exchange ACFDT corr.  =        -0.00000005  see jH, gK, PRB 81, 115126


--------------------------------------------------------------------------------------------------------




--------------------------------------- Iteration      1(  16)  ---------------------------------------


    POTLOK:  cpu time    4.6458: real time    4.6469
    SETDIJ:  cpu time    2.6179: real time    2.6182
    TRIAL :  cpu time  535.1478: real time  535.5615
    CORREC:  cpu time    0.0008: real time    0.0008
    CHARGE:  cpu time    1.4740: real time    1.4745
    --------------------------------------------
      LOOP:  cpu time  543.8891: real time  544.3063

 eigenvalue-minimisations  :     0
 total energy-change (2. order) :-0.3929136E-02  (-0.3230058E-02)
 number of electron     251.0000007 magnetization       2.9999999
 augmentation part       12.9224668 magnetization       1.2856102

 DIPCOR: dipole corrections for dipol
 direction  3 min pos     1,
 dipolmoment          -0.000015      0.000207     -0.019673 electrons x Angstroem
 Tr[quadrupol]     -6894.809447

 energy correction for charged system         0.000000 eV
 dipol+quadrupol energy correction            0.000011 eV
 added-field ion interaction          0.000000 eV  (added to PSCEN)


 Free energy of the ion-electron system (eV)
  ---------------------------------------------------
  alpha Z        PSCENC =       106.77752332
  Ewald energy   TEWEN  =     40138.80511009
  -Hartree energ DENC   =    -48637.79506563
  -exchange      EXHF   =       569.02064350
  -V(xc)+E(xc)   XCENC  =       624.64091643
  PAW double counting   =     27577.61665060   -27601.76023359
  entropy T*S    EENTRO =        -0.00000004
  eigenvalues    EBANDS =     -3284.87402025
  atomic energy  EATOM  =      9875.49622477
  ---------------------------------------------------
  free energy    TOTEN  =      -632.07225081 eV

  energy without entropy =     -632.07225077  energy(sigma->0) =     -632.07225079
  exchange ACFDT corr.  =        -0.00000003  see jH, gK, PRB 81, 115126


--------------------------------------------------------------------------------------------------------




--------------------------------------- Iteration      1(  17)  ---------------------------------------


    POTLOK:  cpu time    4.6238: real time    4.6263
    SETDIJ:  cpu time    2.6324: real time    2.6333
    TRIAL :  cpu time  534.8999: real time  535.3128
    CORREC:  cpu time    0.0022: real time    0.0022
    CHARGE:  cpu time    1.4763: real time    1.4790
    --------------------------------------------
      LOOP:  cpu time  543.6386: real time  544.0593

 eigenvalue-minimisations  :     0
 total energy-change (2. order) :-0.3003127E-02  (-0.2485483E-02)
 number of electron     251.0000007 magnetization       2.9999999
 augmentation part       12.9229602 magnetization       1.2869064

 DIPCOR: dipole corrections for dipol
 direction  3 min pos     1,
 dipolmoment          -0.000014      0.000202     -0.019198 electrons x Angstroem
 Tr[quadrupol]     -6894.808644

 energy correction for charged system         0.000000 eV
 dipol+quadrupol energy correction            0.000011 eV
 added-field ion interaction          0.000000 eV  (added to PSCEN)


 Free energy of the ion-electron system (eV)
  ---------------------------------------------------
  alpha Z        PSCENC =       106.77752280
  Ewald energy   TEWEN  =     40138.80511009
  -Hartree energ DENC   =    -48637.82832507
  -exchange      EXHF   =       569.04466940
  -V(xc)+E(xc)   XCENC  =       624.64877918
  PAW double counting   =     27579.36273574   -27603.52088052
  entropy T*S    EENTRO =        -0.00000003
  eigenvalues    EBANDS =     -3284.86109029
  atomic energy  EATOM  =      9875.49622477
  ---------------------------------------------------
  free energy    TOTEN  =      -632.07525394 eV

  energy without entropy =     -632.07525391  energy(sigma->0) =     -632.07525392
[...]


 VOLUME and BASIS-vectors are now :
 -----------------------------------------------------------------------------
  energy-cutoff  :      500.00
  volume of cell :     3176.87
      direct lattice vectors                 reciprocal lattice vectors
    12.856800000  0.000000000  0.000000000     0.077779852  0.000734709 -0.000049689
    -0.117117654 12.398646865  0.000000000     0.000000000  0.080653963  0.000849322
     0.014714100 -0.209864203 19.929289618     0.000000000  0.000000000  0.050177403

  length of vectors
    12.856800000 12.399200000 19.930400000     0.077783338  0.080658434  0.050177403


 FORCES acting on ions:
    Electron-Ion                     Ewald-Force                    Non-Local-Force
 -----------------------------------------------------------------------------------------------
   0.470E+01 -.370E+01 0.326E+02   -.459E+01 0.340E+01 -.327E+02   -.409E-01 0.198E+00 0.779E-01
   -.271E+00 -.161E+01 0.404E+02   0.521E+00 0.148E+01 -.404E+02   -.246E+00 0.836E-01 0.514E-01
   0.344E+01 -.117E+01 0.369E+02   -.338E+01 0.112E+01 -.368E+02   -.106E+00 0.590E-01 -.808E-01
   0.122E+02 0.462E+00 0.309E+02   -.124E+02 -.597E+00 -.307E+02   0.236E+00 0.134E+00 -.219E+00
   0.651E+01 0.407E+01 0.235E+02   -.651E+01 -.413E+01 -.235E+02   0.257E-01 0.613E-01 0.859E-01
   0.315E+01 0.506E+01 0.358E+02   -.304E+01 -.542E+01 -.359E+02   -.952E-01 0.350E+00 0.745E-01
   0.202E+01 0.603E+01 0.312E+02   -.198E+01 -.619E+01 -.311E+02   -.512E-01 0.140E+00 -.450E-01
   0.148E+02 0.121E+02 0.870E+01   -.149E+02 -.124E+02 -.872E+01   0.130E+00 0.114E+00 0.197E-02
   0.211E+02 0.475E+02 0.189E+02   -.227E+02 -.500E+02 -.197E+02   0.151E+01 0.293E+01 0.827E+00
   0.135E+02 0.568E+01 0.252E+02   -.137E+02 -.552E+01 -.251E+02   0.210E+00 -.768E-01 -.712E-01
   0.139E+02 0.110E+02 0.288E+02   -.142E+02 -.113E+02 -.289E+02   0.298E+00 0.210E+00 0.503E-01
   0.254E+02 -.319E+02 0.116E+02   -.268E+02 0.354E+02 -.120E+02   0.133E+01 -.345E+01 0.388E+00
   0.861E+01 -.482E+01 0.312E+02   -.866E+01 0.514E+01 -.311E+02   0.309E-01 -.254E+00 -.839E-01
   0.170E+02 -.817E+01 0.273E+02   -.171E+02 0.852E+01 -.274E+02   0.104E+00 -.347E+00 0.134E+00
   0.107E+02 -.127E+02 0.674E+01   -.982E+01 0.127E+02 -.683E+01   -.115E+01 0.346E-01 -.626E-01
   0.804E+01 -.121E+02 0.333E+02   -.780E+01 0.119E+02 -.334E+02   -.180E+00 0.494E-01 0.225E+00
   0.212E+01 -.413E+01 0.427E+02   -.194E+01 0.420E+01 -.427E+02   -.194E+00 -.510E-01 0.646E-01
   0.658E+01 -.551E+01 0.404E+02   -.652E+01 0.555E+01 -.404E+02   -.118E+00 -.735E-01 0.597E-01
   0.574E+01 -.615E+01 0.249E+02   -.583E+01 0.628E+01 -.245E+02   0.176E-01 0.116E-01 -.376E+00
   -.271E-01 0.208E+01 0.574E+02   -.320E+00 -.210E+01 -.572E+02   0.286E+00 0.519E-01 -.143E+00
   0.545E+01 0.696E+01 0.525E+02   -.595E+01 -.734E+01 -.526E+02   0.459E+00 0.403E+00 0.150E+00
   0.326E+01 -.692E+00 0.537E+02   -.343E+01 0.447E+00 -.538E+02   0.213E+00 0.236E+00 0.112E+00
   -.500E+01 0.676E+01 0.726E+02   0.512E+01 -.714E+01 -.727E+02   -.788E-01 0.346E+00 0.176E+00
   -.258E+00 0.147E+02 0.695E+02   0.139E+00 -.153E+02 -.693E+02   0.957E-01 0.564E+00 -.138E+00
   0.360E+02 0.348E+02 0.209E+02   -.380E+02 -.375E+02 -.221E+02   0.218E+01 0.287E+01 0.124E+01
   0.771E+01 0.143E+02 0.561E+02   -.799E+01 -.149E+02 -.563E+02   0.278E+00 0.436E+00 0.176E+00
   -.126E+02 0.130E+02 0.779E+02   0.131E+02 -.139E+02 -.786E+02   -.380E+00 0.693E+00 0.696E+00
   -.181E+02 0.185E+02 0.186E+02   0.198E+02 -.215E+02 -.202E+02   -.181E+01 0.305E+01 0.179E+01
   0.180E+02 -.601E+02 -.691E+02   -.181E+02 0.603E+02 0.686E+02   0.580E+00 -.980E+00 0.132E+01
   0.172E+02 -.234E+02 -.299E+01   -.195E+02 0.260E+02 0.251E+01   0.226E+01 -.271E+01 0.464E+00
   0.448E+01 -.470E+01 0.299E+02   -.446E+01 0.417E+01 -.300E+02   0.962E-01 0.408E+00 0.189E+00
   -.604E+01 -.974E+01 -.119E+02   0.572E+01 0.898E+01 0.121E+02   0.411E+00 0.103E+01 -.239E+00
   -.269E+01 -.683E+01 0.446E+02   0.247E+01 0.691E+01 -.448E+02   0.267E+00 -.375E-01 0.294E+00
   -.375E+01 -.203E+01 0.506E+02   0.387E+01 0.202E+01 -.505E+02   -.151E+00 0.302E-01 -.659E-02
   -.617E+01 0.327E+01 0.662E+02   0.619E+01 -.335E+01 -.661E+02   -.480E-01 0.934E-01 -.100E+00
   -.626E+01 0.141E+01 0.566E+02   0.646E+01 -.136E+01 -.567E+02   -.157E+00 -.213E-01 0.105E+00
   -.272E+01 0.293E+01 0.506E+02   0.296E+01 -.302E+01 -.506E+02   -.224E+00 0.611E-01 0.530E-01
   -.567E+01 0.210E+01 0.554E+02   0.587E+01 -.217E+01 -.553E+02   -.224E+00 0.940E-01 -.171E-01
   -.146E+02 0.569E+01 0.656E+02   0.151E+02 -.585E+01 -.654E+02   -.497E+00 0.199E+00 -.166E+00
   -.926E+01 0.619E+01 0.681E+02   0.952E+01 -.644E+01 -.682E+02   -.225E+00 0.217E+00 0.140E+00
   -.303E+01 0.199E+01 0.477E+02   0.318E+01 -.210E+01 -.478E+02   -.125E+00 0.608E-01 0.718E-01
   -.718E+01 0.259E+01 0.442E+02   0.759E+01 -.244E+01 -.442E+02   -.390E+00 -.949E-01 0.880E-01
   -.411E+02 -.202E+02 0.142E+02   0.445E+02 0.206E+02 -.151E+02   -.361E+01 -.541E+00 0.978E+00
   -.161E+02 -.151E+01 0.527E+02   0.166E+02 0.146E+01 -.529E+02   -.405E+00 -.632E-02 0.240E+00
   0.143E+01 -.442E+01 0.260E+02   -.153E+01 0.458E+01 -.259E+02   0.810E-01 -.201E+00 -.993E-01
   0.817E+00 -.101E+01 0.165E+02   -.911E+00 0.116E+01 -.165E+02   0.584E-01 -.115E+00 0.218E-01
   -.389E+02 0.122E+02 0.663E+01   0.418E+02 -.121E+02 -.750E+01   -.323E+01 0.147E+00 0.929E+00
   -.689E+01 -.614E+01 -.267E+01   0.707E+01 0.628E+01 0.281E+01   -.104E-01 -.197E+00 -.157E+00
   0.137E+01 -.387E+00 0.269E+02   -.124E+01 0.369E+00 -.268E+02   -.124E+00 0.235E-01 -.617E-01
   -.375E+01 -.290E+01 0.380E+02   0.405E+01 0.278E+01 -.381E+02   -.306E+00 0.104E+00 0.934E-01
   -.793E+01 -.501E+01 0.430E+02   0.794E+01 0.513E+01 -.427E+02   -.944E-01 -.115E+00 -.181E+00
   -.122E+02 -.189E+01 0.361E+02   0.127E+02 0.191E+01 -.363E+02   -.355E+00 -.222E-01 0.190E+00
   -.498E+00 0.162E+00 0.444E+02   0.702E+00 -.195E+00 -.444E+02   -.160E+00 0.108E-01 0.197E-01
   -.270E+01 0.187E+01 0.164E+01   0.223E+02 -.677E+00 0.116E+01   -.187E+02 -.142E+01 -.295E+01
   0.133E+02 0.188E+01 -.649E+02   -.224E+02 0.143E+02 0.724E+02   0.870E+01 -.159E+02 -.763E+01
   -.586E+01 -.505E+02 -.759E+02   -.407E+01 0.675E+02 0.838E+02   0.970E+01 -.163E+02 -.778E+01
   0.106E+02 -.713E+02 -.473E+03   -.681E+01 0.651E+02 0.492E+03   -.408E+01 0.699E+01 -.182E+02
   0.115E+02 0.336E+02 -.604E+02   -.223E+02 -.514E+02 0.664E+02   0.105E+02 0.169E+02 -.601E+01
   0.424E+02 0.107E+03 -.624E+03   -.435E+02 -.103E+03 0.619E+03   0.503E+00 -.399E+01 0.522E+01
   -.119E+03 -.126E+02 -.483E+03   0.117E+03 0.138E+02 0.480E+03   0.255E+01 -.795E+00 0.336E+01
 -----------------------------------------------------------------------------------------------
   -.593E+01 0.891E+01 0.276E+02   -.313E-12 0.128E-12 -.853E-12   0.546E+01 -.828E+01 -.246E+02
 
 
 POSITION                                       TOTAL-FORCE (eV/Angst)
 -----------------------------------------------------------------------------------
      2.86372     -0.09025      9.80550         0.064358     -0.102384      0.030185
      0.73143      1.14957      9.69892        -0.010640     -0.046321      0.027166
      1.43430     -0.09458      9.73753        -0.051482      0.013482      0.015719
      3.57118      1.16239      9.81358         0.021049      0.003718     -0.002116
      2.87601      2.42678      9.86602         0.019980      0.005612      0.024316
      0.70579      3.62899      9.78195         0.006175      0.005723      0.025621
      1.43874      2.40218      9.77624        -0.017009     -0.003800      0.004794
      3.59494      3.67511     10.03991        -0.040284     -0.179253     -0.013564
      2.81620      4.92434     10.09663        -0.003987      0.617813      0.039834
      0.63701      6.11034      9.90690         0.052751      0.085285      0.018672
      1.39108      4.88179      9.91108        -0.012692     -0.094375     -0.029072
      2.73948      7.35691     10.18879         0.057825     -0.212018      0.049785
      0.59924      8.58191      9.87063        -0.015540      0.055702      0.009631
      1.32725      7.35433      9.96722        -0.024000     -0.018239      0.023930
      3.42649      8.61801     10.25151        -0.351831      0.045800     -0.153454
      2.73245      9.82867      9.96703         0.046815     -0.193123      0.124528
      0.60244     11.06175      9.73644        -0.026485      0.021639      0.030953
      1.30919      9.82390      9.83273        -0.061150     -0.036029      0.027832
      3.45643     11.07250      9.91615        -0.080766      0.145556     -0.015821
      7.02289     12.27455      9.73893        -0.044328      0.038074      0.051484
      4.99218      1.13103      9.77403        -0.020864      0.049171      0.061272
      5.59592     12.29111      9.79004         0.049873     -0.001167      0.047162
      7.86008      1.10190      9.64131         0.031490     -0.011856      0.052113
      7.14288      2.32554      9.71949        -0.012869      0.079535      0.087795
      5.05312      3.59324     10.08541         0.371130      0.351210      0.148035
      5.71757      2.35679      9.81936         0.016023     -0.129473      0.024564
      7.86901      3.53676      9.79237         0.078984     -0.104436      0.058476
      7.18352      4.70573     10.18469        -0.173037      0.244358      0.323066
      4.79339      8.73780     10.73030         0.462387     -0.886474      0.973675
      7.05835      9.84016     10.18870         0.122878     -0.200770      0.012523
      4.89415     11.06172      9.96675         0.126146     -0.096527      0.110524
      5.61178      9.86255     10.27873         0.099340      0.329620     -0.129324
      7.74469     11.05240      9.85997         0.063226      0.036887      0.048748
     11.32164     12.28724      9.64131        -0.033942      0.017731      0.031286
      9.28836      1.11084      9.60480        -0.029301      0.017691      0.056616
      9.88952     12.27678      9.64463         0.038375      0.027454      0.024745
     12.15662      1.13423      9.63345         0.007928     -0.021347      0.030006
     11.43556      2.36722      9.62668        -0.038020      0.032133      0.045522
      9.28644      3.57015      9.70953        -0.049556      0.047172      0.064484
     10.00566      2.34895      9.60806         0.024496     -0.021156      0.044612
     12.13076      3.61709      9.70215         0.013410     -0.051300      0.025036
     11.39265      4.84606      9.76888        -0.000821      0.054769      0.045681
      9.21269      6.00503     10.08683        -0.413149     -0.184851      0.133770
      9.96892      4.82056      9.81185         0.072097     -0.060815      0.037191
     12.06252      6.10066      9.85900        -0.013789     -0.060321      0.001048
     11.30022      7.32619      9.91892        -0.026608      0.032995      0.013624
      9.15161      8.59771     10.10532        -0.533216      0.262738      0.110386
      9.85748      7.31061     10.06620         0.174139     -0.077982     -0.022648
     12.02233      8.56622      9.85141         0.007410      0.010483      0.003098
     11.31421      9.80559      9.78546        -0.027459     -0.007617      0.032401
      9.17382     11.04586      9.77698        -0.084481     -0.000580      0.032353
      9.88670      9.80689      9.86077         0.066166     -0.000670      0.013897
     12.02901     11.04889      9.70260         0.037185     -0.017540      0.022310
      3.41610      6.15276     10.34265        -0.798705     -0.358974     -0.409680
      5.83116      4.68615     10.44082         0.311813     -1.019130     -0.757751
      7.88123      5.86416     10.42441         0.630173     -0.742480     -0.577628
      5.23983      7.87946     11.63994        -0.707538      1.488423     -0.876107
      7.80375      8.68736     10.39318         0.629306      0.634940     -0.482630
      4.95120      6.05496     11.43984        -0.277179     -0.048020      0.160570
      7.00329      7.24257     11.52410         0.277800      0.233314      0.088759
 -----------------------------------------------------------------------------------
    total drift:                               -0.000875     -0.006016      0.008497


--------------------------------------------------------------------------------------------------------



  FREE ENERGIE OF THE ION-ELECTRON SYSTEM (eV)
  ---------------------------------------------------
  free  energy   TOTEN  =      -632.09116305 eV

  energy  without entropy=     -632.09116304  energy(sigma->0) =     -632.09116304
 


--------------------------------------------------------------------------------------------------------


    POTLOK:  cpu time    7.2304: real time    7.2322


--------------------------------------------------------------------------------------------------------


 stress matrix after NEB project (eV)
    -45.76800     -0.38365     -0.52147
     -0.38346    -42.35575      1.60492
     -0.51949      1.60437     -1.93871
  FORCES: max atom, RMS     1.866434    0.463198
  FORCE total and by dimension    3.587918    1.488423
  Stress total and by dimension   62.437685   45.768004
 writing wavefunctions
     LOOP+:  cpu time29502.3301: real time29534.8458
    4ORBIT:  cpu time    0.0000: real time    0.0000
 


 total charge     
 
# of ion       s       p       d       tot
------------------------------------------
    1        0.865   1.752   0.000   2.616
    2        0.864   1.750   0.000   2.614
    3        0.862   1.770   0.000   2.633
    4        0.860   1.765   0.000   2.625
    5        0.858   1.726   0.000   2.585
    6        0.865   1.754   0.000   2.619
    7        0.859   1.760   0.000   2.619
    8        0.844   1.728   0.000   2.572
    9        0.853   1.684   0.000   2.537
   10        0.866   1.749   0.000   2.616
   11        0.860   1.762   0.000   2.622
   12        0.858   1.715   0.000   2.572
   13        0.864   1.758   0.000   2.622
   14        0.866   1.780   0.000   2.645
   15        0.862   1.770   0.000   2.632
   16        0.867   1.752   0.000   2.619
   17        0.866   1.759   0.000   2.624
   18        0.864   1.770   0.000   2.634
   19        0.859   1.765   0.000   2.624
   20        0.868   1.770   0.000   2.638
   21        0.868   1.765   0.000   2.633
   22        0.865   1.771   0.000   2.636
   23        0.867   1.781   0.000   2.647
   24        0.871   1.776   0.000   2.647
   25        0.855   1.700   0.000   2.555
   26        0.866   1.781   0.000   2.647
   27        0.872   1.811   0.000   2.683
   28        0.859   1.721   0.000   2.580
   29        0.867   1.721   0.000   2.589
   30        0.855   1.706   0.000   2.561
   31        0.866   1.750   0.000   2.616
   32        0.856   1.752   0.000   2.608
   33        0.866   1.776   0.000   2.642
   34        0.865   1.756   0.000   2.621
   35        0.867   1.763   0.000   2.629
   36        0.864   1.772   0.000   2.636
   37        0.863   1.764   0.000   2.626
   38        0.866   1.759   0.000   2.626
   39        0.870   1.773   0.000   2.643
   40        0.865   1.776   0.000   2.641
   41        0.862   1.763   0.000   2.625
   42        0.868   1.760   0.000   2.628
   43        0.857   1.702   0.000   2.559
   44        0.865   1.782   0.000   2.647
   45        0.860   1.768   0.000   2.628
   46        0.859   1.729   0.000   2.588
   47        0.854   1.692   0.000   2.546
   48        0.846   1.737   0.000   2.582
   49        0.861   1.767   0.000   2.628
   50        0.865   1.756   0.000   2.621
   51        0.867   1.754   0.000   2.621
   52        0.863   1.773   0.000   2.636
   53        0.864   1.766   0.000   2.629
   54        1.229   2.666   0.000   3.894
   55        1.231   2.682   0.000   3.913
   56        1.234   2.697   0.000   3.932
   57        1.260   2.599   0.000   3.859
   58        1.231   2.675   0.000   3.906
   59        0.456   0.546   6.400   7.401
   60        0.440   0.601   4.461   5.503
--------------------------------------------------
tot         52.795 107.428  10.861 171.083
 


 magnetization (x)
 
# of ion       s       p       d       tot
------------------------------------------
    1        0.000   0.004   0.000   0.004
    2        0.000   0.002   0.000   0.002
    3       -0.000  -0.000   0.000  -0.000
    4       -0.000  -0.001   0.000  -0.002
    5        0.000   0.002   0.000   0.002
    6        0.000   0.003   0.000   0.004
    7       -0.000  -0.001   0.000  -0.001
    8       -0.000   0.001   0.000   0.001
    9        0.001   0.001   0.000   0.001
   10        0.000   0.002   0.000   0.002
   11        0.001   0.001   0.000   0.001
   12       -0.000   0.008   0.000   0.007
   13        0.000   0.007   0.000   0.008
   14       -0.000  -0.003   0.000  -0.003
   15       -0.002  -0.007   0.000  -0.009
   16        0.001   0.007   0.000   0.007
   17        0.000   0.002   0.000   0.002
   18       -0.000  -0.001   0.000  -0.001
   19       -0.000  -0.004   0.000  -0.004
   20        0.000   0.005   0.000   0.005
   21        0.000   0.003   0.000   0.003
   22       -0.000  -0.003   0.000  -0.003
   23       -0.000  -0.002   0.000  -0.002
   24        0.000   0.003   0.000   0.003
   25       -0.001   0.002   0.000   0.002
   26       -0.000  -0.002   0.000  -0.003
   27       -0.001  -0.006   0.000  -0.007
   28        0.004   0.019   0.000   0.023
   29        0.006   0.046   0.000   0.052
   30        0.003   0.018   0.000   0.021
   31        0.001   0.004   0.000   0.004
   32       -0.001  -0.010   0.000  -0.011
   33       -0.000  -0.004   0.000  -0.004
   34        0.000   0.005   0.000   0.005
   35        0.000   0.006   0.000   0.006
   36       -0.000  -0.003   0.000  -0.003
   37       -0.000  -0.001   0.000  -0.001
   38        0.000   0.004   0.000   0.005
   39        0.001   0.010   0.000   0.011
   40       -0.000  -0.003   0.000  -0.004
   41       -0.000  -0.002   0.000  -0.002
   42        0.000   0.004   0.000   0.004
   43        0.003   0.016   0.000   0.019
   44       -0.000  -0.004   0.000  -0.005
   45       -0.000  -0.000   0.000  -0.001
   46        0.000   0.004   0.000   0.004
   47        0.002   0.011   0.000   0.013
   48        0.000   0.001   0.000   0.002
   49       -0.000   0.001   0.000   0.001
   50        0.000   0.003   0.000   0.004
   51        0.000   0.005   0.000   0.006
   52        0.000   0.001   0.000   0.001
   53       -0.000  -0.002   0.000  -0.002
   54        0.007   0.038   0.000   0.045
   55        0.000  -0.004   0.000  -0.004
   56       -0.007  -0.044   0.000  -0.051
   57       -0.006  -0.086   0.000  -0.092
   58       -0.003  -0.025   0.000  -0.028
   59        0.014   0.040  -1.456  -1.401
   60        0.092   0.117   3.566   3.776
--------------------------------------------------
tot          0.115   0.188   2.110   2.414
 

 total amount of memory used by VASP MPI-rank0   317704. kBytes
=======================================================================

   base      :      30000. kBytes
   nonl-proj :      10788. kBytes
   fftplans  :      26523. kBytes
   grid      :      69087. kBytes
   one-center:        124. kBytes
   HF        :         23. kBytes
   nonlr-proj:      22951. kBytes
   wavefun   :     158208. kBytes
 
  
  
 General timing and accounting informations for this job:
 ========================================================
  
                  Total CPU time used (sec):    29560.412
                            User time (sec):    29542.303
                          System time (sec):       18.109
                         Elapsed time (sec):    29599.668
  
                   Maximum memory used (kb):      585044.
                   Average memory used (kb):           0.
  
                          Minor page faults:      1245065
                          Major page faults:          214
                 Voluntary context switches:        60779
