 vasp.5.4.4.18Apr17-6-g9f103f2a35 (build Feb 25 2019 10:51:38) complex          
  
 executed on             LinuxIFC date 2021.08.09  03:14:00
 running on   32 total cores
 distrk:  each k-point on   32 cores,    1 groups
 distr:  one band on NCORES_PER_BAND=  32 cores,    1 groups


--------------------------------------------------------------------------------------------------------


 INCAR:
 POTCAR:    PAW_PBE C 08Apr2002                   
 POTCAR:    PAW_PBE N 08Apr2002                   
 POTCAR:    PAW_PBE Fe 06Sep2000                  
 POTCAR:    PAW_PBE Cr 06Sep2000                  

 ----------------------------------------------------------------------------- 
|                                                                             |
|           W    W    AA    RRRRR   N    N  II  N    N   GGGG   !!!           |
|           W    W   A  A   R    R  NN   N  II  NN   N  G    G  !!!           |
|           W    W  A    A  R    R  N N  N  II  N N  N  G       !!!           |
|           W WW W  AAAAAA  RRRRR   N  N N  II  N  N N  G  GGG   !            |
|           WW  WW  A    A  R   R   N   NN  II  N   NN  G    G                |
|           W    W  A    A  R    R  N    N  II  N    N   GGGG   !!!           |
|                                                                             |
|      For optimal performance we recommend to set                            |
|        NCORE= 4 - approx SQRT( number of cores)                             |
|      NCORE specifies how many cores store one orbital (NPAR=cpu/NCORE).     |
|      This setting can  greatly improve the performance of VASP for DFT.     |
|      The default,   NCORE=1            might be grossly inefficient         |
|      on modern multi-core architectures or massively parallel machines.     |
|      Do your own testing !!!!                                               |
|      Unfortunately you need to use the default for GW and RPA calculations. |
|      (for HF NCORE is supported but not extensively tested yet)             |
|                                                                             |
 ----------------------------------------------------------------------------- 

 POTCAR:    PAW_PBE C 08Apr2002                   
   VRHFIN =C: s2p2                                                              
   LEXCH  = PE                                                                  
   EATOM  =   147.1560 eV,   10.8157 Ry                                         
                                                                                
   TITEL  = PAW_PBE C 08Apr2002                                                 
   LULTRA =        F    use ultrasoft PP ?                                      
   IUNSCR =        1    unscreen: 0-lin 1-nonlin 2-no                           
   RPACOR =    1.200    partial core radius                                     
   POMASS =   12.011; ZVAL   =    4.000    mass and valenz                      
   RCORE  =    1.500    outmost cutoff radius                                   
   RWIGS  =    1.630; RWIGS  =    0.863    wigner-seitz radius (au A)           
   ENMAX  =  400.000; ENMIN  =  300.000 eV                                      
   ICORE  =        2    local potential                                         
   LCOR   =        T    correct aug charges                                     
   LPAW   =        T    paw PP                                                  
   EAUG   =  644.873                                                            
   DEXC   =    0.000                                                            
   RMAX   =    1.529    core radius for proj-oper                               
   RAUG   =    1.300    factor for augmentation sphere                          
   RDEP   =    1.501    radius for radial grids                                 
   RDEPT  =    1.300    core radius for aug-charge                              
                                                                                
   Atomic configuration                                                         
    4 entries                                                                   
     n  l   j            E        occ.                                          
     1  0  0.50      -273.3789   2.0000                                         
     2  0  0.50       -13.7508   2.0000                                         
     2  1  0.50        -5.2854   2.0000                                         
     3  2  1.50        -5.4423   0.0000                                         
   Description                                                                  
     l       E           TYP  RCUT    TYP  RCUT                                 
     0    -13.7508458     23  1.200                                             
     0     -8.2022199     23  1.200                                             
     1     -5.2854383     23  1.500                                             
     1     34.0145650     23  1.500                                             
     2     -5.4423304      7  1.500                                             
  local pseudopotential read in
  partial core-charges read in
  partial kinetic energy density read in
  atomic valenz-charges read in
  non local Contribution for L=           0  read in
    real space projection operators read in
  non local Contribution for L=           0  read in
    real space projection operators read in
  non local Contribution for L=           1  read in
    real space projection operators read in
  non local Contribution for L=           1  read in
    real space projection operators read in
    PAW grid and wavefunctions read in
 
   number of l-projection  operators is LMAX  =           4
   number of lm-projection operators is LMMAX =           8
 
 POTCAR:    PAW_PBE N 08Apr2002                   
   VRHFIN =N: s2p3                                                              
   LEXCH  = PE                                                                  
   EATOM  =   264.5486 eV,   19.4438 Ry                                         
                                                                                
   TITEL  = PAW_PBE N 08Apr2002                                                 
   LULTRA =        F    use ultrasoft PP ?                                      
   IUNSCR =        1    unscreen: 0-lin 1-nonlin 2-no                           
   RPACOR =    1.200    partial core radius                                     
   POMASS =   14.001; ZVAL   =    5.000    mass and valenz                      
   RCORE  =    1.500    outmost cutoff radius                                   
   RWIGS  =    1.400; RWIGS  =    0.741    wigner-seitz radius (au A)           
   ENMAX  =  400.000; ENMIN  =  300.000 eV                                      
   ICORE  =        2    local potential                                         
   LCOR   =        T    correct aug charges                                     
   LPAW   =        T    paw PP                                                  
   EAUG   =  627.112                                                            
   DEXC   =    0.000                                                            
   RMAX   =    1.529    core radius for proj-oper                               
   RAUG   =    1.300    factor for augmentation sphere                          
   RDEP   =    1.514    radius for radial grids                                 
   RDEPT  =    1.338    core radius for aug-charge                              
                                                                                
   Atomic configuration                                                         
    4 entries                                                                   
     n  l   j            E        occ.                                          
     1  0  0.50      -384.7179   2.0000                                         
     2  0  0.50       -18.5828   2.0000                                         
     2  1  0.50        -7.0898   3.0000                                         
     3  2  1.50        -6.8029   0.0000                                         
   Description                                                                  
     l       E           TYP  RCUT    TYP  RCUT                                 
     0    -18.5828119     23  1.200                                             
     0    -13.5018863     23  1.200                                             
     1     -7.0897853     23  1.500                                             
     1      9.5240782     23  1.500                                             
     2     -6.8029130      7  1.500                                             
  local pseudopotential read in
  partial core-charges read in
  partial kinetic energy density read in
  atomic valenz-charges read in
  non local Contribution for L=           0  read in
    real space projection operators read in
  non local Contribution for L=           0  read in
    real space projection operators read in
  non local Contribution for L=           1  read in
    real space projection operators read in
  non local Contribution for L=           1  read in
    real space projection operators read in
    PAW grid and wavefunctions read in
 
   number of l-projection  operators is LMAX  =           4
   number of lm-projection operators is LMMAX =           8
 
 POTCAR:    PAW_PBE Fe 06Sep2000                  
   VRHFIN =Fe:  d7 s1                                                           
   LEXCH  = PE                                                                  
   EATOM  =   594.3153 eV,   43.6809 Ry                                         
                                                                                
   TITEL  = PAW_PBE Fe 06Sep2000                                                
   LULTRA =        F    use ultrasoft PP ?                                      
   IUNSCR =        1    unscreen: 0-lin 1-nonlin 2-no                           
   RPACOR =    2.000    partial core radius                                     
   POMASS =   55.847; ZVAL   =    8.000    mass and valenz                      
   RCORE  =    2.300    outmost cutoff radius                                   
   RWIGS  =    2.460; RWIGS  =    1.302    wigner-seitz radius (au A)           
   ENMAX  =  267.882; ENMIN  =  200.911 eV                                      
   RCLOC  =    1.701    cutoff for local pot                                    
   LCOR   =        T    correct aug charges                                     
   LPAW   =        T    paw PP                                                  
   EAUG   =  511.368                                                            
   DEXC   =    0.000                                                            
   RMAX   =    2.356    core radius for proj-oper                               
   RAUG   =    1.300    factor for augmentation sphere                          
   RDEP   =    2.442    radius for radial grids                                 
   RDEPT  =    1.890    core radius for aug-charge                              
                                                                                
   Atomic configuration                                                         
    9 entries                                                                   
     n  l   j            E        occ.                                          
     1  0  0.50     -6993.8440   2.0000                                         
     2  0  0.50      -814.6047   2.0000                                         
     2  1  1.50      -693.3689   6.0000                                         
     3  0  0.50       -89.4732   2.0000                                         
     3  1  1.50       -55.6373   6.0000                                         
     3  2  2.50        -3.8151   7.0000                                         
     4  0  0.50        -4.2551   1.0000                                         
     4  1  1.50        -3.4015   0.0000                                         
     4  3  2.50        -1.3606   0.0000                                         
   Description                                                                  
     l       E           TYP  RCUT    TYP  RCUT                                 
     2     -3.8151135     23  2.300                                             
     2     -5.1756961     23  2.300                                             
     0     -4.2550963     23  2.300                                             
     0      7.2035603     23  2.300                                             
     1     -2.7211652     23  2.300                                             
     1     18.4316424     23  2.300                                             
  local pseudopotential read in
  partial core-charges read in
  partial kinetic energy density read in
  atomic valenz-charges read in
  non local Contribution for L=           2  read in
    real space projection operators read in
  non local Contribution for L=           2  read in
    real space projection operators read in
  non local Contribution for L=           0  read in
    real space projection operators read in
  non local Contribution for L=           0  read in
    real space projection operators read in
  non local Contribution for L=           1  read in
    real space projection operators read in
  non local Contribution for L=           1  read in
    real space projection operators read in
    PAW grid and wavefunctions read in
 
   number of l-projection  operators is LMAX  =           6
   number of lm-projection operators is LMMAX =          18
 
 POTCAR:    PAW_PBE Cr 06Sep2000                  
   VRHFIN =Cr : d5 s1                                                           
   LEXCH  = PE                                                                  
   EATOM  =   276.8859 eV,   20.3505 Ry                                         
                                                                                
   TITEL  = PAW_PBE Cr 06Sep2000                                                
   LULTRA =        F    use ultrasoft PP ?                                      
   IUNSCR =        1    unscreen: 0-lin 1-nonlin 2-no                           
   RPACOR =    2.080    partial core radius                                     
   POMASS =   51.996; ZVAL   =    6.000    mass and valenz                      
   RCORE  =    2.500    outmost cutoff radius                                   
   RWIGS  =    2.500; RWIGS  =    1.323    wigner-seitz radius (au A)           
   ENMAX  =  227.080; ENMIN  =  170.310 eV                                      
   RCLOC  =    1.721    cutoff for local pot                                    
   LCOR   =        T    correct aug charges                                     
   LPAW   =        T    paw PP                                                  
   EAUG   =  402.108                                                            
   DEXC   =    0.000                                                            
   RMAX   =    2.552    core radius for proj-oper                               
   RAUG   =    1.300    factor for augmentation sphere                          
   RDEP   =    2.609    radius for radial grids                                 
   RDEPT  =    2.065    core radius for aug-charge                              
                                                                                
   Atomic configuration                                                         
    9 entries                                                                   
     n  l   j            E        occ.                                          
     1  0  0.50     -5880.4963   2.0000                                         
     2  0  0.50      -667.0865   2.0000                                         
     2  1  1.50      -560.6250   6.0000                                         
     3  0  0.50       -73.9860   2.0000                                         
     3  1  1.50       -45.4378   6.0000                                         
     3  2  2.50        -2.9137   5.0000                                         
     4  0  0.50        -4.0071   1.0000                                         
     4  1  0.50        -1.2789   0.0000                                         
     4  3  2.50        -1.3606   0.0000                                         
   Description                                                                  
     l       E           TYP  RCUT    TYP  RCUT                                 
     2     -2.9136677     23  2.500                                             
     2     -4.2742503     23  2.500                                             
     0     -4.0071322     23  2.500                                             
     0      9.4498801     23  2.500                                             
     1     -5.4423304     23  2.500                                             
     1     27.2116520     23  2.500                                             
  local pseudopotential read in
  partial core-charges read in
  partial kinetic energy density read in
  atomic valenz-charges read in
  non local Contribution for L=           2  read in
    real space projection operators read in
  non local Contribution for L=           2  read in
    real space projection operators read in
  non local Contribution for L=           0  read in
    real space projection operators read in
  non local Contribution for L=           0  read in
    real space projection operators read in
  non local Contribution for L=           1  read in
    real space projection operators read in
  non local Contribution for L=           1  read in
    real space projection operators read in
    PAW grid and wavefunctions read in
 
   number of l-projection  operators is LMAX  =           6
   number of lm-projection operators is LMMAX =          18
 

 ----------------------------------------------------------------------------- 
|                                                                             |
|  ADVICE TO THIS USER RUNNING 'VASP/VAMP'   (HEAR YOUR MASTER'S VOICE ...):  |
|                                                                             |
|      You have a (more or less) 'large supercell' and for larger cells       |
|      it might be more efficient to use real space projection opertators     |
|      So try LREAL= Auto  in the INCAR   file.                               |
|      Mind:          For very  accurate calculation you might also keep the  |
|      reciprocal projection scheme          (i.e. LREAL=.FALSE.)             |
|                                                                             |
 ----------------------------------------------------------------------------- 

  PAW_PBE C 08Apr2002                   :
 energy of atom  1       EATOM= -147.1560
 kinetic energy error for atom=    0.0076 (will be added to EATOM!!)
  PAW_PBE N 08Apr2002                   :
 energy of atom  2       EATOM= -264.5486
 kinetic energy error for atom=    0.0138 (will be added to EATOM!!)
  PAW_PBE Fe 06Sep2000                  :
 energy of atom  3       EATOM= -594.3153
 kinetic energy error for atom=    0.0026 (will be added to EATOM!!)
  PAW_PBE Cr 06Sep2000                  :
 energy of atom  4       EATOM= -276.8859
 kinetic energy error for atom=    0.0012 (will be added to EATOM!!)
 
 
 POSCAR:  C  N Fe Cr                             
  positions in cartesian coordinates
  No initial velocities read in
 exchange correlation table for  LEXCH =        8
   RHO(1)=    0.500       N(1)  =     2000
   RHO(2)=  100.500       N(2)  =     4000

 VTST: version 3.2, (02/03/18)

 CHAIN: initializing optimizer
 
 OPT: Using VASP Conjugate-Gradient optimizer
 CHAIN: Read ICHAIN            0
 
 POSCAR:  C  N Fe Cr                             
  positions in cartesian coordinates
  No initial velocities read in
 


--------------------------------------------------------------------------------------------------------


 ion  position               nearest neighbor table
   1  0.225  1.000  0.500-  18 1.46   4 1.46   3 1.47
   2  0.057  0.099  0.500-   7 1.43   3 1.43  33 1.45
   3  0.113  1.000  0.500-   2 1.43  16 1.43   1 1.47
   4  0.280  0.103  0.500-   1 1.46   5 1.46  20 1.47
   5  0.221  0.204  0.500-  53 1.39   7 1.45   4 1.46
   6  0.050  0.298  0.500-  10 1.41  37 1.43   7 1.43
   7  0.110  0.200  0.500-   2 1.43   6 1.43   5 1.45
   8  0.208  0.398  0.500-  53 1.38  10 1.40  11 1.41
   9  0.048  0.499  0.500-  41 1.41  10 1.42  14 1.42
  10  0.101  0.399  0.500-   8 1.40   6 1.41   9 1.42
  11  0.260  0.498  0.499-  55 1.34   8 1.41  12 1.43
  12  0.208  0.600  0.500-  54 1.38  14 1.40  11 1.43
  13  0.051  0.701  0.500-  14 1.41  45 1.43  17 1.43
  14  0.101  0.600  0.500-  12 1.40  13 1.41   9 1.42
  15  0.221  0.795  0.500-  54 1.39  17 1.45  18 1.47
  16  0.057  0.901  0.500-  17 1.43   3 1.43  49 1.45
  17  0.110  0.799  0.500-  16 1.43  13 1.43  15 1.45
  18  0.280  0.897  0.500-   1 1.46  15 1.47  28 1.47
  19  0.557  0.000  0.500-  22 1.43  29 1.43  21 1.45
  20  0.392  0.104  0.500-  50 1.43  21 1.46   4 1.47
  21  0.446  0.001  0.500-  28 1.45  19 1.45  20 1.46
  22  0.614  0.099  0.500-  23 1.42  19 1.43  31 1.44
  23  0.560  0.199  0.500-  22 1.42  50 1.43  24 1.46
  24  0.616  0.301  0.500-  51 1.42  35 1.43  23 1.46
  25  0.613  0.502  0.499-  56 1.39  39 1.44  51 1.44
  26  0.617  0.699  0.500-  56 1.37  43 1.42  27 1.47
  27  0.560  0.801  0.500-  52 1.42  29 1.42  26 1.47
  28  0.393  0.898  0.500-  52 1.43  21 1.45  18 1.47
  29  0.615  0.901  0.500-  27 1.42  19 1.43  47 1.44
  30  0.891  0.000  0.500-  33 1.42  49 1.42  32 1.45
  31  0.724  0.099  0.500-  32 1.42  36 1.42  22 1.44
  32  0.780  0.000  0.500-  47 1.42  31 1.42  30 1.45
  33  0.946  0.099  0.500-  30 1.42  34 1.43   2 1.45
  34  0.889  0.198  0.500-  37 1.42  33 1.43  36 1.43
  35  0.725  0.299  0.500-  40 1.42  24 1.43  36 1.43
  36  0.779  0.199  0.500-  31 1.42  35 1.43  34 1.43
  37  0.942  0.299  0.500-  34 1.42   6 1.43  38 1.43
  38  0.887  0.399  0.500-  41 1.42  40 1.43  37 1.43
  39  0.723  0.500  0.500-  44 1.43  40 1.43  25 1.44
  40  0.778  0.400  0.500-  35 1.42  38 1.43  39 1.43
  41  0.940  0.500  0.500-   9 1.41  42 1.42  38 1.42
  42  0.887  0.601  0.500-  41 1.42  44 1.43  45 1.43
  43  0.726  0.701  0.500-  44 1.42  26 1.42  48 1.43
  44  0.779  0.600  0.500-  43 1.42  42 1.43  39 1.43
  45  0.942  0.701  0.500-  46 1.42  13 1.43  42 1.43
  46  0.889  0.802  0.500-  45 1.42  49 1.43  48 1.43
  47  0.725  0.901  0.500-  32 1.42  48 1.42  29 1.44
  48  0.780  0.802  0.500-  47 1.42  43 1.43  46 1.43
  49  0.946  0.901  0.500-  30 1.42  46 1.43  16 1.45
  50  0.451  0.202  0.499-  23 1.43  20 1.43  57 1.94
  51  0.559  0.400  0.499-  24 1.42  25 1.44  57 1.95
  52  0.452  0.800  0.500-  27 1.42  28 1.43  58 2.00
  53  0.268  0.305  0.499-   8 1.38   5 1.39  57 2.04
  54  0.267  0.694  0.500-  12 1.38  15 1.39  58 2.04
  55  0.362  0.496  0.498-  11 1.34  57 1.86  58 1.94
  56  0.565  0.603  0.499-  26 1.37  25 1.39  58 2.02
  57  0.416  0.356  0.499-  55 1.86  50 1.94  51 1.95  53 2.04
  58  0.415  0.643  0.499-  55 1.94  52 2.00  56 2.02  54 2.04
 
  LATTYP: Found a triclinic cell.
 ALAT       =    13.1147399389
 B/A-ratio  =     1.8046248686
 C/A-ratio  =     0.9379178522
 COS(alpha) =     0.0009124578
 COS(beta)  =     0.0016389727
 COS(gamma) =     0.5546469135
  
  Lattice vectors:
  
 A1 = ( -13.1147271703,  -0.0181853769,  -0.0020510142)
 A2 = ( -13.1238370650,  -0.0195863102, -19.6951822185)
 A3 = (  -0.0031040048, -12.3005482974,   0.0008136345)


Analysis of symmetry for initial positions (statically):
=====================================================================
 Subroutine PRICEL returns:
 Original cell was already a primitive cell.
 

 Routine SETGRP: Setting up the symmetry group for a 
 triclinic supercell.


 Subroutine GETGRP returns: Found  1 space group operations
 (whereof  1 operations were pure point group operations)
 out of a pool of  2 trial point group operations.


The static configuration has the point symmetry C_1 .


Analysis of symmetry for dynamics (positions and initial velocities):
=====================================================================
 Subroutine PRICEL returns:
 Original cell was already a primitive cell.
 

 Routine SETGRP: Setting up the symmetry group for a 
 triclinic supercell.


 Subroutine GETGRP returns: Found  1 space group operations
 (whereof  1 operations were pure point group operations)
 out of a pool of  2 trial point group operations.


The dynamic configuration has the point symmetry C_1 .


Analysis of structural, dynamic, and magnetic symmetry:
=====================================================================
 Subroutine PRICEL returns:
 Original cell was already a primitive cell.
 

 Routine SETGRP: Setting up the symmetry group for a 
 triclinic supercell.


 Subroutine GETGRP returns: Found  1 space group operations
 (whereof  1 operations were pure point group operations)
 out of a pool of  2 trial point group operations.


The magnetic configuration has the point symmetry C_1 .


 Subroutine INISYM returns: Found  1 space group operations
 (whereof  1 operations are pure point group operations),
 and found     1 'primitive' translations

 
 
 KPOINTS: KPOINTS created by Atomic Simulation Env

Automatic generation of k-mesh.
Space group operators:
 irot       det(A)        alpha          n_x          n_y          n_z        tau_x        tau_y        tau_z
    1     1.000000     0.000001     1.000000     0.000000     0.000000     0.000000     0.000000     0.000000
 
 Subroutine IBZKPT returns following result:
 ===========================================
 
 Found      2 irreducible k-points:
 
 Following reciprocal coordinates:
            Coordinates               Weight
  0.250000  0.250000  0.000000      2.000000
 -0.250000  0.250000 -0.000000      2.000000
 
 Following cartesian coordinates:
            Coordinates               Weight
  0.019034  0.020319 -0.000010      2.000000
 -0.019091  0.020329  0.000007      2.000000
 
 
 Subroutine IBZKPT_HF returns following result:
 ==============================================
 
 Found      4 k-points in 1st BZ
 the following      4 k-points will be used (e.g. in the exchange kernel)
 Following reciprocal coordinates:   # in IRBZ
  0.250000  0.250000  0.000000    0.25000000   1 t-inv F
 -0.250000  0.250000 -0.000000    0.25000000   2 t-inv F
 -0.250000 -0.250000 -0.000000    0.25000000   1 t-inv T
  0.250000 -0.250000  0.000000    0.25000000   2 t-inv T


--------------------------------------------------------------------------------------------------------




 Dimension of arrays:
   k-points           NKPTS =      2   k-points in BZ     NKDIM =      4   number of bands    NBANDS=    155
   number of dos      NEDOS =    301   number of ions     NIONS =     58
   non local maximal  LDIM  =      6   non local SUM 2l+1 LMDIM =     18
   total plane-waves  NPLWV = ******
   max r-space proj   IRMAX =      1   max aug-charges    IRDMAX=  20204
   dimension x,y,z NGX =    96 NGY =   90 NGZ =  144
   dimension x,y,z NGXF=   192 NGYF=  180 NGZF=  288
   support grid    NGXF=   192 NGYF=  180 NGZF=  288
   ions per type =              52   4   1   1
   NGX,Y,Z   is equivalent  to a cutoff of  12.17, 12.16, 12.16 a.u.
   NGXF,Y,Z  is equivalent  to a cutoff of  24.34, 24.33, 24.31 a.u.

 SYSTEM =  unknown system                          
 POSCAR =   C  N Fe Cr                             

 Startparameter for this run:
   NWRITE =      2    write-flag & timer
   PREC   = accura    normal or accurate (medium, high low for compatibility)
   ISTART =      1    job   : 0-new  1-cont  2-samecut
   ICHARG =      0    charge: 1-file 2-atom 10-const
   ISPIN  =      2    spin polarized calculation?
   LNONCOLLINEAR =      F non collinear calculations
   LSORBIT =      F    spin-orbit coupling
   INIWAV =      1    electr: 0-lowe 1-rand  2-diag
   LASPH  =      T    aspherical Exc in radial PAW
   METAGGA=      F    non-selfconsistent MetaGGA calc.

 Electronic Relaxation 1
   ENCUT  =  500.0 eV  36.75 Ry    6.06 a.u.  23.91 22.43 35.91*2*pi/ulx,y,z
   ENINI  =  500.0     initial cutoff
   ENAUG  =  644.9 eV  augmentation charge cutoff
   NELM   =    250;   NELMIN=  2; NELMDL=  0     # of ELM steps 
   EDIFF  = 0.1E-03   stopping-criterion for ELM
   LREAL  =      F    real-space projection
   NLSPLINE    = F    spline interpolate recip. space projectors
   LCOMPAT=      F    compatible to vasp.4.4
   GGA_COMPAT  = T    GGA compatible to vasp.4.4-vasp.4.6
   LMAXPAW     = -100 max onsite density
   LMAXMIX     =    2 max onsite mixed and CHGCAR
   VOSKOWN=      0    Vosko Wilk Nusair interpolation
   ROPT   =    0.00000   0.00000   0.00000   0.00000
 Ionic relaxation
   EDIFFG = -.3E-01   stopping-criterion for IOM
   NSW    =      0    number of steps for IOM
   NBLOCK =      1;   KBLOCK =      1    inner block; outer block 
   IBRION =     -1    ionic relax: 0-MD 1-quasi-New 2-CG
   NFREE  =      1    steps in history (QN), initial steepest desc. (CG)
   ISIF   =      2    stress and relaxation
   IWAVPR =     10    prediction:  0-non 1-charg 2-wave 3-comb
   ISYM   =      3    0-nonsym 1-usesym 2-fastsym
   LCORR  =      T    Harris-Foulkes like correction to forces

   POTIM  = 0.5000    time-step for ionic-motion
   TEIN   =    0.0    initial temperature
   TEBEG  =    0.0;   TEEND  =   0.0 temperature during run
   SMASS  =  -3.00    Nose mass-parameter (am)
   estimated Nose-frequenzy (Omega)   =  0.10E-29 period in steps =****** mass=  -0.393E-26a.u.
   SCALEE = 1.0000    scale energy and forces
   NPACO  =    256;   APACO  = 16.0  distance and # of slots for P.C.
   PSTRESS=    0.0 pullay stress

  Mass of Ions in am
   POMASS =  12.01 14.00 55.85 52.00
  Ionic Valenz
   ZVAL   =   4.00  5.00  8.00  6.00
  Atomic Wigner-Seitz radii
   RWIGS  =  -1.00 -1.00 -1.00 -1.00
  virtual crystal weights 
   VCA    =   1.00  1.00  1.00  1.00
   NELECT =     242.0000    total number of electrons
   NUPDOWN=      -1.0000    fix difference up-down

 DOS related values:
   EMIN   =  10.00;   EMAX   =-10.00  energy-range for DOS
   EFERMI =   0.00
   ISMEAR =     0;   SIGMA  =   0.10  broadening in eV -4-tet -1-fermi 0-gaus

 Electronic relaxation 2 (details)
   IALGO  =     53    algorithm
   LDIAG  =      T    sub-space diagonalisation (order eigenvalues)
   LSUBROT=      F    optimize rotation matrix (better conditioning)
   TURBO    =      0    0=normal 1=particle mesh
   IRESTART =      0    0=no restart 2=restart with 2 vectors
   NREBOOT  =      0    no. of reboots
   NMIN     =      0    reboot dimension
   EREF     =   0.00    reference energy to select bands
   IMIX   =      4    mixing-type and parameters
     AMIX     =   0.40;   BMIX     =  1.00
     AMIX_MAG =   1.60;   BMIX_MAG =  1.00
     AMIN     =   0.10
     WC   =   100.;   INIMIX=   1;  MIXPRE=   1;  MAXMIX= -45

 Intra band minimization:
   WEIMIN = 0.0000     energy-eigenvalue tresh-hold
   EBREAK =  0.16E-06  absolut break condition
   DEPER  =   0.30     relativ break condition  

   TIME   =   0.20     timestep for ELM

  volume/ion in A,a.u.               =      54.77       369.63
  Fermi-wavevector in a.u.,A,eV,Ry     =   0.693980  1.311433  6.552685  0.481609
  Thomas-Fermi vector in A             =   1.776346
 
 Write flags
   LWAVE        =      T    write WAVECAR
   LDOWNSAMPLE  =      F    k-point downsampling of WAVECAR
   LCHARG       =      T    write CHGCAR
   LVTOT        =      F    write LOCPOT, total local potential
   LVHAR        =      F    write LOCPOT, Hartree potential only
   LELF         =      F    write electronic localiz. function (ELF)
   LORBIT       =     11    0 simple, 1 ext, 2 COOP (PROOUT), +10 PAW based schemes


 Dipole corrections
   LMONO  =      F    monopole corrections only (constant potential shift)
   LDIPOL =      T    correct potential (dipole corrections)
   IDIPOL =      3    1-x, 2-y, 3-z, 4-all directions 
   EPSILON=  1.0000000 bulk dielectric constant

 Exchange correlation treatment:
   GGA     =    PE    GGA type
   LEXCH   =     8    internal setting for exchange type
   VOSKOWN=      0    Vosko Wilk Nusair interpolation
   EXXOEP  =     0    0=HF, 1=EXX-LHF (local Hartree Fock) 2=EXX OEP
   LHFCALC =     T    Hartree Fock is set to
   LSYMGRAD=     F    symmetrize gradient (conserves proper symmetry)
   PRECFOCK=normal    Normal, Fast or Accurate (Low or Medium for compatibility)
   LRHFCALC=     F    long range Hartree Fock
   LRSCOR  =     F    long range correlation only (use DFT for short range part)
   LTHOMAS =     F    Thomas Fermi screening in HF
   LMODELHF=     F    short range full HF, long range fraction AEXX
   ENCUT4O =  -1.0   cutoff for four orbital integrals eV
   LMAXFOCK=     4    L truncation for augmentation on plane wave grid
   LMAXFOCKAE=  -1    L truncation for all-electron charge restoration on plane wave grid
   NMAXFOCKAE=   1    number of basis functions for all-electron charge restoration
   LFOCKAEDFT=     F  apply the AE augmentation even for DFT
   NKREDX  =     1    reduce k-point grid by
   NKREDY  =     1    reduce k-point grid by
   NKREDZ  =     1    reduce k-point grid by
   SHIFTRED=     F    shift reduced grid of Gamma
   HFKIDENT=     F    idential grid for each k-point
   ODDONLY =     F    use only odd q-grid points
   EVENONLY=     F    use only even q-grid points
   HFALPHA =   -1.0000 decay constant for conv. correction
   MCALPHA =    0.0000 extent of test-charge in conv. correction in multipole expansion
   AEXX    =    0.2500 exact exchange contribution
   HFSCREEN=    0.2000 screening length (either q_TF or 0.3 A-1)
   HFSCREENC=   0.2000 screening length for correlation (either q_TF or 0.3 A-1)
   HFRCUT  =    0.0000 spherical cutoff for potential kernel
   ALDAX   =    0.7500 LDA exchange part
   AGGAX   =    0.7500 GGA exchange part
   ALDAC   =    1.0000 LDA correlation
   AGGAC   =    1.0000 GGA correlation
   ENCUTFOCK=  -1.0 apply spherical cutoff to Coloumb kernel
   NBANDSGWLOW=     1    first orbital included in HF term
   NBLOCK_FOCK=    64    blocking factor in FOCK_ACC
 Linear response parameters
   LEPSILON=     F    determine dielectric tensor
   LRPA    =     F    only Hartree local field effects (RPA)
   LNABLA  =     F    use nabla operator in PAW spheres
   LVEL    =     F    velocity operator in full k-point grid
   LINTERFAST=   F  fast interpolation
   KINTER  =     0    interpolate to denser k-point grid
   CSHIFT  =0.1000    complex shift for real part using Kramers Kronig
   OMEGAMAX=  -1.0    maximum frequency
   DEG_THRESHOLD= 0.2000000E-02 threshold for treating states as degnerate
   RTIME   =   -0.100 relaxation time in fs
  (WPLASMAI=    0.000 imaginary part of plasma frequency in eV, 0.658/RTIME)
   DFIELD  = 0.0000000 0.0000000 0.0000000 field for delta impulse in time
 
 Orbital magnetization related:
   ORBITALMAG=     F  switch on orbital magnetization
   LCHIMAG   =     F  perturbation theory with respect to B field
   DQ        =  0.001000  dq finite difference perturbation B field
   LLRAUG    =     F  two centre corrections for induced B field



--------------------------------------------------------------------------------------------------------


 Static calculation
 charge density and potential will be updated during run
 spin polarized calculation
 Conjugate gradient for all bands (Freysoldt, et al. PRB 79, 241103 (2009))
 perform sub-space diagonalisation
    before iterative eigenvector-optimisation
 modified Broyden-mixing scheme, WC =      100.0
 initial mixing is a Kerker type mixing with AMIX =  0.4000 and BMIX =      1.0000
 Hartree-type preconditioning will be used
 using additional bands           34
 reciprocal scheme for non local part
 use partial core corrections
 no Harris-corrections to forces 
 use gradient corrections 
 use of overlap-Matrix (Vanderbilt PP)
 Gauss-broadening in eV      SIGMA  =   0.10


--------------------------------------------------------------------------------------------------------


  energy-cutoff  :      500.00
  volume of cell :     3176.86
      direct lattice vectors                 reciprocal lattice vectors
    13.114727170  0.018185377  0.002051014     0.076250189 -0.000019244 -0.000035271
     0.003104005 12.300548297 -0.000813634    -0.000112729  0.081297217 -0.000005731
     0.009109895  0.001400933 19.693131204    -0.000007946  0.000003361  0.050779130

  length of vectors
    13.114739939 12.300548716 19.693133361     0.076250199  0.081297295  0.050779131


 
 old parameters found on file WAVECAR:
  energy-cutoff  :      500.00
  volume of cell :     3176.86
      direct lattice vectors                 reciprocal lattice vectors
    13.035000000  0.000000000  0.000000000     0.076716532  0.000087166 -0.000023042
    -0.013944808 12.273092078  0.000000000     0.000000000  0.081479060 -0.000010978
     0.005961275  0.002675485 19.857898925     0.000000000  0.000000000  0.050357795

  length of vectors

 
 k-points in units of 2pi/SCALE and weight: KPOINTS created by Atomic Simulation Env
   0.01903436  0.02031949 -0.00001025       0.500
  -0.01909073  0.02032912  0.00000739       0.500
 
 k-points in reciprocal lattice and weights: KPOINTS created by Atomic Simulation Env
   0.25000000  0.25000000  0.00000000       0.500
  -0.25000000  0.25000000 -0.00000000       0.500
 
 position of ions in fractional coordinates (direct lattice) 
   0.22530153  0.99978843  0.49979264
   0.05681099  0.09922873  0.49996629
   0.11348591  0.99981706  0.49991252
   0.28000597  0.10320416  0.49961330
   0.22093461  0.20429648  0.49958069
   0.05042329  0.29795027  0.50008762
   0.11014772  0.20024169  0.49988504
   0.20797385  0.39794831  0.49960102
   0.04794978  0.49943038  0.50028143
   0.10110824  0.39866368  0.50009373
   0.26038103  0.49837283  0.49924611
   0.20833182  0.60036443  0.49973640
   0.05097813  0.70135966  0.50019263
   0.10137303  0.59999915  0.50018316
   0.22086152  0.79512166  0.49982278
   0.05684702  0.90050428  0.50003460
   0.11025258  0.79931039  0.50004163
   0.28024739  0.89663246  0.49980788
   0.55734018  0.00001026  0.49997771
   0.39213568  0.10413893  0.49958703
   0.44642900  0.00083526  0.49983819
   0.61426779  0.09916642  0.49993343
   0.56003408  0.19894769  0.49960517
   0.61597693  0.30115232  0.49956093
   0.61333216  0.50200132  0.49947334
   0.61731741  0.69865820  0.49977661
   0.55992163  0.80121897  0.49990803
   0.39269806  0.89774011  0.49983955
   0.61478386  0.90081841  0.50005937
   0.89081525  0.00004484  0.50012289
   0.72428398  0.09922686  0.50007959
   0.78040878  0.00017680  0.50014723
   0.94618669  0.09937818  0.50009237
   0.88859543  0.19830884  0.50013326
   0.72464490  0.29948440  0.49989525
   0.77934267  0.19880233  0.50006815
   0.94153827  0.29862816  0.50017918
   0.88676236  0.39924119  0.50019555
   0.72341140  0.50038421  0.49984515
   0.77798731  0.39988120  0.49999050
   0.94041410  0.49966804  0.50028208
   0.88748543  0.60054533  0.50019757
   0.72577695  0.70081109  0.49997024
   0.77880735  0.60017821  0.50000497
   0.94205657  0.70107393  0.50020166
   0.88903003  0.80161364  0.50013847
   0.72457397  0.90121768  0.50012248
   0.77981730  0.80155816  0.50009896
   0.94631399  0.90054204  0.50010920
   0.45103966  0.20211598  0.49935359
   0.55914260  0.39992200  0.49921105
   0.45161311  0.79990057  0.49979857
   0.26788102  0.30535936  0.49927492
   0.26674385  0.69356068  0.49954208
   0.36249542  0.49550090  0.49842759
   0.56458130  0.60273017  0.49942428
   0.41627742  0.35556322  0.49871326
   0.41473171  0.64256005  0.49892107
 
 position of ions in cartesian coordinates  (Angst):
   2.96242445 12.30274324  9.84213073
   0.74992333  1.22230136  9.84593760
   1.49599435 12.30106217  9.84426206
   3.67707368  1.27525972  9.83944068
   2.90268233  2.51767640  9.83859506
   0.66676830  3.66656927  9.84815212
   1.44973270  2.46578599  9.84436459
   2.73330690  4.89946439  9.83881118
   0.63495602  6.14484033  9.85179992
   1.33180019  4.90632111  9.84829436
   3.42092126  6.13569360  9.83184761
   2.73863102  7.38930035  9.84131336
   0.67529805  8.62873619  9.84989299
   1.33589864  7.38286272  9.84989232
   2.90355995  9.78514910  9.84288157
   0.75288361 11.07843072  9.84663095
   1.45296887  9.83466160  9.84696126
   3.68270446 11.03486745  9.84262734
   7.31391916  0.01096211  9.84726969
   5.14762690  1.28879699  9.83915249
   5.85935058  0.01909287  9.84429409
   8.06081666  1.23167244  9.84643383
   7.34986309  2.45805000  9.83977699
   8.08385511  3.71624024  9.83893736
   8.04979234  6.18674485  9.83704362
   8.10267091  8.60580524  9.84286398
   7.35026053  9.86631536  9.84525097
   5.15746798 11.05053717  9.84348081
   8.07007420 11.09244093  9.84826275
  11.68735515  0.01745201  9.85081272
   9.50365041  1.23441669  9.84953769
  10.23940501  0.01706749  9.85106555
  12.41384458  1.24031345  9.85024435
  11.65885837  2.45616756  9.85085117
   9.50900380  3.69770053  9.84574534
  10.22603913  2.46025090  9.84934434
  12.35350108  3.69111307  9.85178243
  11.63544245  4.92771235  9.85191050
   9.49344986  6.16885588  9.84459267
  10.20888735  4.93360647  9.84764873
  12.33938287  6.16399347  9.85364299
  11.64555017  7.40387688  9.85178798
   9.52509668  8.63425957  9.84689789
  10.22026387  7.39738450  9.84777256
  12.36154776  8.64142618  9.85189860
  11.66643072  9.87715529  9.85046375
   9.50994332 11.09934889  9.84973054
  10.23413505  9.87448674  9.84946163
  12.41800101 11.09507050  9.84992426
   5.92043846  2.49503927  9.83459636
   7.33879176  4.93012741  9.83185004
   5.92981871  9.84812856  9.84287421
   3.51868263  3.76165854  9.83258753
   3.50497640  8.53672727  9.83753056
   4.76010719  6.10222313  9.81594030
   7.41075032  7.42487834  9.83589545
   5.46501171  4.38189135  9.82179021
   5.44563282  7.91208198  9.82564589
 


--------------------------------------------------------------------------------------------------------


 k-point  1 :   0.2500 0.2500 0.0000  plane waves:   80658
 k-point  2 :  -0.2500 0.2500-0.0000  plane waves:   80666

 maximum and minimum number of plane-waves per node :      2559     2495

 maximum number of plane-waves:     80666
 maximum index in each direction: 
   IXMAX=   24   IYMAX=   22   IZMAX=   35
   IXMIN=  -24   IYMIN=  -22   IZMIN=  -35


 parallel 3D FFT for wavefunctions:
    minimum data exchange during FFTs selected (reduces bandwidth)
 parallel 3D FFT for charge:
    minimum data exchange during FFTs selected (reduces bandwidth)


 FFT grid for exact exchange (Hartree Fock) 
  NGX = 72; NGY = 70; NGZ =108

 
 Radii for the augmentation spheres in the non-local exchange
 for species   1 augmentation radius   0.874 (default was   0.699)
       energy cutoff for augmentation   2000.0
 for species   2 augmentation radius   0.886 (default was   0.709)
       energy cutoff for augmentation   2000.0
 for species   3 augmentation radius   1.263 (default was   1.010)
       energy cutoff for augmentation   2000.0
 for species   4 augmentation radius   1.424 (default was   1.139)
       energy cutoff for augmentation   2000.0

 real space projection operators:
  total allocation   :       2549.90 KBytes
  max/ min on nodes  :        133.23         45.00

 Maximum index for augmentation-charges in exchange          183
  SETUP_FOCK is finished

 total amount of memory used by VASP MPI-rank0   160972. kBytes
=======================================================================

   base      :      30000. kBytes
   nonl-proj :       5339. kBytes
   fftplans  :      12934. kBytes
   grid      :      33177. kBytes
   one-center:         62. kBytes
   HF        :         23. kBytes
   nonlr-proj:       2271. kBytes
   wavefun   :      77166. kBytes
 
     INWAV:  cpu time    3.4991: real time    3.4998
 Broyden mixing: mesh for mixing (old mesh)
   NGX = 47   NGY = 45   NGZ = 71
  (NGX  =192   NGY  =180   NGZ  =288)
  gives a total of 150165 points

 charge density for first step will be calculated from the start-wavefunctions


--------------------------------------------------------------------------------------------------------


 Maximum index for augmentation-charges          239 (set IRDMAX)


--------------------------------------------------------------------------------------------------------


 initial charge from wavefunction
 First call to EWALD:  gamma=   0.121
 Maximum number of real-space cells 3x 3x 2
 Maximum number of reciprocal cells 3x 2x 4

    FEWALD:  cpu time    0.0031: real time    0.0031


--------------------------------------- Iteration      1(   1)  ---------------------------------------


    POTLOK:  cpu time    1.2473: real time    1.2519
    SETDIJ:  cpu time    2.0880: real time    2.0926
    TRIAL :  cpu time  516.6171: real time  516.7041
    CORREC:  cpu time    0.0023: real time    0.0025
    CHARGE:  cpu time    1.6146: real time    1.6148
    --------------------------------------------
      LOOP:  cpu time  521.5850: real time  521.6842

 eigenvalue-minimisations  :     0
 total energy-change (2. order) :-0.6091839E+03  (-0.5039636E+00)
 number of electron     242.0000028 magnetization       0.0809928
 augmentation part       12.3390754 magnetization       0.1286042

 DIPCOR: dipole corrections for dipol
 direction  3 min pos     1,
 dipolmoment           0.000001      0.000000      0.001812 electrons x Angstroem
 Tr[quadrupol]     -6450.987955

 energy correction for charged system         0.000000 eV
 dipol+quadrupol energy correction            0.000000 eV
 added-field ion interaction          0.000000 eV  (added to PSCEN)


 Free energy of the ion-electron system (eV)
  ---------------------------------------------------
  alpha Z        PSCENC =        99.74307093
  Ewald energy   TEWEN  =     37307.44825311
  -Hartree energ DENC   =    -45478.55899398
  -exchange      EXHF   =       544.44722282
  -V(xc)+E(xc)   XCENC  =       598.25240259
  PAW double counting   =     25703.33691067   -25726.38991961
  entropy T*S    EENTRO =        -0.01989277
  eigenvalues    EBANDS =     -3125.56493455
  atomic energy  EATOM  =      9468.12998047
  ---------------------------------------------------
  free energy    TOTEN  =      -609.18392753 eV

  energy without entropy =     -609.16403476  energy(sigma->0) =     -609.17398115
  exchange ACFDT corr.  =        -0.04497660  see jH, gK, PRB 81, 115126


--------------------------------------------------------------------------------------------------------




--------------------------------------- Iteration      1(   2)  ---------------------------------------


    POTLOK:  cpu time    1.2624: real time    1.2626
    SETDIJ:  cpu time    2.0953: real time    2.0954
    TRIAL :  cpu time  514.3101: real time  514.3836
    CORREC:  cpu time    0.0022: real time    0.0024
    CHARGE:  cpu time    1.6059: real time    1.6063
    --------------------------------------------
      LOOP:  cpu time  519.2784: real time  519.3527

 eigenvalue-minimisations  :     0
 total energy-change (2. order) :-0.3966077E+00  (-0.4448402E+00)
 number of electron     242.0000028 magnetization       0.0567747
 augmentation part       12.3273814 magnetization       0.0990794

 DIPCOR: dipole corrections for dipol
 direction  3 min pos     1,
 dipolmoment           0.000001      0.000000      0.001935 electrons x Angstroem
 Tr[quadrupol]     -6450.798038

 energy correction for charged system         0.000000 eV
 dipol+quadrupol energy correction            0.000000 eV
 added-field ion interaction          0.000000 eV  (added to PSCEN)


 Free energy of the ion-electron system (eV)
  ---------------------------------------------------
  alpha Z        PSCENC =        99.74307094
  Ewald energy   TEWEN  =     37307.44825311
  -Hartree energ DENC   =    -45460.41796508
  -exchange      EXHF   =       544.36975897
  -V(xc)+E(xc)   XCENC  =       597.90515017
  PAW double counting   =     25826.57603250   -25849.18974900
  entropy T*S    EENTRO =        -0.01381067
  eigenvalues    EBANDS =     -3144.12517449
  atomic energy  EATOM  =      9468.12998047
  ---------------------------------------------------
  free energy    TOTEN  =      -609.58053518 eV

  energy without entropy =     -609.56672451  energy(sigma->0) =     -609.57362985
  exchange ACFDT corr.  =        -0.04010726  see jH, gK, PRB 81, 115126


--------------------------------------------------------------------------------------------------------




--------------------------------------- Iteration      1(   3)  ---------------------------------------


    POTLOK:  cpu time    1.2641: real time    1.2642
    SETDIJ:  cpu time    2.0882: real time    2.0884
    TRIAL :  cpu time  513.9136: real time  513.9790
    CORREC:  cpu time    0.0022: real time    0.0024
    CHARGE:  cpu time    1.6074: real time    1.6075
    --------------------------------------------
      LOOP:  cpu time  518.8782: real time  518.9442

 eigenvalue-minimisations  :     0
 total energy-change (2. order) :-0.3448431E+00  (-0.2614935E+00)
 number of electron     242.0000027 magnetization       0.0323604
 augmentation part       12.3174846 magnetization       0.0735112

 DIPCOR: dipole corrections for dipol
 direction  3 min pos     1,
 dipolmoment           0.000001      0.000000      0.001615 electrons x Angstroem
 Tr[quadrupol]     -6450.618599

 energy correction for charged system         0.000000 eV
 dipol+quadrupol energy correction            0.000000 eV
 added-field ion interaction          0.000000 eV  (added to PSCEN)


 Free energy of the ion-electron system (eV)
  ---------------------------------------------------
  alpha Z        PSCENC =        99.74307091
  Ewald energy   TEWEN  =     37307.44825311
  -Hartree energ DENC   =    -45445.66303101
  -exchange      EXHF   =       544.33974275
  -V(xc)+E(xc)   XCENC  =       597.58762439
  PAW double counting   =     25989.11289848   -26011.83971097
  entropy T*S    EENTRO =        -0.00806616
  eigenvalues    EBANDS =     -3158.77039578
  atomic energy  EATOM  =      9468.12998047
  ---------------------------------------------------
  free energy    TOTEN  =      -609.92537831 eV

  energy without entropy =     -609.91731215  energy(sigma->0) =     -609.92134523
  exchange ACFDT corr.  =        -0.01501541  see jH, gK, PRB 81, 115126


--------------------------------------------------------------------------------------------------------




--------------------------------------- Iteration      1(   4)  ---------------------------------------


    POTLOK:  cpu time    1.2651: real time    1.2656
    SETDIJ:  cpu time    2.0851: real time    2.0852
    TRIAL :  cpu time  511.6857: real time  511.7567
    CORREC:  cpu time    0.0022: real time    0.0024
    CHARGE:  cpu time    1.6061: real time    1.6063
    --------------------------------------------
      LOOP:  cpu time  516.6470: real time  516.7189

 eigenvalue-minimisations  :     0
 total energy-change (2. order) :-0.2018306E+00  (-0.1654175E+00)
 number of electron     242.0000027 magnetization       0.0157821
 augmentation part       12.3114383 magnetization       0.0611938

 DIPCOR: dipole corrections for dipol
 direction  3 min pos     1,
 dipolmoment           0.000001      0.000000      0.001713 electrons x Angstroem
 Tr[quadrupol]     -6450.542083

 energy correction for charged system         0.000000 eV
 dipol+quadrupol energy correction            0.000000 eV
 added-field ion interaction          0.000000 eV  (added to PSCEN)


 Free energy of the ion-electron system (eV)
  ---------------------------------------------------
  alpha Z        PSCENC =        99.74307092
  Ewald energy   TEWEN  =     37307.44825311
  -Hartree energ DENC   =    -45438.60063395
  -exchange      EXHF   =       544.50031825
  -V(xc)+E(xc)   XCENC  =       597.47297577
  PAW double counting   =     26127.91965249   -26150.69863828
  entropy T*S    EENTRO =        -0.00399356
  eigenvalues    EBANDS =     -3166.03412148
  atomic energy  EATOM  =      9468.12998047
  ---------------------------------------------------
  free energy    TOTEN  =      -610.12720886 eV

  energy without entropy =     -610.12321530  energy(sigma->0) =     -610.12521208
  exchange ACFDT corr.  =        -0.00670423  see jH, gK, PRB 81, 115126


--------------------------------------------------------------------------------------------------------




--------------------------------------- Iteration      1(   5)  ---------------------------------------


    POTLOK:  cpu time    1.2657: real time    1.2658
    SETDIJ:  cpu time    2.0909: real time    2.0910
    TRIAL :  cpu time  511.0695: real time  511.1438
    CORREC:  cpu time    0.0021: real time    0.0023
    CHARGE:  cpu time    1.6088: real time    1.6089
    --------------------------------------------
      LOOP:  cpu time  516.0393: real time  516.1141

 eigenvalue-minimisations  :     0
 total energy-change (2. order) :-0.1321979E+00  (-0.1076256E+00)
 number of electron     242.0000027 magnetization       0.0077348
 augmentation part       12.3147389 magnetization       0.0581405

 DIPCOR: dipole corrections for dipol
 direction  3 min pos     1,
 dipolmoment           0.000001      0.000000      0.002030 electrons x Angstroem
 Tr[quadrupol]     -6450.561818

 energy correction for charged system         0.000000 eV
 dipol+quadrupol energy correction            0.000000 eV
 added-field ion interaction          0.000000 eV  (added to PSCEN)


 Free energy of the ion-electron system (eV)
  ---------------------------------------------------
  alpha Z        PSCENC =        99.74307095
  Ewald energy   TEWEN  =     37307.44825311
  -Hartree energ DENC   =    -45438.56592560
  -exchange      EXHF   =       544.79620437
  -V(xc)+E(xc)   XCENC  =       597.53996477
  PAW double counting   =     26226.54677027   -26249.27444460
  entropy T*S    EENTRO =        -0.00197667
  eigenvalues    EBANDS =     -3166.61928692
  atomic energy  EATOM  =      9468.12998047
  ---------------------------------------------------
  free energy    TOTEN  =      -610.25940675 eV

  energy without entropy =     -610.25743008  energy(sigma->0) =     -610.25841842
  exchange ACFDT corr.  =        -0.00339403  see jH, gK, PRB 81, 115126


--------------------------------------------------------------------------------------------------------




--------------------------------------- Iteration      1(   6)  ---------------------------------------


    POTLOK:  cpu time    1.2632: real time    1.2634
    SETDIJ:  cpu time    2.1005: real time    2.1008
    TRIAL :  cpu time  511.8163: real time  512.0057
    CORREC:  cpu time    0.0021: real time    0.0023
    CHARGE:  cpu time    1.6094: real time    1.6095
    --------------------------------------------
      LOOP:  cpu time  516.7937: real time  516.9837

 eigenvalue-minimisations  :     0
 total energy-change (2. order) :-0.8947294E-01  (-0.7293868E-01)
 number of electron     242.0000027 magnetization       0.0040512
 augmentation part       12.3228442 magnetization       0.0579155

 DIPCOR: dipole corrections for dipol
 direction  3 min pos     1,
 dipolmoment           0.000001      0.000000      0.002234 electrons x Angstroem
 Tr[quadrupol]     -6450.620377

 energy correction for charged system         0.000000 eV
 dipol+quadrupol energy correction            0.000000 eV
 added-field ion interaction          0.000000 eV  (added to PSCEN)


 Free energy of the ion-electron system (eV)
  ---------------------------------------------------
  alpha Z        PSCENC =        99.74307098
  Ewald energy   TEWEN  =     37307.44825311
  -Hartree energ DENC   =    -45442.13626548
  -exchange      EXHF   =       545.11226272
  -V(xc)+E(xc)   XCENC  =       597.68687639
  PAW double counting   =     26290.91434989   -26313.66308525
  entropy T*S    EENTRO =        -0.00105081
  eigenvalues    EBANDS =     -3163.58234584
  atomic energy  EATOM  =      9468.12998047
  ---------------------------------------------------
  free energy    TOTEN  =      -610.34887969 eV

  energy without entropy =     -610.34782888  energy(sigma->0) =     -610.34835428
  exchange ACFDT corr.  =        -0.00097784  see jH, gK, PRB 81, 115126


--------------------------------------------------------------------------------------------------------




--------------------------------------- Iteration      1(   7)  ---------------------------------------


    POTLOK:  cpu time    1.2639: real time    1.2641
    SETDIJ:  cpu time    2.0898: real time    2.0900
    TRIAL :  cpu time  510.4685: real time  510.5448
    CORREC:  cpu time    0.0020: real time    0.0022
    CHARGE:  cpu time    1.6036: real time    1.6038
    --------------------------------------------
      LOOP:  cpu time  515.4301: real time  515.5071

 eigenvalue-minimisations  :     0
 total energy-change (2. order) :-0.6278033E-01  (-0.5137297E-01)
 number of electron     242.0000027 magnetization       0.0022617
 augmentation part       12.3296909 magnetization       0.0578614

 DIPCOR: dipole corrections for dipol
 direction  3 min pos     1,
 dipolmoment           0.000001      0.000000      0.002278 electrons x Angstroem
 Tr[quadrupol]     -6450.673340

 energy correction for charged system         0.000000 eV
 dipol+quadrupol energy correction            0.000000 eV
 added-field ion interaction          0.000000 eV  (added to PSCEN)


 Free energy of the ion-electron system (eV)
  ---------------------------------------------------
  alpha Z        PSCENC =        99.74307098
  Ewald energy   TEWEN  =     37307.44825311
  -Hartree energ DENC   =    -45446.01986195
  -exchange      EXHF   =       545.37672768
  -V(xc)+E(xc)   XCENC  =       597.83156501
  PAW double counting   =     26330.53744507   -26353.38028848
  entropy T*S    EENTRO =        -0.00059706
  eigenvalues    EBANDS =     -3160.07750112
  atomic energy  EATOM  =      9468.12998047
  ---------------------------------------------------
  free energy    TOTEN  =      -610.41166002 eV

  energy without entropy =     -610.41106296  energy(sigma->0) =     -610.41136149
  exchange ACFDT corr.  =        -0.00044801  see jH, gK, PRB 81, 115126


--------------------------------------------------------------------------------------------------------




--------------------------------------- Iteration      1(   8)  ---------------------------------------


    POTLOK:  cpu time    1.2616: real time    1.2617
    SETDIJ:  cpu time    2.0870: real time    2.0871
    TRIAL :  cpu time  510.7022: real time  510.7819
    CORREC:  cpu time    0.0019: real time    0.0021
    CHARGE:  cpu time    1.6017: real time    1.6020
    --------------------------------------------
      LOOP:  cpu time  515.6567: real time  515.7372

 eigenvalue-minimisations  :     0
 total energy-change (2. order) :-0.4501670E-01  (-0.3692497E-01)
 number of electron     242.0000027 magnetization       0.0013374
 augmentation part       12.3335370 magnetization       0.0579693

 DIPCOR: dipole corrections for dipol
 direction  3 min pos     1,
 dipolmoment           0.000001      0.000000      0.002262 electrons x Angstroem
 Tr[quadrupol]     -6450.704523

 energy correction for charged system         0.000000 eV
 dipol+quadrupol energy correction            0.000000 eV
 added-field ion interaction          0.000000 eV  (added to PSCEN)


 Free energy of the ion-electron system (eV)
  ---------------------------------------------------
  alpha Z        PSCENC =        99.74307098
  Ewald energy   TEWEN  =     37307.44825311
  -Hartree energ DENC   =    -45448.56956812
  -exchange      EXHF   =       545.56836104
  -V(xc)+E(xc)   XCENC  =       597.93699650
  PAW double counting   =     26353.18473104   -26376.11610432
  entropy T*S    EENTRO =        -0.00035915
  eigenvalues    EBANDS =     -3157.78180035
  atomic energy  EATOM  =      9468.12998047
  ---------------------------------------------------
  free energy    TOTEN  =      -610.45667672 eV

  energy without entropy =     -610.45631757  energy(sigma->0) =     -610.45649714
  exchange ACFDT corr.  =        -0.00022968  see jH, gK, PRB 81, 115126


--------------------------------------------------------------------------------------------------------




--------------------------------------- Iteration      1(   9)  ---------------------------------------


    POTLOK:  cpu time    1.2613: real time    1.2613
    SETDIJ:  cpu time    2.0870: real time    2.0872
    TRIAL :  cpu time  510.2349: real time  510.3184
    CORREC:  cpu time    0.0018: real time    0.0021
    CHARGE:  cpu time    1.6028: real time    1.6030
    --------------------------------------------
      LOOP:  cpu time  515.1901: real time  515.2765

 eigenvalue-minimisations  :     0
 total energy-change (2. order) :-0.3289332E-01  (-0.2728526E-01)
 number of electron     242.0000027 magnetization       0.0008380
 augmentation part       12.3356056 magnetization       0.0584321

 DIPCOR: dipole corrections for dipol
 direction  3 min pos     1,
 dipolmoment           0.000001      0.000000      0.002262 electrons x Angstroem
 Tr[quadrupol]     -6450.716839

 energy correction for charged system         0.000000 eV
 dipol+quadrupol energy correction            0.000000 eV
 added-field ion interaction          0.000000 eV  (added to PSCEN)


 Free energy of the ion-electron system (eV)
  ---------------------------------------------------
  alpha Z        PSCENC =        99.74307098
  Ewald energy   TEWEN  =     37307.44825311
  -Hartree energ DENC   =    -45449.67730831
  -exchange      EXHF   =       545.69784502
  -V(xc)+E(xc)   XCENC  =       598.00173329
  PAW double counting   =     26365.11940536   -26388.09924739
  entropy T*S    EENTRO =        -0.00022873
  eigenvalues    EBANDS =     -3156.85294342
  atomic energy  EATOM  =      9468.12998047
  ---------------------------------------------------
  free energy    TOTEN  =      -610.48957004 eV

  energy without entropy =     -610.48934131  energy(sigma->0) =     -610.48945568
  exchange ACFDT corr.  =        -0.00012810  see jH, gK, PRB 81, 115126


--------------------------------------------------------------------------------------------------------




--------------------------------------- Iteration      1(  10)  ---------------------------------------


    POTLOK:  cpu time    1.2579: real time    1.2579
    SETDIJ:  cpu time    2.0872: real time    2.0874
    TRIAL :  cpu time  510.8366: real time  510.9121
    CORREC:  cpu time    0.0019: real time    0.0021
    CHARGE:  cpu time    1.6048: real time    1.6049
    --------------------------------------------
      LOOP:  cpu time  515.7907: real time  515.8667

 eigenvalue-minimisations  :     0
 total energy-change (2. order) :-0.2459329E-01  (-0.2044625E-01)
 number of electron     242.0000027 magnetization       0.0005562
 augmentation part       12.3374913 magnetization       0.0588531

 DIPCOR: dipole corrections for dipol
 direction  3 min pos     1,
 dipolmoment           0.000001      0.000000      0.002283 electrons x Angstroem
 Tr[quadrupol]     -6450.719187

 energy correction for charged system         0.000000 eV
 dipol+quadrupol energy correction            0.000000 eV
 added-field ion interaction          0.000000 eV  (added to PSCEN)


 Free energy of the ion-electron system (eV)
  ---------------------------------------------------
  alpha Z        PSCENC =        99.74307098
  Ewald energy   TEWEN  =     37307.44825311
  -Hartree energ DENC   =    -45449.92879353
  -exchange      EXHF   =       545.78617316
  -V(xc)+E(xc)   XCENC  =       598.03941071
  PAW double counting   =     26370.90721943   -26393.91021688
  entropy T*S    EENTRO =        -0.00015427
  eigenvalues    EBANDS =     -3156.72903206
  atomic energy  EATOM  =      9468.12998047
  ---------------------------------------------------
  free energy    TOTEN  =      -610.51416333 eV

  energy without entropy =     -610.51400906  energy(sigma->0) =     -610.51408619
  exchange ACFDT corr.  =        -0.00007701  see jH, gK, PRB 81, 115126


--------------------------------------------------------------------------------------------------------




--------------------------------------- Iteration      1(  11)  ---------------------------------------


    POTLOK:  cpu time    1.2531: real time    1.2532
    SETDIJ:  cpu time    2.0875: real time    2.0877
    TRIAL :  cpu time  510.9639: real time  511.0377
    CORREC:  cpu time    0.0019: real time    0.0019
    CHARGE:  cpu time    1.5999: real time    1.6003
    --------------------------------------------
      LOOP:  cpu time  515.9081: real time  515.9826

 eigenvalue-minimisations  :     0
 total energy-change (2. order) :-0.1859128E-01  (-0.1548248E-01)
 number of electron     242.0000027 magnetization       0.0003890
 augmentation part       12.3396715 magnetization       0.0588516

 DIPCOR: dipole corrections for dipol
 direction  3 min pos     1,
 dipolmoment           0.000001      0.000000      0.002307 electrons x Angstroem
 Tr[quadrupol]     -6450.718933

 energy correction for charged system         0.000000 eV
 dipol+quadrupol energy correction            0.000000 eV
 added-field ion interaction          0.000000 eV  (added to PSCEN)


 Free energy of the ion-electron system (eV)
  ---------------------------------------------------
  alpha Z        PSCENC =        99.74307099
  Ewald energy   TEWEN  =     37307.44825311
  -Hartree energ DENC   =    -45449.92706534
  -exchange      EXHF   =       545.85208661
  -V(xc)+E(xc)   XCENC  =       598.06457359
  PAW double counting   =     26373.66520085   -26396.69205607
  entropy T*S    EENTRO =        -0.00010966
  eigenvalues    EBANDS =     -3156.81664455
  atomic energy  EATOM  =      9468.12998047
  ---------------------------------------------------
  free energy    TOTEN  =      -610.53275461 eV

  energy without entropy =     -610.53264495  energy(sigma->0) =     -610.53269978
  exchange ACFDT corr.  =        -0.00004965  see jH, gK, PRB 81, 115126


--------------------------------------------------------------------------------------------------------




--------------------------------------- Iteration      1(  12)  ---------------------------------------


    POTLOK:  cpu time    1.2525: real time    1.2525
    SETDIJ:  cpu time    2.0846: real time    2.0848
    TRIAL :  cpu time  510.7306: real time  510.8089
    CORREC:  cpu time    0.0019: real time    0.0021
    CHARGE:  cpu time    1.5993: real time    1.5995
    --------------------------------------------
      LOOP:  cpu time  515.6711: real time  515.7500

 eigenvalue-minimisations  :     0
 total energy-change (2. order) :-0.1419111E-01  (-0.1185876E-01)
 number of electron     242.0000027 magnetization       0.0002847
 augmentation part       12.3417344 magnetization       0.0584355

 DIPCOR: dipole corrections for dipol
 direction  3 min pos     1,
 dipolmoment           0.000001      0.000000      0.002326 electrons x Angstroem
 Tr[quadrupol]     -6450.719494

 energy correction for charged system         0.000000 eV
 dipol+quadrupol energy correction            0.000000 eV
 added-field ion interaction          0.000000 eV  (added to PSCEN)


 Free energy of the ion-electron system (eV)
  ---------------------------------------------------
  alpha Z        PSCENC =        99.74307099
  Ewald energy   TEWEN  =     37307.44825311
  -Hartree energ DENC   =    -45449.97856009
  -exchange      EXHF   =       545.90679116
  -V(xc)+E(xc)   XCENC  =       598.08571681
  PAW double counting   =     26375.28836724   -26398.34770709
  entropy T*S    EENTRO =        -0.00008153
  eigenvalues    EBANDS =     -3156.82274866
  atomic energy  EATOM  =      9468.12998047
  ---------------------------------------------------
  free energy    TOTEN  =      -610.54694571 eV

  energy without entropy =     -610.54686419  energy(sigma->0) =     -610.54690495
  exchange ACFDT corr.  =        -0.00003404  see jH, gK, PRB 81, 115126


--------------------------------------------------------------------------------------------------------




--------------------------------------- Iteration      1(  13)  ---------------------------------------


    POTLOK:  cpu time    1.2511: real time    1.2513
    SETDIJ:  cpu time    2.0867: real time    2.0868
    TRIAL :  cpu time  510.3115: real time  510.4331
    CORREC:  cpu time    0.0018: real time    0.0020
    CHARGE:  cpu time    1.6061: real time    1.6062
    --------------------------------------------
      LOOP:  cpu time  515.2591: real time  515.3832

 eigenvalue-minimisations  :     0
 total energy-change (2. order) :-0.1093813E-01  (-0.9163930E-02)
 number of electron     242.0000027 magnetization       0.0002166
 augmentation part       12.3432977 magnetization       0.0578043

 DIPCOR: dipole corrections for dipol
 direction  3 min pos     1,
 dipolmoment           0.000001      0.000000      0.002342 electrons x Angstroem
 Tr[quadrupol]     -6450.721234

 energy correction for charged system         0.000000 eV
 dipol+quadrupol energy correction            0.000000 eV
 added-field ion interaction          0.000000 eV  (added to PSCEN)


 Free energy of the ion-electron system (eV)
  ---------------------------------------------------
  alpha Z        PSCENC =        99.74307099
  Ewald energy   TEWEN  =     37307.44825311
  -Hartree energ DENC   =    -45450.11861579
  -exchange      EXHF   =       545.95467339
  -V(xc)+E(xc)   XCENC  =       598.10522486
  PAW double counting   =     26376.76366632   -26399.85606807
  entropy T*S    EENTRO =        -0.00006296
  eigenvalues    EBANDS =     -3156.72798760
  atomic energy  EATOM  =      9468.12998047
  ---------------------------------------------------
  free energy    TOTEN  =      -610.55788384 eV

  energy without entropy =     -610.55782088  energy(sigma->0) =     -610.55785236
  exchange ACFDT corr.  =        -0.00002456  see jH, gK, PRB 81, 115126


--------------------------------------------------------------------------------------------------------




--------------------------------------- Iteration      1(  14)  ---------------------------------------


    POTLOK:  cpu time    1.2462: real time    1.2463
    SETDIJ:  cpu time    2.0839: real time    2.0841
    TRIAL :  cpu time  510.5878: real time  510.6677
    CORREC:  cpu time    0.0017: real time    0.0019
    CHARGE:  cpu time    1.5992: real time    1.5995
    --------------------------------------------
      LOOP:  cpu time  515.5210: real time  515.6017

 eigenvalue-minimisations  :     0
 total energy-change (2. order) :-0.8495242E-02  (-0.7134892E-02)
 number of electron     242.0000027 magnetization       0.0001704
 augmentation part       12.3443796 magnetization       0.0571779

 DIPCOR: dipole corrections for dipol
 direction  3 min pos     1,
 dipolmoment           0.000001      0.000000      0.002361 electrons x Angstroem
 Tr[quadrupol]     -6450.723452

 energy correction for charged system         0.000000 eV
 dipol+quadrupol energy correction            0.000000 eV
 added-field ion interaction          0.000000 eV  (added to PSCEN)


 Free energy of the ion-electron system (eV)
  ---------------------------------------------------
  alpha Z        PSCENC =        99.74307099
  Ewald energy   TEWEN  =     37307.44825311
  -Hartree energ DENC   =    -45450.28499732
  -exchange      EXHF   =       545.99677131
  -V(xc)+E(xc)   XCENC  =       598.12276845
  PAW double counting   =     26378.39281263   -26401.51102034
  entropy T*S    EENTRO =        -0.00005025
  eigenvalues    EBANDS =     -3156.60395544
  atomic energy  EATOM  =      9468.12998047
  ---------------------------------------------------
  free energy    TOTEN  =      -610.56637909 eV

  energy without entropy =     -610.56632884  energy(sigma->0) =     -610.56635396
  exchange ACFDT corr.  =        -0.00001850  see jH, gK, PRB 81, 115126


--------------------------------------------------------------------------------------------------------




--------------------------------------- Iteration      1(  15)  ---------------------------------------


    POTLOK:  cpu time    1.2461: real time    1.2463
    SETDIJ:  cpu time    2.0827: real time    2.0828
    TRIAL :  cpu time  510.7628: real time  510.8370
    CORREC:  cpu time    0.0017: real time    0.0019
    CHARGE:  cpu time    1.6021: real time    1.6023
    --------------------------------------------
      LOOP:  cpu time  515.6978: real time  515.7725

 eigenvalue-minimisations  :     0
 total energy-change (2. order) :-0.6641099E-02  (-0.5586936E-02)
 number of electron     242.0000027 magnetization       0.0001382
 augmentation part       12.3452191 magnetization       0.0566620

 DIPCOR: dipole corrections for dipol
 direction  3 min pos     1,
 dipolmoment           0.000001      0.000000      0.002382 electrons x Angstroem
 Tr[quadrupol]     -6450.725515

 energy correction for charged system         0.000000 eV
 dipol+quadrupol energy correction            0.000000 eV
 added-field ion interaction          0.000000 eV  (added to PSCEN)


 Free energy of the ion-electron system (eV)
  ---------------------------------------------------
  alpha Z        PSCENC =        99.74307100
  Ewald energy   TEWEN  =     37307.44825311
  -Hartree energ DENC   =    -45450.42844655
  -exchange      EXHF   =       546.03341192
  -V(xc)+E(xc)   XCENC  =       598.13783998
  PAW double counting   =     26380.20086769   -26403.33689642
  entropy T*S    EENTRO =        -0.00004128
  eigenvalues    EBANDS =     -3156.50105114
  atomic energy  EATOM  =      9468.12998047
  ---------------------------------------------------
  free energy    TOTEN  =      -610.57302019 eV

  energy without entropy =     -610.57297891  energy(sigma->0) =     -610.57299955
  exchange ACFDT corr.  =        -0.00001445  see jH, gK, PRB 81, 115126


--------------------------------------------------------------------------------------------------------




--------------------------------------- Iteration      1(  16)  ---------------------------------------


    POTLOK:  cpu time    1.2422: real time    1.2422
    SETDIJ:  cpu time    2.0833: real time    2.0834
    TRIAL :  cpu time  510.6519: real time  510.7319
    CORREC:  cpu time    0.0018: real time    0.0021
    CHARGE:  cpu time    1.6112: real time    1.6114
    --------------------------------------------
      LOOP:  cpu time  515.5928: real time  515.6734

 eigenvalue-minimisations  :     0
 total energy-change (2. order) :-0.5216993E-02  (-0.4398810E-02)
 number of electron     242.0000027 magnetization       0.0001152
 augmentation part       12.3460006 magnetization       0.0562279

 DIPCOR: dipole corrections for dipol
 direction  3 min pos     1,
 dipolmoment           0.000001      0.000000      0.002401 electrons x Angstroem
 Tr[quadrupol]     -6450.727183

 energy correction for charged system         0.000000 eV
 dipol+quadrupol energy correction            0.000000 eV
 added-field ion interaction          0.000000 eV  (added to PSCEN)


 Free energy of the ion-electron system (eV)
  ---------------------------------------------------
  alpha Z        PSCENC =        99.74307100
  Ewald energy   TEWEN  =     37307.44825311
  -Hartree energ DENC   =    -45450.53951715
  -exchange      EXHF   =       546.06517926
  -V(xc)+E(xc)   XCENC  =       598.15056948
  PAW double counting   =     26382.10291222   -26405.25255725
  entropy T*S    EENTRO =        -0.00003478
  eigenvalues    EBANDS =     -3156.42608704
  atomic energy  EATOM  =      9468.12998047
  ---------------------------------------------------
  free energy    TOTEN  =      -610.57823718 eV

  energy without entropy =     -610.57820240  energy(sigma->0) =     -610.57821979
  exchange ACFDT corr.  =        -0.00001166  see jH, gK, PRB 81, 115126


--------------------------------------------------------------------------------------------------------




--------------------------------------- Iteration      1(  17)  ---------------------------------------


    POTLOK:  cpu time    1.2426: real time    1.2426
    SETDIJ:  cpu time    2.0850: real time    2.0851
    TRIAL :  cpu time  511.1876: real time  511.2567
    CORREC:  cpu time    0.0019: real time    0.0021
    CHARGE:  cpu time    1.5984: real time    1.5985
    --------------------------------------------
      LOOP:  cpu time  516.1180: real time  516.1875

 eigenvalue-minimisations  :     0
 total energy-change (2. order) :-0.4118852E-02  (-0.3480234E-02)
 number of electron     242.0000027 magnetization       0.0000981
 augmentation part       12.3467439 magnetization       0.0558173

 DIPCOR: dipole corrections for dipol
 direction  3 min pos     1,
 dipolmoment           0.000001      0.000000      0.002413 electrons x Angstroem
 Tr[quadrupol]     -6450.728454

 energy correction for charged system         0.000000 eV
 dipol+quadrupol energy correction            0.000000 eV
 added-field ion interaction          0.000000 eV  (added to PSCEN)


 Free energy of the ion-electron system (eV)
  ---------------------------------------------------
  alpha Z        PSCENC =        99.74307100
  Ewald energy   TEWEN  =     37307.44825311
  -Hartree energ DENC   =    -45450.62831962
  -exchange      EXHF   =       546.09285700
  -V(xc)+E(xc)   XCENC  =       598.16147055
  PAW double counting   =     26383.98519770   -26407.14768671
  entropy T*S    EENTRO =        -0.00002995
  eigenvalues    EBANDS =     -3156.36714476
  atomic energy  EATOM  =      9468.12998047
  ---------------------------------------------------
  free energy    TOTEN  =      -610.58235603 eV

  energy without entropy =     -610.58232608  energy(sigma->0) =     -610.58234105
  exchange ACFDT corr.  =        -0.00000967  see jH, gK, PRB 81, 115126


--------------------------------------------------------------------------------------------------------




--------------------------------------- Iteration      1(  18)  ---------------------------------------


    POTLOK:  cpu time    1.2410: real time    1.2412
    SETDIJ:  cpu time    2.0835: real time    2.0836
    TRIAL :  cpu time  510.6499: real time  510.7259
    CORREC:  cpu time    0.0018: real time    0.0020
    CHARGE:  cpu time    1.5967: real time    1.5968
    --------------------------------------------
      LOOP:  cpu time  515.5750: real time  515.6517

 eigenvalue-minimisations  :     0
 total energy-change (2. order) :-0.3266326E-02  (-0.2765472E-02)
 number of electron     242.0000027 magnetization       0.0000853
 augmentation part       12.3473880 magnetization       0.0554123

 DIPCOR: dipole corrections for dipol
 direction  3 min pos     1,
 dipolmoment           0.000001      0.000000      0.002420 electrons x Angstroem
 Tr[quadrupol]     -6450.729397

 energy correction for charged system         0.000000 eV
 dipol+quadrupol energy correction            0.000000 eV
 added-field ion interaction          0.000000 eV  (added to PSCEN)


 Free energy of the ion-electron system (eV)
  ---------------------------------------------------
  alpha Z        PSCENC =        99.74307100
  Ewald energy   TEWEN  =     37307.44825311
  -Hartree energ DENC   =    -45450.70277021
  -exchange      EXHF   =       546.11707868
  -V(xc)+E(xc)   XCENC  =       598.17096616
  PAW double counting   =     26385.74907419   -26408.92427759
  entropy T*S    EENTRO =        -0.00002628
[...]
  augment    46.68937    43.07584    49.95432    -2.81630    -0.01541     0.02459
  Kinetic  3599.15604  3565.00835  4054.68616    -0.44024     0.01819     0.21912
  Fock     -307.55251  -304.31982  -287.05609     2.61878     0.01545     0.00974
  -------------------------------------------------------------------------------------
  Total     -42.98663   -41.58731    -0.37875     0.35883     0.00977     0.02477
  in kB     -21.67932   -20.97360    -0.19101     0.18097     0.00493     0.01249
  external pressure =      -14.28 kB  Pullay stress =        0.00 kB


 VOLUME and BASIS-vectors are now :
 -----------------------------------------------------------------------------
  energy-cutoff  :      500.00
  volume of cell :     3176.86
      direct lattice vectors                 reciprocal lattice vectors
    13.114727170  0.018185377  0.002051014     0.076250189 -0.000019244 -0.000035271
     0.003104005 12.300548297 -0.000813634    -0.000112729  0.081297217 -0.000005731
     0.009109895  0.001400933 19.693131204    -0.000007946  0.000003361  0.050779130

  length of vectors
    13.114739939 12.300548716 19.693133361     0.076250199  0.081297295  0.050779131


 FORCES acting on ions:
    Electron-Ion                     Ewald-Force                    Non-Local-Force
 -----------------------------------------------------------------------------------------------
   -.853E+01 0.254E+01 -.278E-01   0.906E+01 -.269E+01 0.328E-01   -.460E+00 0.838E-01 -.539E-02
   -.644E+00 0.712E+01 -.343E+00   0.742E+00 -.748E+01 0.342E+00   -.100E+00 0.331E+00 0.799E-03
   -.166E+02 0.174E+01 -.976E-01   0.169E+02 -.176E+01 0.923E-01   -.327E+00 -.279E-02 0.606E-02
   -.107E+02 0.767E+01 0.610E+00   0.117E+02 -.786E+01 -.617E+00   -.109E+01 0.226E+00 0.870E-02
   -.410E+01 0.452E+02 0.519E+00   0.294E+01 -.490E+02 -.501E+00   0.114E+01 0.361E+01 -.156E-01
   0.805E+01 0.150E+02 -.123E+01   -.823E+01 -.153E+02 0.123E+01   0.248E+00 0.388E+00 -.292E-03
   -.499E+01 0.142E+02 -.328E+00   0.504E+01 -.146E+02 0.327E+00   -.214E-02 0.453E+00 0.863E-03
   0.179E+02 -.996E+01 -.290E+00   -.193E+02 0.129E+02 0.302E+00   0.152E+01 -.313E+01 -.157E-01
   0.235E+01 -.181E+01 -.244E+01   -.260E+01 0.175E+01 0.244E+01   0.197E+00 0.397E-01 -.365E-02
   0.126E+02 -.149E+01 -.198E+01   -.132E+02 0.159E+01 0.199E+01   0.532E+00 -.187E+00 -.133E-01
   0.249E+02 -.166E+02 0.123E+01   -.258E+02 0.164E+02 -.123E+01   0.173E+01 -.539E-01 -.517E-02
   0.368E+01 0.574E+01 -.691E+00   -.508E+01 -.809E+01 0.696E+00   0.149E+01 0.291E+01 -.100E-01
   0.450E+01 -.149E+02 -.157E+01   -.448E+01 0.153E+02 0.157E+01   0.124E+00 -.429E+00 -.111E-02
   0.963E+01 -.168E+01 -.228E+01   -.101E+02 0.153E+01 0.228E+01   0.379E+00 0.222E+00 -.119E-01
   -.146E+02 -.417E+02 -.366E+00   0.136E+02 0.452E+02 0.377E+00   0.934E+00 -.354E+01 -.136E-01
   -.234E+01 -.530E+01 -.561E+00   0.245E+01 0.567E+01 0.562E+00   -.153E+00 -.321E+00 -.726E-03
   -.774E+01 -.123E+02 -.888E+00   0.797E+01 0.128E+02 0.885E+00   -.195E+00 -.487E+00 0.943E-03
   -.140E+02 0.417E+01 -.154E+00   0.154E+02 -.406E+01 0.146E+00   -.139E+01 -.563E-01 0.573E-02
   0.145E+02 0.286E+01 -.980E+00   -.150E+02 -.289E+01 0.974E+00   0.463E+00 0.657E-01 0.326E-02
   0.103E+02 0.190E+01 0.488E+00   -.949E+01 -.112E+01 -.488E+00   -.648E+00 -.626E+00 0.711E-03
   0.833E+01 0.280E+01 -.570E+00   -.902E+01 -.315E+01 0.576E+00   0.674E+00 0.295E+00 -.629E-02
   0.132E+01 0.471E+01 -.821E+00   -.181E+01 -.455E+01 0.824E+00   0.513E+00 -.187E+00 -.418E-02
   0.335E+01 0.174E+00 0.398E+00   -.478E+01 -.206E+00 -.405E+00   0.108E+01 -.151E+00 0.787E-02
   0.415E+01 0.138E+01 0.612E+00   -.515E+01 -.643E+00 -.615E+00   0.764E+00 -.382E+00 0.190E-02
   0.182E+02 0.258E+02 0.987E+00   -.172E+02 -.299E+02 -.985E+00   -.914E+00 0.413E+01 -.150E-02
   0.489E+01 -.322E+02 -.288E+00   -.410E+01 0.357E+02 0.309E+00   -.109E+01 -.388E+01 -.243E-01
   0.129E+02 0.560E+01 -.815E+00   -.155E+02 -.436E+01 0.816E+00   0.228E+01 -.789E+00 -.245E-02
   0.126E+02 0.987E+01 -.544E+00   -.114E+02 -.111E+02 0.546E+00   -.916E+00 0.125E+01 -.392E-02
   0.456E+01 -.187E+01 -.122E+01   -.509E+01 0.148E+01 0.122E+01   0.602E+00 0.352E+00 -.558E-02
   0.464E+01 0.421E+00 -.736E+00   -.459E+01 -.365E+00 0.735E+00   0.406E-01 -.347E-01 0.189E-02
   0.838E+01 0.142E+01 -.101E+01   -.880E+01 -.147E+01 0.101E+01   0.373E+00 -.163E-01 -.239E-03
   -.390E+01 0.672E-01 -.109E+01   0.366E+01 -.114E-01 0.109E+01   0.161E+00 -.385E-01 -.438E-02
   -.747E+01 0.152E+01 -.715E+00   0.756E+01 -.162E+01 0.717E+00   -.925E-01 0.299E-01 -.170E-02
   0.364E+01 0.723E+01 -.969E+00   -.391E+01 -.742E+01 0.967E+00   0.186E+00 0.216E+00 0.828E-03
   0.519E+01 0.366E+01 -.435E+00   -.554E+01 -.379E+01 0.437E+00   0.532E+00 0.196E+00 -.175E-02
   0.193E+01 0.120E+01 -.924E+00   -.211E+01 -.125E+01 0.925E+00   0.226E+00 0.114E+00 -.232E-02
   0.277E+01 0.225E+01 -.132E+01   -.322E+01 -.236E+01 0.132E+01   0.345E+00 0.153E+00 -.108E-02
   0.467E+01 0.356E+01 -.142E+01   -.476E+01 -.371E+01 0.142E+01   0.197E+00 0.895E-01 -.113E-02
   0.699E+01 0.483E+01 -.258E+00   -.731E+01 -.528E+01 0.261E+00   0.298E+00 0.395E+00 -.311E-02
   0.520E+01 -.385E+00 -.667E+00   -.555E+01 0.675E-01 0.662E+00   0.238E+00 0.223E+00 0.437E-02
   0.804E+01 -.107E-02 -.186E+01   -.806E+01 -.106E+00 0.186E+01   0.464E-01 0.883E-01 -.125E-02
   0.310E+01 -.424E+01 -.127E+01   -.283E+01 0.426E+01 0.127E+01   -.139E+00 0.322E-01 -.107E-02
   0.132E+01 -.873E+01 -.511E+00   -.861E+00 0.914E+01 0.514E+00   -.215E+00 -.419E+00 -.855E-03
   0.840E+00 0.156E+01 -.554E+00   -.947E+00 -.171E+01 0.550E+00   -.359E-01 0.219E+00 0.427E-02
   0.105E+01 -.285E+01 -.118E+01   -.146E+01 0.297E+01 0.118E+01   0.257E+00 -.153E+00 0.915E-03
   0.231E+01 -.702E+01 -.735E+00   -.247E+01 0.729E+01 0.734E+00   0.109E+00 -.297E+00 0.316E-02
   0.878E+01 -.105E+01 -.102E+01   -.933E+01 0.134E+01 0.102E+01   0.444E+00 -.175E+00 0.187E-02
   0.189E+01 -.250E+01 -.803E+00   -.196E+01 0.294E+01 0.807E+00   0.932E-01 -.514E+00 -.340E-02
   -.777E+01 -.825E+00 -.655E+00   0.795E+01 0.996E+00 0.657E+00   -.134E+00 -.119E+00 -.541E-03
   0.270E+02 -.717E+01 0.136E+01   -.301E+02 0.129E+02 -.141E+01   0.361E+01 -.604E+01 0.476E-01
   0.355E+02 -.243E+02 0.215E+01   -.424E+02 0.238E+02 -.221E+01   0.744E+01 0.319E+00 0.645E-01
   0.383E+02 0.344E+02 -.687E+00   -.437E+02 -.436E+02 0.656E+00   0.577E+01 0.925E+01 0.304E-01
   -.578E+02 0.370E+02 0.249E+01   0.783E+02 -.361E+02 -.269E+01   -.195E+02 -.803E+00 0.189E+00
   -.866E+02 -.300E+02 0.124E+01   0.109E+03 0.292E+02 -.141E+01   -.215E+02 0.518E+00 0.155E+00
   -.102E+03 -.427E+02 0.878E+01   0.122E+03 0.458E+02 -.915E+01   -.193E+02 -.255E+01 0.347E+00
   0.834E+02 0.172E+02 0.170E+01   -.105E+03 -.182E+02 -.182E+01   0.205E+02 0.105E+01 0.114E+00
   -.458E+02 0.184E+02 0.846E+01   0.470E+02 -.185E+02 -.839E+01   -.242E+01 -.485E+00 -.612E-01
   -.214E+02 -.219E+02 0.551E+01   0.209E+02 0.233E+02 -.544E+01   0.394E-02 -.125E+01 -.751E-01
 -----------------------------------------------------------------------------------------------
   0.169E+02 -.130E+00 -.768E+00   0.359E-12 0.888E-13 -.107E-13   -.151E+02 0.137E+00 0.698E+00
 
 
 POSITION                                       TOTAL-FORCE (eV/Angst)
 -----------------------------------------------------------------------------------
      2.96242     12.30274      9.84213         0.053239     -0.060683     -0.000651
      0.74992      1.22230      9.84594         0.001029     -0.016891      0.000672
      1.49599     12.30106      9.84426        -0.105416     -0.018562      0.001066
      3.67707      1.27526      9.83944        -0.137251      0.046545      0.001880
      2.90268      2.51768      9.83860         0.039768      0.017487      0.001037
      0.66677      3.66657      9.84815         0.089518      0.107262     -0.001474
      1.44973      2.46579      9.84436         0.039374      0.004365     -0.000471
      2.73331      4.89946      9.83881         0.210478     -0.317759     -0.004595
      0.63496      6.14484      9.85180        -0.052038     -0.019384     -0.004959
      1.33180      4.90632      9.84829        -0.043665     -0.111382     -0.004135
      3.42092      6.13569      9.83185         0.905890     -0.260679     -0.010128
      2.73863      7.38930      9.84131         0.169821      0.711822     -0.005822
      0.67530      8.62874      9.84989         0.158258     -0.082079     -0.002327
      1.33590      7.38286      9.84989        -0.014692      0.089088     -0.005717
      2.90356      9.78515      9.84288        -0.038703     -0.277521     -0.003670
      0.75288     11.07843      9.84663        -0.044709      0.031083      0.000279
      1.45297      9.83466      9.84696         0.019301     -0.015170     -0.001736
      3.68270     11.03487      9.84263        -0.074702      0.055557     -0.001952
      7.31392      0.01096      9.84727         0.034996      0.041672     -0.003083
      5.14763      1.28880      9.83915         0.156111      0.121504      0.000311
      5.85935      0.01909      9.84429         0.012711     -0.039208     -0.001357
      8.06082      1.23167      9.84643         0.039971     -0.028313     -0.001759
      7.34986      2.45805      9.83978        -0.297972     -0.194371      0.001384
      8.08386      3.71624      9.83894        -0.206167      0.344144     -0.001214
      8.04979      6.18674      9.83704        -0.029127      0.242697      0.000033
      8.10267      8.60581      9.84286        -0.361849     -0.638342     -0.004643
      7.35026      9.86632      9.84525        -0.278051      0.415237     -0.001729
      5.15747     11.05054      9.84348         0.249776      0.094255     -0.001944
      8.07007     11.09244      9.84826         0.097683     -0.026114     -0.003125
     11.68736      0.01745      9.85081         0.109717      0.019511      0.000127
      9.50365      1.23442      9.84954        -0.021988     -0.072807     -0.003424
     10.23941      0.01707      9.85107        -0.087840      0.015003     -0.002062
     12.41384      1.24031      9.85024        -0.022273     -0.069568     -0.000427
     11.65886      2.45617      9.85085        -0.064600      0.050876     -0.001266
      9.50900      3.69770      9.84575         0.203351      0.084175      0.000368
     10.22604      2.46025      9.84934         0.053713      0.065304     -0.002037
     12.35350      3.69111      9.85178        -0.087466      0.045040     -0.001045
     11.63544      4.92771      9.85191         0.111491     -0.050824     -0.001399
      9.49345      6.16886      9.84459        -0.008740     -0.027630     -0.000646
     10.20889      4.93361      9.84765        -0.098825     -0.086755     -0.000874
     12.33938      6.16399      9.85364         0.032145     -0.012975     -0.001465
     11.64555      7.40388      9.85179         0.121083      0.053805      0.000626
      9.52510      8.63426      9.84690         0.230492     -0.037533      0.001773
     10.22026      7.39738      9.84777        -0.147294      0.087363      0.000822
     12.36155      8.64143      9.85190        -0.144678     -0.033752      0.001028
     11.66643      9.87716      9.85046        -0.037832     -0.047596      0.001708
      9.50994     11.09935      9.84973        -0.067049      0.102065     -0.001822
     10.23414      9.87449      9.84946         0.030114     -0.097775      0.000301
     12.41800     11.09507      9.84992         0.029142      0.049711      0.000980
      5.92044      2.49504      9.83460         0.687993     -0.565655      0.005034
      7.33879      4.93013      9.83185         0.895370     -0.130471      0.010807
      5.92982      9.84813      9.84287         0.646187      0.492498      0.000722
      3.51868      3.76166      9.83259        -0.669569      0.075895      0.011775
      3.50498      8.53673      9.83753        -1.096947     -0.225745      0.002222
      4.76011      6.10222      9.81594        -0.823159      0.297959      0.012975
      7.41075      7.42488      9.83590         1.063936      0.183205      0.007552
      5.46501      4.38189      9.82179        -0.952470     -0.528727      0.014930
      5.44563      7.91208      9.82565        -0.477587      0.149140      0.002546
 -----------------------------------------------------------------------------------
    total drift:                               -0.004244     -0.004416      0.000113


--------------------------------------------------------------------------------------------------------



  FREE ENERGIE OF THE ION-ELECTRON SYSTEM (eV)
  ---------------------------------------------------
  free  energy   TOTEN  =      -610.59994943 eV

  energy  without entropy=     -610.59994055  energy(sigma->0) =     -610.59994499
 


--------------------------------------------------------------------------------------------------------


    POTLOK:  cpu time    3.3133: real time    3.3136


--------------------------------------------------------------------------------------------------------


 stress matrix after NEB project (eV)
    -42.98663      0.35799      0.02477
      0.35883    -41.58731      0.00967
      0.02454      0.00977     -0.37875
  FORCES: max atom, RMS     1.119937    0.429255
  FORCE total and by dimension    3.269112    1.096947
  Stress total and by dimension   59.814352   42.986633
 writing wavefunctions
     LOOP+:  cpu time27430.9088: real time27445.8064
    4ORBIT:  cpu time    0.0000: real time    0.0000
 


 total charge     
 
# of ion       s       p       d       tot
------------------------------------------
    1        0.851   1.694   0.000   2.545
    2        0.862   1.751   0.000   2.613
    3        0.858   1.744   0.000   2.602
    4        0.847   1.706   0.000   2.553
    5        0.849   1.688   0.000   2.537
    6        0.871   1.772   0.000   2.643
    7        0.860   1.758   0.000   2.619
    8        0.875   1.768   0.000   2.643
    9        0.869   1.795   0.000   2.664
   10        0.876   1.814   0.000   2.690
   11        0.878   1.793   0.000   2.670
   12        0.872   1.761   0.000   2.633
   13        0.870   1.769   0.000   2.640
   14        0.876   1.807   0.000   2.683
   15        0.848   1.684   0.000   2.532
   16        0.862   1.752   0.000   2.614
   17        0.861   1.758   0.000   2.619
   18        0.847   1.698   0.000   2.545
   19        0.861   1.747   0.000   2.608
   20        0.854   1.707   0.000   2.561
   21        0.858   1.711   0.000   2.570
   22        0.867   1.764   0.000   2.631
   23        0.872   1.744   0.000   2.616
   24        0.871   1.742   0.000   2.613
   25        0.854   1.695   0.000   2.549
   26        0.867   1.714   0.000   2.582
   27        0.867   1.752   0.000   2.619
   28        0.856   1.707   0.000   2.563
   29        0.867   1.759   0.000   2.626
   30        0.866   1.762   0.000   2.627
   31        0.866   1.766   0.000   2.632
   32        0.866   1.763   0.000   2.629
   33        0.862   1.758   0.000   2.620
   34        0.867   1.770   0.000   2.637
   35        0.870   1.774   0.000   2.643
   36        0.866   1.769   0.000   2.635
   37        0.868   1.778   0.000   2.646
   38        0.867   1.772   0.000   2.639
   39        0.865   1.768   0.000   2.632
   40        0.868   1.775   0.000   2.643
   41        0.872   1.788   0.000   2.660
   42        0.867   1.778   0.000   2.646
   43        0.870   1.787   0.000   2.657
   44        0.872   1.768   0.000   2.639
   45        0.868   1.774   0.000   2.643
   46        0.867   1.770   0.000   2.637
   47        0.867   1.769   0.000   2.636
   48        0.866   1.770   0.000   2.636
   49        0.863   1.758   0.000   2.620
   50        0.870   1.668   0.000   2.538
   51        0.868   1.660   0.000   2.528
   52        0.878   1.682   0.000   2.560
   53        1.231   2.642   0.000   3.873
   54        1.235   2.654   0.000   3.889
   55        1.260   2.603   0.000   3.863
   56        1.237   2.660   0.000   3.897
   57        0.512   0.683   6.019   7.214
   58        0.463   0.650   4.337   5.449
--------------------------------------------------
tot         50.925 102.874  10.356 164.154
 


 magnetization (x)
 
# of ion       s       p       d       tot
------------------------------------------
    1        0.001   0.013   0.000   0.014
    2        0.000   0.001   0.000   0.001
    3       -0.001  -0.007   0.000  -0.008
    4       -0.002  -0.025   0.000  -0.027
    5        0.001   0.008   0.000   0.009
    6        0.000   0.001   0.000   0.001
    7       -0.000  -0.002   0.000  -0.002
    8       -0.003  -0.048   0.000  -0.051
    9       -0.002  -0.037   0.000  -0.039
   10        0.001   0.010   0.000   0.011
   11        0.005   0.026   0.000   0.030
   12       -0.000  -0.026   0.000  -0.026
   13        0.000   0.004   0.000   0.005
   14        0.001   0.007   0.000   0.007
   15        0.002   0.015   0.000   0.017
   16        0.000   0.004   0.000   0.005
   17       -0.001  -0.010   0.000  -0.011
   18       -0.002  -0.031   0.000  -0.033
   19        0.000   0.003   0.000   0.004
   20        0.001  -0.001   0.000   0.000
   21       -0.000  -0.002   0.000  -0.002
   22       -0.001  -0.005   0.000  -0.005
   23       -0.003  -0.012   0.000  -0.016
   24       -0.004  -0.015   0.000  -0.019
   25        0.001   0.004   0.000   0.004
   26        0.002   0.013   0.000   0.015
   27        0.004   0.020   0.000   0.024
   28        0.002   0.016   0.000   0.018
   29       -0.000  -0.009   0.000  -0.010
   30        0.000   0.003   0.000   0.004
   31        0.000   0.003   0.000   0.004
   32       -0.000  -0.001   0.000  -0.001
   33       -0.000  -0.002   0.000  -0.002
   34        0.000   0.002   0.000   0.002
   35        0.001   0.006   0.000   0.007
   36       -0.001  -0.006   0.000  -0.007
   37        0.000  -0.001   0.000  -0.001
   38       -0.001  -0.010   0.000  -0.011
   39       -0.000  -0.010   0.000  -0.011
   40       -0.000  -0.003   0.000  -0.003
   41        0.001   0.009   0.000   0.010
   42       -0.001  -0.009   0.000  -0.010
   43       -0.000  -0.003   0.000  -0.003
   44        0.001   0.012   0.000   0.013
   45        0.000   0.003   0.000   0.003
   46        0.000   0.001   0.000   0.001
   47        0.000   0.003   0.000   0.004
   48       -0.000  -0.005   0.000  -0.006
   49       -0.000  -0.003   0.000  -0.003
   50        0.011   0.036   0.000   0.047
   51        0.013   0.054   0.000   0.067
   52       -0.014  -0.066   0.000  -0.080
   53        0.003  -0.005   0.000  -0.002
   54       -0.009  -0.070   0.000  -0.079
   55       -0.010  -0.221   0.000  -0.231
   56       -0.007  -0.034   0.000  -0.041
   57       -0.060  -0.035  -2.849  -2.945
   58        0.073   0.029   3.409   3.512
--------------------------------------------------
tot          0.004  -0.408   0.560   0.156
 

 total amount of memory used by VASP MPI-rank0   179944. kBytes
=======================================================================

   base      :      30000. kBytes
   nonl-proj :       5339. kBytes
   fftplans  :      12934. kBytes
   grid      :      33177. kBytes
   one-center:         62. kBytes
   HF        :         23. kBytes
   nonlr-proj:      21243. kBytes
   wavefun   :      77166. kBytes
 
  
  
 General timing and accounting informations for this job:
 ========================================================
  
                  Total CPU time used (sec):    27517.602
                            User time (sec):    27475.666
                          System time (sec):       41.936
                         Elapsed time (sec):    27533.546
  
                   Maximum memory used (kb):      411448.
                   Average memory used (kb):           0.
  
                          Minor page faults:       282355
                          Major page faults:            1
                 Voluntary context switches:         1999
