 vasp.5.4.4.18Apr17-6-g9f103f2a35 (build Feb 25 2019 10:51:38) complex          
  
 executed on             LinuxIFC date 2021.03.06  01:15:31
 running on   80 total cores
 distrk:  each k-point on   40 cores,    2 groups
 distr:  one band on NCORES_PER_BAND=  40 cores,    1 groups


--------------------------------------------------------------------------------------------------------


 INCAR:
 POTCAR:    PAW_PBE C 08Apr2002                   
 POTCAR:    PAW_PBE N 08Apr2002                   
 POTCAR:    PAW_PBE Co 02Aug2007                  
 POTCAR:    PAW_PBE Fe 06Sep2000                  

 ----------------------------------------------------------------------------- 
|                                                                             |
|           W    W    AA    RRRRR   N    N  II  N    N   GGGG   !!!           |
|           W    W   A  A   R    R  NN   N  II  NN   N  G    G  !!!           |
|           W    W  A    A  R    R  N N  N  II  N N  N  G       !!!           |
|           W WW W  AAAAAA  RRRRR   N  N N  II  N  N N  G  GGG   !            |
|           WW  WW  A    A  R   R   N   NN  II  N   NN  G    G                |
|           W    W  A    A  R    R  N    N  II  N    N   GGGG   !!!           |
|                                                                             |
|      For optimal performance we recommend to set                            |
|        NCORE= 4 - approx SQRT( number of cores)                             |
|      NCORE specifies how many cores store one orbital (NPAR=cpu/NCORE).     |
|      This setting can  greatly improve the performance of VASP for DFT.     |
|      The default,   NCORE=1            might be grossly inefficient         |
|      on modern multi-core architectures or massively parallel machines.     |
|      Do your own testing !!!!                                               |
|      Unfortunately you need to use the default for GW and RPA calculations. |
|      (for HF NCORE is supported but not extensively tested yet)             |
|                                                                             |
 ----------------------------------------------------------------------------- 


 ----------------------------------------------------------------------------- 
|                                                                             |
|           W    W    AA    RRRRR   N    N  II  N    N   GGGG   !!!           |
|           W    W   A  A   R    R  NN   N  II  NN   N  G    G  !!!           |
|           W    W  A    A  R    R  N N  N  II  N N  N  G       !!!           |
|           W WW W  AAAAAA  RRRRR   N  N N  II  N  N N  G  GGG   !            |
|           WW  WW  A    A  R   R   N   NN  II  N   NN  G    G                |
|           W    W  A    A  R    R  N    N  II  N    N   GGGG   !!!           |
|                                                                             |
|      You have enabled k-point parallelism (KPAR>1).                         |
|      This developmental code was originally  written by Paul Kent at ORNL,  |
|      and carefully double checked in Vienna.                                |
|      GW as well as linear response parallelism added by Martijn Marsman     |
|      and Georg Kresse.                                                      |
|      Carefully verify results versus KPAR=1.                                |
|      Report problems to Paul Kent and Vienna.                               |
|                                                                             |
 ----------------------------------------------------------------------------- 

 POTCAR:    PAW_PBE C 08Apr2002                   
   VRHFIN =C: s2p2                                                              
   LEXCH  = PE                                                                  
   EATOM  =   147.1560 eV,   10.8157 Ry                                         
                                                                                
   TITEL  = PAW_PBE C 08Apr2002                                                 
   LULTRA =        F    use ultrasoft PP ?                                      
   IUNSCR =        1    unscreen: 0-lin 1-nonlin 2-no                           
   RPACOR =    1.200    partial core radius                                     
   POMASS =   12.011; ZVAL   =    4.000    mass and valenz                      
   RCORE  =    1.500    outmost cutoff radius                                   
   RWIGS  =    1.630; RWIGS  =    0.863    wigner-seitz radius (au A)           
   ENMAX  =  400.000; ENMIN  =  300.000 eV                                      
   ICORE  =        2    local potential                                         
   LCOR   =        T    correct aug charges                                     
   LPAW   =        T    paw PP                                                  
   EAUG   =  644.873                                                            
   DEXC   =    0.000                                                            
   RMAX   =    1.529    core radius for proj-oper                               
   RAUG   =    1.300    factor for augmentation sphere                          
   RDEP   =    1.501    radius for radial grids                                 
   RDEPT  =    1.300    core radius for aug-charge                              
                                                                                
   Atomic configuration                                                         
    4 entries                                                                   
     n  l   j            E        occ.                                          
     1  0  0.50      -273.3789   2.0000                                         
     2  0  0.50       -13.7508   2.0000                                         
     2  1  0.50        -5.2854   2.0000                                         
     3  2  1.50        -5.4423   0.0000                                         
   Description                                                                  
     l       E           TYP  RCUT    TYP  RCUT                                 
     0    -13.7508458     23  1.200                                             
     0     -8.2022199     23  1.200                                             
     1     -5.2854383     23  1.500                                             
     1     34.0145650     23  1.500                                             
     2     -5.4423304      7  1.500                                             
  local pseudopotential read in
  partial core-charges read in
  partial kinetic energy density read in
  atomic valenz-charges read in
  non local Contribution for L=           0  read in
    real space projection operators read in
  non local Contribution for L=           0  read in
    real space projection operators read in
  non local Contribution for L=           1  read in
    real space projection operators read in
  non local Contribution for L=           1  read in
    real space projection operators read in
    PAW grid and wavefunctions read in
 
   number of l-projection  operators is LMAX  =           4
   number of lm-projection operators is LMMAX =           8
 
 POTCAR:    PAW_PBE N 08Apr2002                   
   VRHFIN =N: s2p3                                                              
   LEXCH  = PE                                                                  
   EATOM  =   264.5486 eV,   19.4438 Ry                                         
                                                                                
   TITEL  = PAW_PBE N 08Apr2002                                                 
   LULTRA =        F    use ultrasoft PP ?                                      
   IUNSCR =        1    unscreen: 0-lin 1-nonlin 2-no                           
   RPACOR =    1.200    partial core radius                                     
   POMASS =   14.001; ZVAL   =    5.000    mass and valenz                      
   RCORE  =    1.500    outmost cutoff radius                                   
   RWIGS  =    1.400; RWIGS  =    0.741    wigner-seitz radius (au A)           
   ENMAX  =  400.000; ENMIN  =  300.000 eV                                      
   ICORE  =        2    local potential                                         
   LCOR   =        T    correct aug charges                                     
   LPAW   =        T    paw PP                                                  
   EAUG   =  627.112                                                            
   DEXC   =    0.000                                                            
   RMAX   =    1.529    core radius for proj-oper                               
   RAUG   =    1.300    factor for augmentation sphere                          
   RDEP   =    1.514    radius for radial grids                                 
   RDEPT  =    1.338    core radius for aug-charge                              
                                                                                
   Atomic configuration                                                         
    4 entries                                                                   
     n  l   j            E        occ.                                          
     1  0  0.50      -384.7179   2.0000                                         
     2  0  0.50       -18.5828   2.0000                                         
     2  1  0.50        -7.0898   3.0000                                         
     3  2  1.50        -6.8029   0.0000                                         
   Description                                                                  
     l       E           TYP  RCUT    TYP  RCUT                                 
     0    -18.5828119     23  1.200                                             
     0    -13.5018863     23  1.200                                             
     1     -7.0897853     23  1.500                                             
     1      9.5240782     23  1.500                                             
     2     -6.8029130      7  1.500                                             
  local pseudopotential read in
  partial core-charges read in
  partial kinetic energy density read in
  atomic valenz-charges read in
  non local Contribution for L=           0  read in
    real space projection operators read in
  non local Contribution for L=           0  read in
    real space projection operators read in
  non local Contribution for L=           1  read in
    real space projection operators read in
  non local Contribution for L=           1  read in
    real space projection operators read in
    PAW grid and wavefunctions read in
 
   number of l-projection  operators is LMAX  =           4
   number of lm-projection operators is LMMAX =           8
 
 POTCAR:    PAW_PBE Co 02Aug2007                  
   VRHFIN =Co: d8 s1                                                            
   LEXCH  = PE                                                                  
   EATOM  =   813.3670 eV,   59.7808 Ry                                         
                                                                                
   TITEL  = PAW_PBE Co 02Aug2007                                                
   LULTRA =        F    use ultrasoft PP ?                                      
   IUNSCR =        1    unscreen: 0-lin 1-nonlin 2-no                           
   RPACOR =    2.000    partial core radius                                     
   POMASS =   58.933; ZVAL   =    9.000    mass and valenz                      
   RCORE  =    2.300    outmost cutoff radius                                   
   RWIGS  =    2.460; RWIGS  =    1.302    wigner-seitz radius (au A)           
   ENMAX  =  267.968; ENMIN  =  200.976 eV                                      
   RCLOC  =    1.203    cutoff for local pot                                    
   LCOR   =        T    correct aug charges                                     
   LPAW   =        T    paw PP                                                  
   EAUG   =  477.818                                                            
   DEXC   =    0.000                                                            
   RMAX   =    2.360    core radius for proj-oper                               
   RAUG   =    1.300    factor for augmentation sphere                          
   RDEP   =    2.393    radius for radial grids                                 
   RDEPT  =    1.864    core radius for aug-charge                              
                                                                                
   Atomic configuration                                                         
    9 entries                                                                   
     n  l   j            E        occ.                                          
     1  0  0.50     -7587.6674   2.0000                                         
     2  0  0.50      -893.6084   2.0000                                         
     2  1  1.50      -764.5805   6.0000                                         
     3  0  0.50       -97.5973   2.0000                                         
     3  1  1.50       -60.9648   6.0000                                         
     3  2  2.50        -4.2382   8.0000                                         
     4  0  0.50        -4.3746   1.0000                                         
     4  1  1.50        -4.0817   0.0000                                         
     4  3  2.50        -1.3606   0.0000                                         
   Description                                                                  
     l       E           TYP  RCUT    TYP  RCUT                                 
     2     -4.2382362     23  2.300                                             
     2     -5.5988188     23  2.300                                             
     0     -4.3745797     23  2.300                                             
     0      5.7660125     23  2.300                                             
     1     -2.7211652     23  2.300                                             
     1     16.9860234     23  2.300                                             
  local pseudopotential read in
  partial core-charges read in
  partial kinetic energy density read in
  atomic valenz-charges read in
  non local Contribution for L=           2  read in
    real space projection operators read in
  non local Contribution for L=           2  read in
    real space projection operators read in
  non local Contribution for L=           0  read in
    real space projection operators read in
  non local Contribution for L=           0  read in
    real space projection operators read in
  non local Contribution for L=           1  read in
    real space projection operators read in
  non local Contribution for L=           1  read in
    real space projection operators read in
    PAW grid and wavefunctions read in
 
   number of l-projection  operators is LMAX  =           6
   number of lm-projection operators is LMMAX =          18
 
 POTCAR:    PAW_PBE Fe 06Sep2000                  
   VRHFIN =Fe:  d7 s1                                                           
   LEXCH  = PE                                                                  
   EATOM  =   594.3153 eV,   43.6809 Ry                                         
                                                                                
   TITEL  = PAW_PBE Fe 06Sep2000                                                
   LULTRA =        F    use ultrasoft PP ?                                      
   IUNSCR =        1    unscreen: 0-lin 1-nonlin 2-no                           
   RPACOR =    2.000    partial core radius                                     
   POMASS =   55.847; ZVAL   =    8.000    mass and valenz                      
   RCORE  =    2.300    outmost cutoff radius                                   
   RWIGS  =    2.460; RWIGS  =    1.302    wigner-seitz radius (au A)           
   ENMAX  =  267.882; ENMIN  =  200.911 eV                                      
   RCLOC  =    1.701    cutoff for local pot                                    
   LCOR   =        T    correct aug charges                                     
   LPAW   =        T    paw PP                                                  
   EAUG   =  511.368                                                            
   DEXC   =    0.000                                                            
   RMAX   =    2.356    core radius for proj-oper                               
   RAUG   =    1.300    factor for augmentation sphere                          
   RDEP   =    2.442    radius for radial grids                                 
   RDEPT  =    1.890    core radius for aug-charge                              
                                                                                
   Atomic configuration                                                         
    9 entries                                                                   
     n  l   j            E        occ.                                          
     1  0  0.50     -6993.8440   2.0000                                         
     2  0  0.50      -814.6047   2.0000                                         
     2  1  1.50      -693.3689   6.0000                                         
     3  0  0.50       -89.4732   2.0000                                         
     3  1  1.50       -55.6373   6.0000                                         
     3  2  2.50        -3.8151   7.0000                                         
     4  0  0.50        -4.2551   1.0000                                         
     4  1  1.50        -3.4015   0.0000                                         
     4  3  2.50        -1.3606   0.0000                                         
   Description                                                                  
     l       E           TYP  RCUT    TYP  RCUT                                 
     2     -3.8151135     23  2.300                                             
     2     -5.1756961     23  2.300                                             
     0     -4.2550963     23  2.300                                             
     0      7.2035603     23  2.300                                             
     1     -2.7211652     23  2.300                                             
     1     18.4316424     23  2.300                                             
  local pseudopotential read in
  partial core-charges read in
  partial kinetic energy density read in
  atomic valenz-charges read in
  non local Contribution for L=           2  read in
    real space projection operators read in
  non local Contribution for L=           2  read in
    real space projection operators read in
  non local Contribution for L=           0  read in
    real space projection operators read in
  non local Contribution for L=           0  read in
    real space projection operators read in
  non local Contribution for L=           1  read in
    real space projection operators read in
  non local Contribution for L=           1  read in
    real space projection operators read in
    PAW grid and wavefunctions read in
 
   number of l-projection  operators is LMAX  =           6
   number of lm-projection operators is LMMAX =          18
 

 ----------------------------------------------------------------------------- 
|                                                                             |
|  ADVICE TO THIS USER RUNNING 'VASP/VAMP'   (HEAR YOUR MASTER'S VOICE ...):  |
|                                                                             |
|      You have a (more or less) 'large supercell' and for larger cells       |
|      it might be more efficient to use real space projection opertators     |
|      So try LREAL= Auto  in the INCAR   file.                               |
|      Mind:          For very  accurate calculation you might also keep the  |
|      reciprocal projection scheme          (i.e. LREAL=.FALSE.)             |
|                                                                             |
 ----------------------------------------------------------------------------- 

  PAW_PBE C 08Apr2002                   :
 energy of atom  1       EATOM= -147.1560
 kinetic energy error for atom=    0.0076 (will be added to EATOM!!)
  PAW_PBE N 08Apr2002                   :
 energy of atom  2       EATOM= -264.5486
 kinetic energy error for atom=    0.0138 (will be added to EATOM!!)
  PAW_PBE Co 02Aug2007                  :
 energy of atom  3       EATOM= -813.3670
 kinetic energy error for atom=    0.0028 (will be added to EATOM!!)
  PAW_PBE Fe 06Sep2000                  :
 energy of atom  4       EATOM= -594.3153
 kinetic energy error for atom=    0.0026 (will be added to EATOM!!)
 
 
 POSCAR:  C  N Co Fe                             
  positions in cartesian coordinates
  No initial velocities read in
 exchange correlation table for  LEXCH =        8
   RHO(1)=    0.500       N(1)  =     2000
   RHO(2)=  100.500       N(2)  =     4000

 VTST: version 3.2, (02/03/18)

 CHAIN: initializing optimizer
 
 OPT: Using VASP Conjugate-Gradient optimizer
 CHAIN: Read ICHAIN            0
 
 POSCAR:  C  N Co Fe                             
  positions in cartesian coordinates
  No initial velocities read in
 


--------------------------------------------------------------------------------------------------------


 ion  position               nearest neighbor table
   1  0.221  1.000  0.500-   3 1.41  20 1.43   4 1.43
   2  0.055  0.101  0.500-  34 1.42   3 1.43   7 1.44
   3  0.109  1.000  0.500-   1 1.41   2 1.43  18 1.43
   4  0.277  0.099  0.500-  22 1.41   5 1.42   1 1.43
   5  0.224  0.200  0.500-   4 1.42   7 1.43   8 1.44
   6  0.056  0.301  0.500-   7 1.43  38 1.43  11 1.44
   7  0.112  0.201  0.500-   5 1.43   6 1.43   2 1.44
   8  0.284  0.299  0.500-  51 1.39   9 1.44   5 1.44
   9  0.228  0.399  0.500-   8 1.44  11 1.44  12 1.45
  10  0.056  0.500  0.500-  42 1.44  15 1.45  11 1.45
  11  0.114  0.400  0.500-   6 1.44   9 1.44  10 1.45
  12  0.285  0.499  0.500-  53 1.33   9 1.45  13 1.46
  13  0.228  0.601  0.500-  16 1.44  15 1.44  12 1.46
  14  0.056  0.699  0.500-  19 1.43  46 1.44  15 1.44
  15  0.114  0.600  0.500-  14 1.44  13 1.44  10 1.45
  16  0.284  0.701  0.500-  55 1.39  13 1.44  17 1.44
  17  0.224  0.800  0.500-  20 1.42  19 1.43  16 1.44
  18  0.055  0.899  0.500-  50 1.42   3 1.43  19 1.44
  19  0.111  0.799  0.500-  17 1.43  14 1.43  18 1.44
  20  0.277  0.901  0.500-  28 1.41  17 1.42   1 1.43
  21  0.555  0.000  0.500-  23 1.41  24 1.42  30 1.42
  22  0.388  0.099  0.500-  26 1.41   4 1.41  23 1.42
  23  0.444  0.000  0.500-  21 1.41  28 1.42  22 1.42
  24  0.610  0.099  0.500-  25 1.41  32 1.41  21 1.42
  25  0.555  0.197  0.500-  52 1.37  24 1.41  26 1.42
  26  0.443  0.197  0.500-  51 1.37  22 1.41  25 1.42
  27  0.555  0.803  0.500-  56 1.37  30 1.41  29 1.42
  28  0.388  0.902  0.500-  29 1.41  20 1.41  23 1.42
  29  0.443  0.803  0.500-  55 1.37  28 1.41  27 1.42
  30  0.610  0.902  0.500-  27 1.41  48 1.41  21 1.42
  31  0.889  1.000  0.500-  33 1.41  34 1.43  50 1.43
  32  0.722  0.099  0.500-  24 1.41  37 1.42  33 1.43
  33  0.777  1.000  0.500-  31 1.41  48 1.43  32 1.43
  34  0.943  0.101  0.500-   2 1.42  31 1.43  35 1.44
  35  0.887  0.201  0.500-  37 1.43  38 1.43  34 1.44
  36  0.714  0.299  0.500-  52 1.39  41 1.44  37 1.44
  37  0.774  0.200  0.500-  32 1.42  35 1.43  36 1.44
  38  0.943  0.301  0.500-  35 1.43   6 1.43  39 1.44
  39  0.884  0.400  0.500-  38 1.44  41 1.44  42 1.45
  40  0.713  0.499  0.500-  54 1.33  41 1.45  45 1.46
  41  0.771  0.399  0.500-  36 1.44  39 1.44  40 1.45
  42  0.942  0.500  0.500-  10 1.44  39 1.45  43 1.45
  43  0.884  0.600  0.500-  46 1.44  45 1.44  42 1.45
  44  0.714  0.701  0.500-  56 1.39  45 1.44  49 1.44
  45  0.770  0.601  0.500-  44 1.44  43 1.44  40 1.46
  46  0.942  0.699  0.500-  47 1.43  14 1.44  43 1.44
  47  0.887  0.799  0.500-  49 1.43  46 1.43  50 1.44
  48  0.722  0.901  0.500-  30 1.41  49 1.42  33 1.43
  49  0.774  0.799  0.500-  48 1.42  47 1.43  44 1.44
  50  0.943  0.899  0.500-  18 1.42  31 1.43  47 1.44
  51  0.394  0.295  0.500-  26 1.37   8 1.39  57 1.93
  52  0.604  0.295  0.500-  25 1.37  36 1.39  57 1.93
  53  0.390  0.499  0.500-  12 1.33  58 1.79  57 1.79
  54  0.608  0.499  0.500-  40 1.33  58 1.79  57 1.80
  55  0.394  0.705  0.500-  29 1.37  16 1.39  58 1.96
  56  0.605  0.705  0.500-  27 1.37  44 1.39  58 1.96
  57  0.499  0.408  0.500-  53 1.79  54 1.80  51 1.93  52 1.93  58 2.27
  58  0.499  0.590  0.500-  53 1.79  54 1.79  56 1.96  55 1.96  57 2.27
 
  LATTYP: Found a triclinic cell.
 ALAT       =    17.7711586506
 B/A-ratio  =     0.7127543113
 C/A-ratio  =     1.8025072542
 COS(alpha) =     0.0000398344
 COS(beta)  =     0.5459048949
 COS(gamma) =     0.7126692374
  
  Lattice vectors:
  
 A1 = ( -12.6658145461, -12.4656015186,   0.0006688132)
 A2 = ( -12.6664698409,   0.0008700852,  -0.0013634034)
 A3 = (  -0.0008233459, -24.9296674206, -20.1147174880)


Analysis of symmetry for initial positions (statically):
=====================================================================
 Subroutine PRICEL returns:
 Original cell was already a primitive cell.
 

 Routine SETGRP: Setting up the symmetry group for a 
 triclinic supercell.


 Subroutine GETGRP returns: Found  1 space group operations
 (whereof  1 operations were pure point group operations)
 out of a pool of  2 trial point group operations.


The static configuration has the point symmetry C_1 .


Analysis of symmetry for dynamics (positions and initial velocities):
=====================================================================
 Subroutine PRICEL returns:
 Original cell was already a primitive cell.
 

 Routine SETGRP: Setting up the symmetry group for a 
 triclinic supercell.


 Subroutine GETGRP returns: Found  1 space group operations
 (whereof  1 operations were pure point group operations)
 out of a pool of  2 trial point group operations.


The dynamic configuration has the point symmetry C_1 .


Analysis of structural, dynamic, and magnetic symmetry:
=====================================================================
 Subroutine PRICEL returns:
 Original cell was already a primitive cell.
 

 Routine SETGRP: Setting up the symmetry group for a 
 triclinic supercell.


 Subroutine GETGRP returns: Found  1 space group operations
 (whereof  1 operations were pure point group operations)
 out of a pool of  2 trial point group operations.


The magnetic configuration has the point symmetry C_1 .


 Subroutine INISYM returns: Found  1 space group operations
 (whereof  1 operations are pure point group operations),
 and found     1 'primitive' translations

 
 
 KPOINTS: KPOINTS created by Atomic Simulation Env

Automatic generation of k-mesh.
Space group operators:
 irot       det(A)        alpha          n_x          n_y          n_z        tau_x        tau_y        tau_z
    1     1.000000     0.000000     1.000000     0.000000     0.000000     0.000000     0.000000     0.000000
 
 Subroutine IBZKPT returns following result:
 ===========================================
 
 Found      2 irreducible k-points:
 
 Following reciprocal coordinates:
            Coordinates               Weight
  0.250000  0.250000 -0.000000      2.000000
 -0.250000  0.250000  0.000000      2.000000
 
 Following cartesian coordinates:
            Coordinates               Weight
  0.019739  0.020055  0.000001      2.000000
 -0.019736  0.020053  0.000005      2.000000
 
 
 Subroutine IBZKPT_HF returns following result:
 ==============================================
 
 Found      4 k-points in 1st BZ
 the following      4 k-points will be used (e.g. in the exchange kernel)
 Following reciprocal coordinates:   # in IRBZ
  0.250000  0.250000 -0.000000    0.25000000   1 t-inv F
 -0.250000  0.250000  0.000000    0.25000000   2 t-inv F
 -0.250000 -0.250000  0.000000    0.25000000   1 t-inv T
  0.250000 -0.250000  0.000000    0.25000000   2 t-inv T


--------------------------------------------------------------------------------------------------------




 Dimension of arrays:
   k-points           NKPTS =      2   k-points in BZ     NKDIM =      4   number of bands    NBANDS=    155
   number of dos      NEDOS =    301   number of ions     NIONS =     58
   non local maximal  LDIM  =      6   non local SUM 2l+1 LMDIM =     18
   total plane-waves  NPLWV = ******
   max r-space proj   IRMAX =      1   max aug-charges    IRDMAX=  17359
   dimension x,y,z NGX =    96 NGY =   96 NGZ =  150
   dimension x,y,z NGXF=   192 NGYF=  192 NGZF=  300
   support grid    NGXF=   192 NGYF=  192 NGZF=  300
   ions per type =              50   6   1   1
   NGX,Y,Z   is equivalent  to a cutoff of  12.60, 12.80, 12.39 a.u.
   NGXF,Y,Z  is equivalent  to a cutoff of  25.20, 25.60, 24.79 a.u.

 SYSTEM =  unknown system                          
 POSCAR =   C  N Co Fe                             

 Startparameter for this run:
   NWRITE =      2    write-flag & timer
   PREC   = accura    normal or accurate (medium, high low for compatibility)
   ISTART =      1    job   : 0-new  1-cont  2-samecut
   ICHARG =      0    charge: 1-file 2-atom 10-const
   ISPIN  =      2    spin polarized calculation?
   LNONCOLLINEAR =      F non collinear calculations
   LSORBIT =      F    spin-orbit coupling
   INIWAV =      1    electr: 0-lowe 1-rand  2-diag
   LASPH  =      T    aspherical Exc in radial PAW
   METAGGA=      F    non-selfconsistent MetaGGA calc.

 Electronic Relaxation 1
   ENCUT  =  500.0 eV  36.75 Ry    6.06 a.u.  23.09 22.73 36.68*2*pi/ulx,y,z
   ENINI  =  500.0     initial cutoff
   ENAUG  =  644.9 eV  augmentation charge cutoff
   NELM   =    250;   NELMIN=  2; NELMDL=  0     # of ELM steps 
   EDIFF  = 0.1E-03   stopping-criterion for ELM
   LREAL  =      F    real-space projection
   NLSPLINE    = F    spline interpolate recip. space projectors
   LCOMPAT=      F    compatible to vasp.4.4
   GGA_COMPAT  = T    GGA compatible to vasp.4.4-vasp.4.6
   LMAXPAW     = -100 max onsite density
   LMAXMIX     =    2 max onsite mixed and CHGCAR
   VOSKOWN=      0    Vosko Wilk Nusair interpolation
   ROPT   =    0.00000   0.00000   0.00000   0.00000
 Ionic relaxation
   EDIFFG = -.3E-01   stopping-criterion for IOM
   NSW    =      0    number of steps for IOM
   NBLOCK =      1;   KBLOCK =      1    inner block; outer block 
   IBRION =     -1    ionic relax: 0-MD 1-quasi-New 2-CG
   NFREE  =      1    steps in history (QN), initial steepest desc. (CG)
   ISIF   =      2    stress and relaxation
   IWAVPR =     10    prediction:  0-non 1-charg 2-wave 3-comb
   ISYM   =      3    0-nonsym 1-usesym 2-fastsym
   LCORR  =      T    Harris-Foulkes like correction to forces

   POTIM  = 0.5000    time-step for ionic-motion
   TEIN   =    0.0    initial temperature
   TEBEG  =    0.0;   TEEND  =   0.0 temperature during run
   SMASS  =  -3.00    Nose mass-parameter (am)
   estimated Nose-frequenzy (Omega)   =  0.10E-29 period in steps =****** mass=  -0.367E-26a.u.
   SCALEE = 1.0000    scale energy and forces
   NPACO  =    256;   APACO  = 16.0  distance and # of slots for P.C.
   PSTRESS=    0.0 pullay stress

  Mass of Ions in am
   POMASS =  12.01 14.00 58.93 55.85
  Ionic Valenz
   ZVAL   =   4.00  5.00  9.00  8.00
  Atomic Wigner-Seitz radii
   RWIGS  =  -1.00 -1.00 -1.00 -1.00
  virtual crystal weights 
   VCA    =   1.00  1.00  1.00  1.00
   NELECT =     247.0000    total number of electrons
   NUPDOWN=      -1.0000    fix difference up-down

 DOS related values:
   EMIN   =  10.00;   EMAX   =-10.00  energy-range for DOS
   EFERMI =   0.00
   ISMEAR =     0;   SIGMA  =   0.10  broadening in eV -4-tet -1-fermi 0-gaus

 Electronic relaxation 2 (details)
   IALGO  =     53    algorithm
   LDIAG  =      T    sub-space diagonalisation (order eigenvalues)
   LSUBROT=      F    optimize rotation matrix (better conditioning)
   TURBO    =      0    0=normal 1=particle mesh
   IRESTART =      0    0=no restart 2=restart with 2 vectors
   NREBOOT  =      0    no. of reboots
   NMIN     =      0    reboot dimension
   EREF     =   0.00    reference energy to select bands
   IMIX   =      4    mixing-type and parameters
     AMIX     =   0.40;   BMIX     =  1.00
     AMIX_MAG =   1.60;   BMIX_MAG =  1.00
     AMIN     =   0.10
     WC   =   100.;   INIMIX=   1;  MIXPRE=   1;  MAXMIX= -45

 Intra band minimization:
   WEIMIN = 0.0000     energy-eigenvalue tresh-hold
   EBREAK =  0.16E-06  absolut break condition
   DEPER  =   0.30     relativ break condition  

   TIME   =   0.20     timestep for ELM

  volume/ion in A,a.u.               =      54.77       369.63
  Fermi-wavevector in a.u.,A,eV,Ry     =   0.698726  1.320401  6.642609  0.488218
  Thomas-Fermi vector in A             =   1.782409
 
 Write flags
   LWAVE        =      T    write WAVECAR
   LDOWNSAMPLE  =      F    k-point downsampling of WAVECAR
   LCHARG       =      T    write CHGCAR
   LVTOT        =      F    write LOCPOT, total local potential
   LVHAR        =      T    write LOCPOT, Hartree potential only
   LELF         =      F    write electronic localiz. function (ELF)
   LORBIT       =     11    0 simple, 1 ext, 2 COOP (PROOUT), +10 PAW based schemes


 Dipole corrections
   LMONO  =      F    monopole corrections only (constant potential shift)
   LDIPOL =      T    correct potential (dipole corrections)
   IDIPOL =      3    1-x, 2-y, 3-z, 4-all directions 
   EPSILON=  1.0000000 bulk dielectric constant

 Exchange correlation treatment:
   GGA     =    PE    GGA type
   LEXCH   =     8    internal setting for exchange type
   VOSKOWN=      0    Vosko Wilk Nusair interpolation
   EXXOEP  =     0    0=HF, 1=EXX-LHF (local Hartree Fock) 2=EXX OEP
   LHFCALC =     T    Hartree Fock is set to
   LSYMGRAD=     F    symmetrize gradient (conserves proper symmetry)
   PRECFOCK=normal    Normal, Fast or Accurate (Low or Medium for compatibility)
   LRHFCALC=     F    long range Hartree Fock
   LRSCOR  =     F    long range correlation only (use DFT for short range part)
   LTHOMAS =     F    Thomas Fermi screening in HF
   LMODELHF=     F    short range full HF, long range fraction AEXX
   ENCUT4O =  -1.0   cutoff for four orbital integrals eV
   LMAXFOCK=     4    L truncation for augmentation on plane wave grid
   LMAXFOCKAE=  -1    L truncation for all-electron charge restoration on plane wave grid
   NMAXFOCKAE=   1    number of basis functions for all-electron charge restoration
   LFOCKAEDFT=     F  apply the AE augmentation even for DFT
   NKREDX  =     1    reduce k-point grid by
   NKREDY  =     1    reduce k-point grid by
   NKREDZ  =     1    reduce k-point grid by
   SHIFTRED=     F    shift reduced grid of Gamma
   HFKIDENT=     F    idential grid for each k-point
   ODDONLY =     F    use only odd q-grid points
   EVENONLY=     F    use only even q-grid points
   HFALPHA =   -1.0000 decay constant for conv. correction
   MCALPHA =    0.0000 extent of test-charge in conv. correction in multipole expansion
   AEXX    =    0.2500 exact exchange contribution
   HFSCREEN=    0.2000 screening length (either q_TF or 0.3 A-1)
   HFSCREENC=   0.2000 screening length for correlation (either q_TF or 0.3 A-1)
   HFRCUT  =    0.0000 spherical cutoff for potential kernel
   ALDAX   =    0.7500 LDA exchange part
   AGGAX   =    0.7500 GGA exchange part
   ALDAC   =    1.0000 LDA correlation
   AGGAC   =    1.0000 GGA correlation
   ENCUTFOCK=  -1.0 apply spherical cutoff to Coloumb kernel
   NBANDSGWLOW=     1    first orbital included in HF term
   NBLOCK_FOCK=    64    blocking factor in FOCK_ACC
 Linear response parameters
   LEPSILON=     F    determine dielectric tensor
   LRPA    =     F    only Hartree local field effects (RPA)
   LNABLA  =     F    use nabla operator in PAW spheres
   LVEL    =     F    velocity operator in full k-point grid
   LINTERFAST=   F  fast interpolation
   KINTER  =     0    interpolate to denser k-point grid
   CSHIFT  =0.1000    complex shift for real part using Kramers Kronig
   OMEGAMAX=  -1.0    maximum frequency
   DEG_THRESHOLD= 0.2000000E-02 threshold for treating states as degnerate
   RTIME   =   -0.100 relaxation time in fs
  (WPLASMAI=    0.000 imaginary part of plasma frequency in eV, 0.658/RTIME)
   DFIELD  = 0.0000000 0.0000000 0.0000000 field for delta impulse in time
 
 Orbital magnetization related:
   ORBITALMAG=     F  switch on orbital magnetization
   LCHIMAG   =     F  perturbation theory with respect to B field
   DQ        =  0.001000  dq finite difference perturbation B field
   LLRAUG    =     F  two centre corrections for induced B field



--------------------------------------------------------------------------------------------------------


 Static calculation
 charge density and potential will be updated during run
 spin polarized calculation
 Conjugate gradient for all bands (Freysoldt, et al. PRB 79, 241103 (2009))
 perform sub-space diagonalisation
    before iterative eigenvector-optimisation
 modified Broyden-mixing scheme, WC =      100.0
 initial mixing is a Kerker type mixing with AMIX =  0.4000 and BMIX =      1.0000
 Hartree-type preconditioning will be used
 using additional bands           31
 reciprocal scheme for non local part
 use partial core corrections
 no Harris-corrections to forces 
 use gradient corrections 
 use of overlap-Matrix (Vanderbilt PP)
 Gauss-broadening in eV      SIGMA  =   0.10


--------------------------------------------------------------------------------------------------------


  energy-cutoff  :      500.00
  volume of cell :     3176.88
      direct lattice vectors                 reciprocal lattice vectors
    12.666469841 -0.000870085  0.001363403     0.078948596  0.000004149 -0.000008373
    -0.000655295 12.466471604 -0.002032217     0.000005509  0.080215161  0.000013060
     0.002133935 -0.003275787 20.118781921    -0.000005350  0.000008102  0.049704800

  length of vectors
    12.666469944 12.466471787 20.118782301     0.078948597  0.080215163  0.049704801


 
 old parameters found on file WAVECAR:
  energy-cutoff  :      500.00
  volume of cell :     3176.88
      direct lattice vectors                 reciprocal lattice vectors
    12.810000000  0.000000000  0.000000000     0.078064012  0.000000000  0.000000000
     0.000000000 12.400000000  0.000000000     0.000000000  0.080645161  0.000000000
     0.000000000  0.000000000 20.000000000     0.000000000  0.000000000  0.050000000

  length of vectors

 
 k-points in units of 2pi/SCALE and weight: KPOINTS created by Atomic Simulation Env
   0.01973853  0.02005483  0.00000117       0.500
  -0.01973577  0.02005275  0.00000536       0.500
 
 k-points in reciprocal lattice and weights: KPOINTS created by Atomic Simulation Env
   0.25000000  0.25000000 -0.00000000       0.500
  -0.25000000  0.25000000  0.00000000       0.500
 
 position of ions in fractional coordinates (direct lattice) 
   0.22097830  0.99998094  0.50000961
   0.05525600  0.10082503  0.50001683
   0.10939109  0.99995361  0.49999931
   0.27662914  0.09940628  0.50001467
   0.22423429  0.20040713  0.49998296
   0.05590198  0.30097404  0.50001963
   0.11150521  0.20118008  0.50001463
   0.28435299  0.29888929  0.49988342
   0.22766379  0.39866637  0.49991506
   0.05620353  0.49987308  0.50001927
   0.11408837  0.39992567  0.50000086
   0.28526099  0.49944507  0.49984305
   0.22788220  0.60086575  0.49998632
   0.05581651  0.69872632  0.50001789
   0.11416905  0.59975425  0.50002169
   0.28403670  0.70103035  0.49999921
   0.22399379  0.79951606  0.50000622
   0.05518711  0.89908608  0.49999193
   0.11131077  0.79867885  0.50000120
   0.27652838  0.90055014  0.50000612
   0.55475786  0.00010386  0.50005474
   0.38812974  0.09868675  0.50001578
   0.44364929  0.00011187  0.50005442
   0.61030860  0.09865139  0.50001953
   0.55540818  0.19719559  0.49989513
   0.44309288  0.19720275  0.49989116
   0.55536634  0.80312333  0.50000450
   0.38806298  0.90157688  0.50003016
   0.44295905  0.80313261  0.50000622
   0.61031146  0.90154342  0.50002862
   0.88900741  0.99992050  0.49999997
   0.72181461  0.09937978  0.50001961
   0.77741798  0.99992757  0.50001107
   0.94320298  0.10079056  0.50001791
   0.88701285  0.20115413  0.50001841
   0.71419945  0.29881088  0.49989317
   0.77428873  0.20034332  0.49999012
   0.94265477  0.30096023  0.50002234
   0.88443642  0.39987527  0.50000585
   0.71320076  0.49932555  0.49984466
   0.77087318  0.39858479  0.49992198
   0.94225519  0.49985663  0.50002182
   0.88420696  0.59969597  0.50002540
   0.71427749  0.70094960  0.49999852
   0.77048635  0.60078809  0.49998878
   0.94248881  0.69869507  0.50001980
   0.88701769  0.79863276  0.50000258
   0.72183651  0.90050348  0.50000511
   0.77433059  0.79944100  0.50000619
   0.94316942  0.89904412  0.49999207
   0.39414281  0.29515383  0.49976612
   0.60440945  0.29511857  0.49977478
   0.39005252  0.49930540  0.49960189
   0.60841074  0.49928892  0.49959448
   0.39378799  0.70528729  0.49996813
   0.60451756  0.70525847  0.49996513
   0.49919789  0.40751519  0.49957527
   0.49924631  0.58989022  0.49969872
 
 position of ions in cartesian coordinates  (Angst):
   2.79942671 12.46440374 10.05785348
   0.70089939  1.25524637 10.05960000
   1.38601069 12.46416024 10.05749406
   3.50491648  1.23736692 10.05986127
   2.84119245  2.49653682 10.05894661
   0.70895053  3.75039777 10.05925056
   1.41331255  2.50627081 10.05942839
   3.60261938  3.72420991 10.05682574
   2.88450213  4.96812727 10.05718229
   0.71263977  6.22996675 10.05883937
   1.44590176  4.98392485 10.05875098
   3.61398909  6.22443221 10.05560726
   2.88713624  7.48883966 10.05820544
   0.70760731  8.70896531 10.05840703
   1.44679277  7.47508201 10.05876419
   3.59834985  8.73748990 10.05833776
   2.83775367  9.96531140 10.05819662
   0.69950368 11.20674515 10.05747668
   1.41045814  9.95497240 10.05794377
   3.50311525 11.22480427 10.05806108
   7.02789070 -0.00082596 10.06124849
   4.91723602  1.22829988 10.06003698
   5.62053739 -0.00062946 10.06109041
   7.73145778  1.22766574 10.06041559
   7.03599850  2.45621243 10.05763756
   5.61336010  2.45639937 10.05740451
   7.03507165 10.00999310 10.05860653
   4.91586423 11.23750691 10.05869458
   5.61126808 10.01020651 10.05848792
   7.73096790 11.23689643 10.05896671
  11.26099728 12.46306906 10.05857043
   9.14384487  1.23664925 10.06056763
   9.84755312 12.46325425 10.05864147
  11.94805311  1.25404401 10.06083235
  11.23625668  2.50527253 10.06056194
   9.04725673  3.72285837 10.05760815
   9.80844046  2.49526269 10.05984073
  11.94097807  3.74945401 10.06051392
  11.20349221  4.98262620 10.05990189
   9.03447534  6.22256990 10.05622333
   9.76504755  4.96663754 10.05806221
  11.93578636  6.22899073 10.06009872
  11.20045483  7.47368547 10.05988887
   9.04798198  8.73610893 10.05891064
   9.76001541  7.48739941 10.05899473
  11.93861521  8.70780428 10.05965438
  11.23592649  9.95372292 10.05902916
   9.14359729 11.22383507 10.05864782
   9.80857816  9.96389690 10.05894661
  11.94710480 11.20544949 10.05869036
   4.99327105  3.67754676 10.05462319
   7.65660722  3.67692425 10.05508422
   4.94132737  6.22260057 10.05089866
   7.70715527  6.22220525 10.05104723
   4.98850847  8.79046354 10.05785341
   7.65770818  8.78992094 10.05808030
   6.32387403  5.07820576 10.05069826
   6.32436811  7.35177836 10.05281140
 


--------------------------------------------------------------------------------------------------------


 k-point  1 :   0.2500 0.2500-0.0000  plane waves:   80663
 k-point  2 :  -0.2500 0.2500 0.0000  plane waves:   80664

 maximum and minimum number of plane-waves per node :      2046     1989

 maximum number of plane-waves:     80664
 maximum index in each direction: 
   IXMAX=   23   IYMAX=   22   IZMAX=   36
   IXMIN=  -23   IYMIN=  -22   IZMIN=  -36


 parallel 3D FFT for wavefunctions:
    minimum data exchange during FFTs selected (reduces bandwidth)
 parallel 3D FFT for charge:
    minimum data exchange during FFTs selected (reduces bandwidth)


 FFT grid for exact exchange (Hartree Fock) 
  NGX = 70; NGY = 70; NGZ =112

 
 Radii for the augmentation spheres in the non-local exchange
 for species   1 augmentation radius   0.874 (default was   0.699)
       energy cutoff for augmentation   2000.0
 for species   2 augmentation radius   0.886 (default was   0.709)
       energy cutoff for augmentation   2000.0
 for species   3 augmentation radius   1.307 (default was   1.045)
       energy cutoff for augmentation   2000.0
 for species   4 augmentation radius   1.263 (default was   1.010)
       energy cutoff for augmentation   2000.0

 real space projection operators:
  total allocation   :       2470.93 KBytes
  max/ min on nodes  :         81.38         48.52

 Maximum index for augmentation-charges in exchange           84
  SETUP_FOCK is finished

 total amount of memory used by VASP MPI-rank0   141117. kBytes
=======================================================================

   base      :      30000. kBytes
   nonl-proj :       4272. kBytes
   fftplans  :      11851. kBytes
   grid      :      31266. kBytes
   one-center:         62. kBytes
   HF        :         23. kBytes
   nonlr-proj:       1744. kBytes
   wavefun   :      61899. kBytes
 
     INWAV:  cpu time    5.1671: real time    5.1802
 Broyden mixing: mesh for mixing (old mesh)
   NGX = 47   NGY = 45   NGZ = 73
  (NGX  =192   NGY  =192   NGZ  =300)
  gives a total of 154395 points

 charge density for first step will be calculated from the start-wavefunctions


--------------------------------------------------------------------------------------------------------


 Maximum index for augmentation-charges          337 (set IRDMAX)


--------------------------------------------------------------------------------------------------------


 initial charge from wavefunction
 First call to EWALD:  gamma=   0.121
 Maximum number of real-space cells 3x 3x 2
 Maximum number of reciprocal cells 2x 2x 4

    FEWALD:  cpu time    0.0037: real time    0.0037


--------------------------------------- Iteration      1(   1)  ---------------------------------------


    POTLOK:  cpu time    1.1051: real time    1.1130
    SETDIJ:  cpu time    1.1693: real time    1.1724
    TRIAL :  cpu time  210.2201: real time  210.8398
    CORREC:  cpu time    0.0010: real time    0.0010
    CHARGE:  cpu time    1.1989: real time    1.2024
    --------------------------------------------
      LOOP:  cpu time  213.7153: real time  214.3523

 eigenvalue-minimisations  :     0
 total energy-change (2. order) :-0.6080072E+03  (-0.5831226E+00)
 number of electron     246.9999997 magnetization       1.0295016
 augmentation part       15.3300175 magnetization       0.9286488

 DIPCOR: dipole corrections for dipol
 direction  3 min pos     1,
 dipolmoment           0.000000     -0.000000      0.000142 electrons x Angstroem
 Tr[quadrupol]     -6821.341444

 energy correction for charged system         0.000000 eV
 dipol+quadrupol energy correction            0.000000 eV
 added-field ion interaction          0.000000 eV  (added to PSCEN)


 Free energy of the ion-electron system (eV)
  ---------------------------------------------------
  alpha Z        PSCENC =       100.26428616
  Ewald energy   TEWEN  =     41030.74326750
  -Hartree energ DENC   =    -49850.74751573
  -exchange      EXHF   =       562.26654151
  -V(xc)+E(xc)   XCENC  =       635.71076854
  PAW double counting   =     26953.07576170   -27041.58874227
  entropy T*S    EENTRO =        -0.00535717
  eigenvalues    EBANDS =     -3235.37738265
  atomic energy  EATOM  =     10237.65472164
  ---------------------------------------------------
  free energy    TOTEN  =      -608.00718823 eV

  energy without entropy =     -608.00183106  energy(sigma->0) =     -608.00450964
  exchange ACFDT corr.  =        -0.02275445  see jH, gK, PRB 81, 115126


--------------------------------------------------------------------------------------------------------




--------------------------------------- Iteration      1(   2)  ---------------------------------------


    POTLOK:  cpu time    1.1370: real time    1.1398
    SETDIJ:  cpu time    1.2331: real time    1.2362
    TRIAL :  cpu time  209.0773: real time  209.6559
    CORREC:  cpu time    0.0009: real time    0.0009
    CHARGE:  cpu time    1.2022: real time    1.2052
    --------------------------------------------
      LOOP:  cpu time  212.6526: real time  213.2439

 eigenvalue-minimisations  :     0
 total energy-change (2. order) :-0.3850056E+00  (-0.4186245E+00)
 number of electron     246.9999997 magnetization       1.0185964
 augmentation part       15.2797063 magnetization       0.9392833

 DIPCOR: dipole corrections for dipol
 direction  3 min pos     1,
 dipolmoment          -0.000000      0.000000     -0.000405 electrons x Angstroem
 Tr[quadrupol]     -6821.210490

 energy correction for charged system         0.000000 eV
 dipol+quadrupol energy correction            0.000000 eV
 added-field ion interaction          0.000000 eV  (added to PSCEN)


 Free energy of the ion-electron system (eV)
  ---------------------------------------------------
  alpha Z        PSCENC =       100.26428616
  Ewald energy   TEWEN  =     41030.74326750
  -Hartree energ DENC   =    -49843.83429132
  -exchange      EXHF   =       562.21667194
  -V(xc)+E(xc)   XCENC  =       635.39996845
  PAW double counting   =     27087.47292491   -27176.92641681
  entropy T*S    EENTRO =        -0.00357842
  eigenvalues    EBANDS =     -3241.37796914
  atomic energy  EATOM  =     10237.65472164
  ---------------------------------------------------
  free energy    TOTEN  =      -608.39219383 eV

  energy without entropy =     -608.38861541  energy(sigma->0) =     -608.39040462
  exchange ACFDT corr.  =        -0.00459960  see jH, gK, PRB 81, 115126


--------------------------------------------------------------------------------------------------------




--------------------------------------- Iteration      1(   3)  ---------------------------------------


    POTLOK:  cpu time    1.1303: real time    1.1369
    SETDIJ:  cpu time    1.2479: real time    1.2513
    TRIAL :  cpu time  208.3021: real time  208.8650
    CORREC:  cpu time    0.0009: real time    0.0009
    CHARGE:  cpu time    1.1971: real time    1.2003
    --------------------------------------------
      LOOP:  cpu time  211.8807: real time  212.4612

 eigenvalue-minimisations  :     0
 total energy-change (2. order) :-0.3089950E+00  (-0.2176513E+00)
 number of electron     246.9999997 magnetization       1.0124623
 augmentation part       15.2425851 magnetization       0.9492965

 DIPCOR: dipole corrections for dipol
 direction  3 min pos     1,
 dipolmoment          -0.000000      0.000000     -0.000454 electrons x Angstroem
 Tr[quadrupol]     -6821.033721

 energy correction for charged system         0.000000 eV
 dipol+quadrupol energy correction            0.000000 eV
 added-field ion interaction          0.000000 eV  (added to PSCEN)


 Free energy of the ion-electron system (eV)
  ---------------------------------------------------
  alpha Z        PSCENC =       100.26428616
  Ewald energy   TEWEN  =     41030.74326750
  -Hartree energ DENC   =    -49826.85636111
  -exchange      EXHF   =       562.07364611
  -V(xc)+E(xc)   XCENC  =       634.91671530
  PAW double counting   =     27243.06373419   -27331.07924585
  entropy T*S    EENTRO =        -0.00250808
  eigenvalues    EBANDS =     -3259.47837439
  atomic energy  EATOM  =     10237.65472164
  ---------------------------------------------------
  free energy    TOTEN  =      -608.70118887 eV

  energy without entropy =     -608.69868079  energy(sigma->0) =     -608.69993483
  exchange ACFDT corr.  =        -0.00284825  see jH, gK, PRB 81, 115126


--------------------------------------------------------------------------------------------------------




--------------------------------------- Iteration      1(   4)  ---------------------------------------


    POTLOK:  cpu time    1.1304: real time    1.1340
    SETDIJ:  cpu time    1.2525: real time    1.2557
    TRIAL :  cpu time  207.2966: real time  207.8658
    CORREC:  cpu time    0.0009: real time    0.0009
    CHARGE:  cpu time    1.1909: real time    1.1939
    --------------------------------------------
      LOOP:  cpu time  210.8726: real time  211.4569

 eigenvalue-minimisations  :     0
 total energy-change (2. order) :-0.1639062E+00  (-0.1379824E+00)
 number of electron     246.9999997 magnetization       1.0083565
 augmentation part       15.2571917 magnetization       0.9555611

 DIPCOR: dipole corrections for dipol
 direction  3 min pos     1,
 dipolmoment          -0.000000      0.000000     -0.000328 electrons x Angstroem
 Tr[quadrupol]     -6820.968156

 energy correction for charged system         0.000000 eV
 dipol+quadrupol energy correction            0.000000 eV
 added-field ion interaction          0.000000 eV  (added to PSCEN)


 Free energy of the ion-electron system (eV)
  ---------------------------------------------------
  alpha Z        PSCENC =       100.26428616
  Ewald energy   TEWEN  =     41030.74326750
  -Hartree energ DENC   =    -49818.12844550
  -exchange      EXHF   =       562.15312181
  -V(xc)+E(xc)   XCENC  =       634.69269859
  PAW double counting   =     27376.59811271   -27463.77801980
  entropy T*S    EENTRO =        -0.00175334
  eigenvalues    EBANDS =     -3269.06233005
  atomic energy  EATOM  =     10237.65472164
  ---------------------------------------------------
  free energy    TOTEN  =      -608.86509502 eV

  energy without entropy =     -608.86334168  energy(sigma->0) =     -608.86421835
  exchange ACFDT corr.  =        -0.00188436  see jH, gK, PRB 81, 115126


--------------------------------------------------------------------------------------------------------




--------------------------------------- Iteration      1(   5)  ---------------------------------------


    POTLOK:  cpu time    1.1327: real time    1.1365
    SETDIJ:  cpu time    1.2498: real time    1.2539
    TRIAL :  cpu time  207.0633: real time  207.6121
    CORREC:  cpu time    0.0009: real time    0.0009
    CHARGE:  cpu time    1.1875: real time    1.1905
    --------------------------------------------
      LOOP:  cpu time  210.6362: real time  211.2001

 eigenvalue-minimisations  :     0
 total energy-change (2. order) :-0.1077634E+00  (-0.8519415E-01)
 number of electron     246.9999997 magnetization       1.0055310
 augmentation part       15.2759568 magnetization       0.9580566

 DIPCOR: dipole corrections for dipol
 direction  3 min pos     1,
 dipolmoment          -0.000000      0.000000     -0.000341 electrons x Angstroem
 Tr[quadrupol]     -6821.017132

 energy correction for charged system         0.000000 eV
 dipol+quadrupol energy correction            0.000000 eV
 added-field ion interaction          0.000000 eV  (added to PSCEN)


 Free energy of the ion-electron system (eV)
  ---------------------------------------------------
  alpha Z        PSCENC =       100.26428616
  Ewald energy   TEWEN  =     41030.74326750
  -Hartree energ DENC   =    -49821.20588198
  -exchange      EXHF   =       562.44894055
  -V(xc)+E(xc)   XCENC  =       634.76568447
  PAW double counting   =     27477.62598253   -27565.28899953
  entropy T*S    EENTRO =        -0.00120849
  eigenvalues    EBANDS =     -3265.97910638
  atomic energy  EATOM  =     10237.65472164
  ---------------------------------------------------
  free energy    TOTEN  =      -608.97285838 eV

  energy without entropy =     -608.97164989  energy(sigma->0) =     -608.97225414
  exchange ACFDT corr.  =        -0.00125592  see jH, gK, PRB 81, 115126


--------------------------------------------------------------------------------------------------------




--------------------------------------- Iteration      1(   6)  ---------------------------------------


    POTLOK:  cpu time    1.1295: real time    1.1323
    SETDIJ:  cpu time    1.2315: real time    1.2348
    TRIAL :  cpu time  208.2349: real time  208.8018
    CORREC:  cpu time    0.0009: real time    0.0009
    CHARGE:  cpu time    1.1895: real time    1.1927
    --------------------------------------------
      LOOP:  cpu time  211.7885: real time  212.3694

 eigenvalue-minimisations  :     0
 total energy-change (2. order) :-0.7118654E-01  (-0.5877854E-01)
 number of electron     246.9999997 magnetization       1.0038234
 augmentation part       15.2796553 magnetization       0.9583574

 DIPCOR: dipole corrections for dipol
 direction  3 min pos     1,
 dipolmoment          -0.000000      0.000000     -0.000297 electrons x Angstroem
 Tr[quadrupol]     -6821.089914

 energy correction for charged system         0.000000 eV
 dipol+quadrupol energy correction            0.000000 eV
 added-field ion interaction          0.000000 eV  (added to PSCEN)


 Free energy of the ion-electron system (eV)
  ---------------------------------------------------
  alpha Z        PSCENC =       100.26428616
  Ewald energy   TEWEN  =     41030.74326750
  -Hartree energ DENC   =    -49826.59419508
  -exchange      EXHF   =       562.76564228
  -V(xc)+E(xc)   XCENC  =       634.91671234
  PAW double counting   =     27543.98416787   -27632.01547296
  entropy T*S    EENTRO =        -0.00086421
  eigenvalues    EBANDS =     -3260.76196618
  atomic energy  EATOM  =     10237.65472164
  ---------------------------------------------------
  free energy    TOTEN  =      -609.04404492 eV

  energy without entropy =     -609.04318071  energy(sigma->0) =     -609.04361282
  exchange ACFDT corr.  =        -0.00082546  see jH, gK, PRB 81, 115126


--------------------------------------------------------------------------------------------------------




--------------------------------------- Iteration      1(   7)  ---------------------------------------


    POTLOK:  cpu time    1.1282: real time    1.1310
    SETDIJ:  cpu time    1.2353: real time    1.2385
    TRIAL :  cpu time  207.8051: real time  208.3738
    CORREC:  cpu time    0.0009: real time    0.0009
    CHARGE:  cpu time    1.1872: real time    1.1904
    --------------------------------------------
      LOOP:  cpu time  211.3583: real time  211.9412

 eigenvalue-minimisations  :     0
 total energy-change (2. order) :-0.4974975E-01  (-0.3999744E-01)
 number of electron     246.9999997 magnetization       1.0027764
 augmentation part       15.2805000 magnetization       0.9579793

 DIPCOR: dipole corrections for dipol
 direction  3 min pos     1,
 dipolmoment          -0.000000      0.000000     -0.000222 electrons x Angstroem
 Tr[quadrupol]     -6821.138812

 energy correction for charged system         0.000000 eV
 dipol+quadrupol energy correction            0.000000 eV
 added-field ion interaction          0.000000 eV  (added to PSCEN)


 Free energy of the ion-electron system (eV)
  ---------------------------------------------------
  alpha Z        PSCENC =       100.26428616
  Ewald energy   TEWEN  =     41030.74326750
  -Hartree energ DENC   =    -49829.85422580
  -exchange      EXHF   =       563.00692745
  -V(xc)+E(xc)   XCENC  =       635.03256199
  PAW double counting   =     27582.55596360   -27670.53175270
  entropy T*S    EENTRO =        -0.00064522
  eigenvalues    EBANDS =     -3257.96468030
  atomic energy  EATOM  =     10237.65472164
  ---------------------------------------------------
  free energy    TOTEN  =      -609.09379467 eV

  energy without entropy =     -609.09314945  energy(sigma->0) =     -609.09347206
  exchange ACFDT corr.  =        -0.00056615  see jH, gK, PRB 81, 115126


--------------------------------------------------------------------------------------------------------




--------------------------------------- Iteration      1(   8)  ---------------------------------------


    POTLOK:  cpu time    1.1204: real time    1.1233
    SETDIJ:  cpu time    1.2478: real time    1.2510
    TRIAL :  cpu time  207.6729: real time  208.2438
    CORREC:  cpu time    0.0009: real time    0.0009
    CHARGE:  cpu time    1.1892: real time    1.1922
    --------------------------------------------
      LOOP:  cpu time  211.2333: real time  211.8177

 eigenvalue-minimisations  :     0
 total energy-change (2. order) :-0.3512448E-01  (-0.2925742E-01)
 number of electron     246.9999997 magnetization       1.0020541
 augmentation part       15.2850330 magnetization       0.9577429

 DIPCOR: dipole corrections for dipol
 direction  3 min pos     1,
 dipolmoment          -0.000000      0.000000     -0.000194 electrons x Angstroem
 Tr[quadrupol]     -6821.163424

 energy correction for charged system         0.000000 eV
 dipol+quadrupol energy correction            0.000000 eV
 added-field ion interaction          0.000000 eV  (added to PSCEN)


 Free energy of the ion-electron system (eV)
  ---------------------------------------------------
  alpha Z        PSCENC =       100.26428616
  Ewald energy   TEWEN  =     41030.74326750
  -Hartree energ DENC   =    -49831.75124945
  -exchange      EXHF   =       563.17606257
  -V(xc)+E(xc)   XCENC  =       635.11007387
  PAW double counting   =     27604.11740844   -27692.05998059
  entropy T*S    EENTRO =        -0.00048948
  eigenvalues    EBANDS =     -3256.38286406
  atomic energy  EATOM  =     10237.65472164
  ---------------------------------------------------
  free energy    TOTEN  =      -609.12891915 eV

  energy without entropy =     -609.12842967  energy(sigma->0) =     -609.12867441
  exchange ACFDT corr.  =        -0.00040912  see jH, gK, PRB 81, 115126


--------------------------------------------------------------------------------------------------------




--------------------------------------- Iteration      1(   9)  ---------------------------------------


    POTLOK:  cpu time    1.1178: real time    1.1218
    SETDIJ:  cpu time    1.2489: real time    1.2523
    TRIAL :  cpu time  207.8190: real time  208.3914
    CORREC:  cpu time    0.0009: real time    0.0009
    CHARGE:  cpu time    1.1924: real time    1.1954
    --------------------------------------------
      LOOP:  cpu time  211.3814: real time  211.9682

 eigenvalue-minimisations  :     0
 total energy-change (2. order) :-0.2605197E-01  (-0.2170523E-01)
 number of electron     246.9999997 magnetization       1.0015493
 augmentation part       15.2891790 magnetization       0.9575915

 DIPCOR: dipole corrections for dipol
 direction  3 min pos     1,
 dipolmoment          -0.000000      0.000000     -0.000216 electrons x Angstroem
 Tr[quadrupol]     -6821.172804

 energy correction for charged system         0.000000 eV
 dipol+quadrupol energy correction            0.000000 eV
 added-field ion interaction          0.000000 eV  (added to PSCEN)


 Free energy of the ion-electron system (eV)
  ---------------------------------------------------
  alpha Z        PSCENC =       100.26428616
  Ewald energy   TEWEN  =     41030.74326750
  -Hartree energ DENC   =    -49832.99348271
  -exchange      EXHF   =       563.29206721
  -V(xc)+E(xc)   XCENC  =       635.15892125
  PAW double counting   =     27616.54001556   -27704.58198760
  entropy T*S    EENTRO =        -0.00037761
  eigenvalues    EBANDS =     -3255.23229063
  atomic energy  EATOM  =     10237.65472164
  ---------------------------------------------------
  free energy    TOTEN  =      -609.15497112 eV

  energy without entropy =     -609.15459352  energy(sigma->0) =     -609.15478232
  exchange ACFDT corr.  =        -0.00030187  see jH, gK, PRB 81, 115126


--------------------------------------------------------------------------------------------------------




--------------------------------------- Iteration      1(  10)  ---------------------------------------


    POTLOK:  cpu time    1.1149: real time    1.1176
    SETDIJ:  cpu time    1.2509: real time    1.2541
    TRIAL :  cpu time  207.7703: real time  208.3476
    CORREC:  cpu time    0.0009: real time    0.0009
    CHARGE:  cpu time    1.1908: real time    1.1938
    --------------------------------------------
      LOOP:  cpu time  211.3293: real time  211.9202

 eigenvalue-minimisations  :     0
 total energy-change (2. order) :-0.1980573E-01  (-0.1697160E-01)
 number of electron     246.9999997 magnetization       1.0012209
 augmentation part       15.2902074 magnetization       0.9575060

 DIPCOR: dipole corrections for dipol
 direction  3 min pos     1,
 dipolmoment          -0.000000      0.000000     -0.000241 electrons x Angstroem
 Tr[quadrupol]     -6821.174204

 energy correction for charged system         0.000000 eV
 dipol+quadrupol energy correction            0.000000 eV
 added-field ion interaction          0.000000 eV  (added to PSCEN)


 Free energy of the ion-electron system (eV)
  ---------------------------------------------------
  alpha Z        PSCENC =       100.26428616
  Ewald energy   TEWEN  =     41030.74326750
  -Hartree energ DENC   =    -49833.49973603
  -exchange      EXHF   =       563.36929079
  -V(xc)+E(xc)   XCENC  =       635.18339493
  PAW double counting   =     27623.59198662   -27711.70888353
  entropy T*S    EENTRO =        -0.00030307
  eigenvalues    EBANDS =     -3254.77272733
  atomic energy  EATOM  =     10237.65472164
  ---------------------------------------------------
  free energy    TOTEN  =      -609.17477686 eV

  energy without entropy =     -609.17447379  energy(sigma->0) =     -609.17462532
  exchange ACFDT corr.  =        -0.00022700  see jH, gK, PRB 81, 115126


--------------------------------------------------------------------------------------------------------




--------------------------------------- Iteration      1(  11)  ---------------------------------------


    POTLOK:  cpu time    1.1144: real time    1.1171
    SETDIJ:  cpu time    1.2506: real time    1.2548
    TRIAL :  cpu time  207.3999: real time  207.9531
    CORREC:  cpu time    0.0009: real time    0.0009
    CHARGE:  cpu time    1.1902: real time    1.1932
    --------------------------------------------
      LOOP:  cpu time  210.9577: real time  211.5257

 eigenvalue-minimisations  :     0
 total energy-change (2. order) :-0.1571846E-01  (-0.1374698E-01)
 number of electron     246.9999997 magnetization       1.0010122
 augmentation part       15.2902184 magnetization       0.9576355

 DIPCOR: dipole corrections for dipol
 direction  3 min pos     1,
 dipolmoment          -0.000000      0.000000     -0.000247 electrons x Angstroem
 Tr[quadrupol]     -6821.173822

 energy correction for charged system         0.000000 eV
 dipol+quadrupol energy correction            0.000000 eV
 added-field ion interaction          0.000000 eV  (added to PSCEN)


 Free energy of the ion-electron system (eV)
  ---------------------------------------------------
  alpha Z        PSCENC =       100.26428616
  Ewald energy   TEWEN  =     41030.74326750
  -Hartree energ DENC   =    -49833.48421553
  -exchange      EXHF   =       563.42419252
  -V(xc)+E(xc)   XCENC  =       635.19450597
  PAW double counting   =     27627.41851748   -27715.53657153
  entropy T*S    EENTRO =        -0.00025478
  eigenvalues    EBANDS =     -3254.86889646
  atomic energy  EATOM  =     10237.65472164
  ---------------------------------------------------
  free energy    TOTEN  =      -609.19049532 eV

  energy without entropy =     -609.19024054  energy(sigma->0) =     -609.19036793
  exchange ACFDT corr.  =        -0.00017829  see jH, gK, PRB 81, 115126


--------------------------------------------------------------------------------------------------------




--------------------------------------- Iteration      1(  12)  ---------------------------------------


    POTLOK:  cpu time    1.1131: real time    1.1171
    SETDIJ:  cpu time    1.2450: real time    1.2482
    TRIAL :  cpu time  207.6461: real time  208.9109
    CORREC:  cpu time    0.0008: real time    0.0008
    CHARGE:  cpu time    1.1884: real time    1.1914
    --------------------------------------------
      LOOP:  cpu time  211.1948: real time  212.4758

 eigenvalue-minimisations  :     0
 total energy-change (2. order) :-0.1296403E-01  (-0.1163866E-01)
 number of electron     246.9999997 magnetization       1.0008693
 augmentation part       15.2910560 magnetization       0.9578667

 DIPCOR: dipole corrections for dipol
 direction  3 min pos     1,
 dipolmoment          -0.000000      0.000000     -0.000242 electrons x Angstroem
 Tr[quadrupol]     -6821.175824

 energy correction for charged system         0.000000 eV
 dipol+quadrupol energy correction            0.000000 eV
 added-field ion interaction          0.000000 eV  (added to PSCEN)


 Free energy of the ion-electron system (eV)
  ---------------------------------------------------
  alpha Z        PSCENC =       100.26428616
  Ewald energy   TEWEN  =     41030.74326750
  -Hartree energ DENC   =    -49833.48557129
  -exchange      EXHF   =       563.47204512
  -V(xc)+E(xc)   XCENC  =       635.20566646
  PAW double counting   =     27629.89170965   -27718.01367862
  entropy T*S    EENTRO =        -0.00022126
  eigenvalues    EBANDS =     -3254.93565118
  atomic energy  EATOM  =     10237.65472164
  ---------------------------------------------------
  free energy    TOTEN  =      -609.20345935 eV

  energy without entropy =     -609.20323809  energy(sigma->0) =     -609.20334872
  exchange ACFDT corr.  =        -0.00014741  see jH, gK, PRB 81, 115126


--------------------------------------------------------------------------------------------------------




--------------------------------------- Iteration      1(  13)  ---------------------------------------


    POTLOK:  cpu time    1.1106: real time    1.1144
    SETDIJ:  cpu time    1.2307: real time    1.2349
    TRIAL :  cpu time  208.4559: real time  209.0369
    CORREC:  cpu time    0.0009: real time    0.0009
    CHARGE:  cpu time    1.1895: real time    1.1924
    --------------------------------------------
      LOOP:  cpu time  211.9889: real time  212.5873

 eigenvalue-minimisations  :     0
 total energy-change (2. order) :-0.1109338E-01  (-0.1012619E-01)
 number of electron     246.9999997 magnetization       1.0007633
 augmentation part       15.2922703 magnetization       0.9578571

 DIPCOR: dipole corrections for dipol
 direction  3 min pos     1,
 dipolmoment          -0.000000      0.000000     -0.000235 electrons x Angstroem
 Tr[quadrupol]     -6821.180068

 energy correction for charged system         0.000000 eV
 dipol+quadrupol energy correction            0.000000 eV
 added-field ion interaction          0.000000 eV  (added to PSCEN)


 Free energy of the ion-electron system (eV)
  ---------------------------------------------------
  alpha Z        PSCENC =       100.26428616
  Ewald energy   TEWEN  =     41030.74326750
  -Hartree energ DENC   =    -49833.69774913
  -exchange      EXHF   =       563.51809690
  -V(xc)+E(xc)   XCENC  =       635.22050014
  PAW double counting   =     27632.15924766   -27720.31676287
  entropy T*S    EENTRO =        -0.00019608
  eigenvalues    EBANDS =     -3254.75993946
  atomic energy  EATOM  =     10237.65472164
  ---------------------------------------------------
  free energy    TOTEN  =      -609.21455273 eV

  energy without entropy =     -609.21435666  energy(sigma->0) =     -609.21445469
  exchange ACFDT corr.  =        -0.00012638  see jH, gK, PRB 81, 115126


--------------------------------------------------------------------------------------------------------




--------------------------------------- Iteration      1(  14)  ---------------------------------------


    POTLOK:  cpu time    1.1084: real time    1.1123
    SETDIJ:  cpu time    1.2336: real time    1.2368
    TRIAL :  cpu time  208.6735: real time  209.2799
    CORREC:  cpu time    0.0009: real time    0.0009
    CHARGE:  cpu time    1.1880: real time    1.1911
    --------------------------------------------
      LOOP:  cpu time  212.2056: real time  212.8279

 eigenvalue-minimisations  :     0
 total energy-change (2. order) :-0.9759415E-02  (-0.9087482E-02)
 number of electron     246.9999997 magnetization       1.0006836
 augmentation part       15.2931180 magnetization       0.9575628

 DIPCOR: dipole corrections for dipol
 direction  3 min pos     1,
 dipolmoment          -0.000000      0.000000     -0.000231 electrons x Angstroem
 Tr[quadrupol]     -6821.184186

 energy correction for charged system         0.000000 eV
 dipol+quadrupol energy correction            0.000000 eV
 added-field ion interaction          0.000000 eV  (added to PSCEN)


 Free energy of the ion-electron system (eV)
  ---------------------------------------------------
  alpha Z        PSCENC =       100.26428616
  Ewald energy   TEWEN  =     41030.74326750
  -Hartree energ DENC   =    -49833.95267030
  -exchange      EXHF   =       563.56030507
  -V(xc)+E(xc)   XCENC  =       635.23522353
  PAW double counting   =     27634.55554098   -27722.74812169
  entropy T*S    EENTRO =        -0.00017697
  eigenvalues    EBANDS =     -3254.53666896
  atomic energy  EATOM  =     10237.65472164
  ---------------------------------------------------
  free energy    TOTEN  =      -609.22431215 eV

  energy without entropy =     -609.22413518  energy(sigma->0) =     -609.22422366
  exchange ACFDT corr.  =        -0.00011081  see jH, gK, PRB 81, 115126


--------------------------------------------------------------------------------------------------------




--------------------------------------- Iteration      1(  15)  ---------------------------------------


    POTLOK:  cpu time    1.1055: real time    1.1094
    SETDIJ:  cpu time    1.2519: real time    1.2550
    TRIAL :  cpu time  207.4904: real time  208.0466
    CORREC:  cpu time    0.0009: real time    0.0009
    CHARGE:  cpu time    1.1903: real time    1.1933
    --------------------------------------------
      LOOP:  cpu time  211.0409: real time  211.6116

 eigenvalue-minimisations  :     0
 total energy-change (2. order) :-0.8821500E-02  (-0.8326477E-02)
 number of electron     246.9999997 magnetization       1.0006251
 augmentation part       15.2936332 magnetization       0.9572240

 DIPCOR: dipole corrections for dipol
 direction  3 min pos     1,
 dipolmoment          -0.000000      0.000000     -0.000226 electrons x Angstroem
 Tr[quadrupol]     -6821.187062

 energy correction for charged system         0.000000 eV
 dipol+quadrupol energy correction            0.000000 eV
 added-field ion interaction          0.000000 eV  (added to PSCEN)


 Free energy of the ion-electron system (eV)
  ---------------------------------------------------
  alpha Z        PSCENC =       100.26428616
  Ewald energy   TEWEN  =     41030.74326750
  -Hartree energ DENC   =    -49834.12593153
  -exchange      EXHF   =       563.59726622
  -V(xc)+E(xc)   XCENC  =       635.24748061
  PAW double counting   =     27637.08318262   -27725.29435512
  entropy T*S    EENTRO =        -0.00016285
  eigenvalues    EBANDS =     -3254.40287477
  atomic energy  EATOM  =     10237.65472164
  ---------------------------------------------------
  free energy    TOTEN  =      -609.23313365 eV

  energy without entropy =     -609.23297080  energy(sigma->0) =     -609.23305222
  exchange ACFDT corr.  =        -0.00009914  see jH, gK, PRB 81, 115126


--------------------------------------------------------------------------------------------------------




--------------------------------------- Iteration      1(  16)  ---------------------------------------


    POTLOK:  cpu time    1.1066: real time    1.1111
    SETDIJ:  cpu time    1.2469: real time    1.2515
    TRIAL :  cpu time  208.4868: real time  209.0529
    CORREC:  cpu time    0.0008: real time    0.0008
    CHARGE:  cpu time    1.1938: real time    1.1969
    --------------------------------------------
      LOOP:  cpu time  212.0367: real time  212.6200

 eigenvalue-minimisations  :     0
 total energy-change (2. order) :-0.8131903E-02  (-0.7779082E-02)
 number of electron     246.9999997 magnetization       1.0005822
 augmentation part       15.2940700 magnetization       0.9569410

 DIPCOR: dipole corrections for dipol
 direction  3 min pos     1,
 dipolmoment          -0.000000      0.000000     -0.000225 electrons x Angstroem
 Tr[quadrupol]     -6821.189221

 energy correction for charged system         0.000000 eV
 dipol+quadrupol energy correction            0.000000 eV
 added-field ion interaction          0.000000 eV  (added to PSCEN)


 Free energy of the ion-electron system (eV)
  ---------------------------------------------------
  alpha Z        PSCENC =       100.26428616
  Ewald energy   TEWEN  =     41030.74326750
  -Hartree energ DENC   =    -49834.25020623
  -exchange      EXHF   =       563.63032863
  -V(xc)+E(xc)   XCENC  =       635.25825866
  PAW double counting   =     27639.66769013   -27727.89293641
  entropy T*S    EENTRO =        -0.00015240
  eigenvalues    EBANDS =     -3254.31651277
  atomic energy  EATOM  =     10237.65472164
  ---------------------------------------------------
  free energy    TOTEN  =      -609.24126555 eV

  energy without entropy =     -609.24111315  energy(sigma->0) =     -609.24118935
  exchange ACFDT corr.  =        -0.00009062  see jH, gK, PRB 81, 115126


--------------------------------------------------------------------------------------------------------




--------------------------------------- Iteration      1(  17)  ---------------------------------------


    POTLOK:  cpu time    1.1054: real time    1.1094
    SETDIJ:  cpu time    1.2343: real time    1.2375
    TRIAL :  cpu time  207.6023: real time  208.1494
    CORREC:  cpu time    0.0008: real time    0.0008
    CHARGE:  cpu time    1.1903: real time    1.1935
    --------------------------------------------
      LOOP:  cpu time  211.1349: real time  211.7011

 eigenvalue-minimisations  :     0
 total energy-change (2. order) :-0.7629005E-02  (-0.7360503E-02)
 number of electron     246.9999997 magnetization       1.0005496
 augmentation part       15.2944695 magnetization       0.9565946

 DIPCOR: dipole corrections for dipol
 direction  3 min pos     1,
 dipolmoment          -0.000000      0.000000     -0.000225 electrons x Angstroem
 Tr[quadrupol]     -6821.191266

 energy correction for charged system         0.000000 eV
 dipol+quadrupol energy correction            0.000000 eV
 added-field ion interaction          0.000000 eV  (added to PSCEN)


 Free energy of the ion-electron system (eV)
  ---------------------------------------------------
  alpha Z        PSCENC =       100.26428616
  Ewald energy   TEWEN  =     41030.74326750
  -Hartree energ DENC   =    -49834.37257014
  -exchange      EXHF   =       563.66112088
  -V(xc)+E(xc)   XCENC  =       635.26881582
  PAW double counting   =     27642.17999491   -27730.42233362
  entropy T*S    EENTRO =        -0.00014443
  eigenvalues    EBANDS =     -3254.22604531
  atomic energy  EATOM  =     10237.65472164
  ---------------------------------------------------
  free energy    TOTEN  =      -609.24889455 eV

  energy without entropy =     -609.24875013  energy(sigma->0) =     -609.24882234
  exchange ACFDT corr.  =        -0.00008439  see jH, gK, PRB 81, 115126


--------------------------------------------------------------------------------------------------------




[...]
  Kinetic  3642.03255  3707.34313  4209.63629     0.05189     0.14126    -0.06312
  Fock     -333.48245  -342.25325  -323.82677     0.01245    -0.00454    -0.00124
  -------------------------------------------------------------------------------------
  Total     -41.70796   -35.88658    -0.40567     0.11374     0.01326    -0.00436
  in kB     -21.03433   -18.09847    -0.20459     0.05736     0.00669    -0.00220
  external pressure =      -13.11 kB  Pullay stress =        0.00 kB


 VOLUME and BASIS-vectors are now :
 -----------------------------------------------------------------------------
  energy-cutoff  :      500.00
  volume of cell :     3176.88
      direct lattice vectors                 reciprocal lattice vectors
    12.666469841 -0.000870085  0.001363403     0.078948596  0.000004149 -0.000008373
    -0.000655295 12.466471604 -0.002032217     0.000005509  0.080215161  0.000013060
     0.002133935 -0.003275787 20.118781921    -0.000005350  0.000008102  0.049704800

  length of vectors
    12.666469944 12.466471787 20.118782301     0.078948597  0.080215163  0.049704801


 FORCES acting on ions:
    Electron-Ion                     Ewald-Force                    Non-Local-Force
 -----------------------------------------------------------------------------------------------
   0.858E+01 0.744E+00 -.160E+00   -.893E+01 -.721E+00 0.160E+00   0.345E+00 -.362E-01 -.271E-04
   -.356E+00 -.157E+01 -.203E+00   0.323E+00 0.169E+01 0.204E+00   0.368E-01 -.880E-01 -.118E-02
   0.122E+02 0.587E+00 -.403E-01   -.123E+02 -.578E+00 0.397E-01   0.178E+00 -.193E-01 0.176E-02
   0.202E+02 0.840E+01 -.358E+00   -.206E+02 -.853E+01 0.356E+00   0.360E+00 0.177E+00 -.926E-03
   0.211E+02 0.130E+01 -.243E+00   -.215E+02 -.127E+01 0.243E+00   0.344E+00 -.884E-01 -.127E-02
   0.586E+01 -.274E+01 -.302E+00   -.596E+01 0.306E+01 0.301E+00   0.110E+00 -.279E+00 0.804E-03
   0.109E+02 0.169E+01 -.275E+00   -.113E+02 -.140E+01 0.274E+00   0.307E+00 -.290E+00 -.948E-04
   0.545E+02 0.331E+01 0.904E-01   -.579E+02 -.273E+01 -.856E-01   0.355E+01 -.663E+00 -.543E-02
   0.319E+02 -.381E+00 -.664E-01   -.321E+02 0.753E+00 0.668E-01   0.169E+00 -.238E+00 -.197E-02
   0.635E+01 -.704E+00 -.304E+00   -.641E+01 0.706E+00 0.302E+00   0.233E+00 0.130E-01 0.194E-02
   0.120E+02 -.324E+01 -.322E+00   -.121E+02 0.341E+01 0.322E+00   -.332E-01 -.169E+00 -.225E-02
   0.797E+02 -.456E+01 0.418E-01   -.831E+02 0.455E+01 -.265E-01   0.367E+01 0.127E+00 -.179E-01
   0.282E+02 -.133E+01 -.456E+00   -.284E+02 0.780E+00 0.459E+00   0.150E+00 0.357E+00 -.645E-02
   0.537E+01 0.272E+01 -.217E+00   -.547E+01 -.308E+01 0.218E+00   0.120E+00 0.284E+00 0.348E-03
   0.108E+02 0.166E+01 -.376E+00   -.110E+02 -.184E+01 0.376E+00   -.193E-01 0.192E+00 -.753E-03
   0.494E+02 -.142E+01 -.406E+00   -.530E+02 0.763E+00 0.406E+00   0.379E+01 0.633E+00 -.338E-02
   0.191E+02 0.945E-02 -.188E+00   -.196E+02 0.825E-01 0.189E+00   0.434E+00 0.196E-01 -.416E-04
   -.621E+00 0.233E+01 0.694E-02   0.611E+00 -.241E+01 -.630E-02   0.440E-01 0.511E-01 0.316E-04
   0.105E+02 -.830E+00 -.783E-01   -.109E+02 0.547E+00 0.777E-01   0.368E+00 0.276E+00 0.139E-02
   0.192E+02 -.580E+01 -.964E-01   -.197E+02 0.597E+01 0.956E-01   0.387E+00 -.221E+00 0.324E-02
   -.687E+01 0.180E+01 -.570E+00   0.638E+01 -.174E+01 0.570E+00   0.270E+00 -.611E-01 -.162E-02
   0.982E+01 0.165E+02 -.517E+00   -.979E+01 -.170E+02 0.518E+00   0.546E-01 0.548E+00 -.530E-02
   0.687E+01 0.174E+01 -.570E+00   -.638E+01 -.167E+01 0.571E+00   -.269E+00 -.585E-01 -.178E-02
   -.983E+01 0.165E+02 -.536E+00   0.980E+01 -.170E+02 0.538E+00   -.480E-01 0.554E+00 -.536E-02
   -.265E+01 0.523E+02 -.175E-01   0.138E+01 -.552E+02 0.241E-01   0.140E+01 0.278E+01 -.635E-02
   0.266E+01 0.524E+02 0.532E-02   -.139E+01 -.552E+02 0.176E-02   -.140E+01 0.279E+01 -.678E-02
   0.555E-01 -.434E+02 -.334E+00   -.146E+01 0.465E+02 0.337E+00   0.135E+01 -.293E+01 -.243E-02
   0.911E+01 -.131E+02 -.335E+00   -.909E+01 0.137E+02 0.336E+00   0.847E-01 -.715E+00 0.353E-03
   -.673E-01 -.434E+02 -.348E+00   0.147E+01 0.466E+02 0.351E+00   -.134E+01 -.293E+01 -.275E-02
   -.911E+01 -.131E+02 -.323E+00   0.908E+01 0.137E+02 0.324E+00   -.883E-01 -.712E+00 0.418E-03
   -.122E+02 0.527E+00 -.413E-01   0.123E+02 -.523E+00 0.408E-01   -.175E+00 -.176E-01 0.178E-02
   -.202E+02 0.842E+01 -.384E+00   0.206E+02 -.855E+01 0.382E+00   -.356E+00 0.169E+00 -.108E-02
   -.857E+01 0.756E+00 -.163E+00   0.892E+01 -.726E+00 0.164E+00   -.341E+00 -.337E-01 -.125E-03
   0.373E+00 -.146E+01 -.205E+00   -.341E+00 0.158E+01 0.206E+00   -.363E-01 -.818E-01 -.117E-02
   -.109E+02 0.163E+01 -.290E+00   0.113E+02 -.133E+01 0.290E+00   -.313E+00 -.292E+00 -.347E-04
   -.544E+02 0.332E+01 0.257E-01   0.578E+02 -.275E+01 -.205E-01   -.356E+01 -.656E+00 -.644E-02
   -.212E+02 0.136E+01 -.279E+00   0.215E+02 -.133E+01 0.279E+00   -.353E+00 -.828E-01 -.129E-02
   -.587E+01 -.270E+01 -.316E+00   0.597E+01 0.302E+01 0.315E+00   -.124E+00 -.282E+00 0.705E-03
   -.120E+02 -.320E+01 -.348E+00   0.121E+02 0.337E+01 0.349E+00   0.268E-01 -.165E+00 -.226E-02
   -.797E+02 -.430E+01 0.124E-01   0.831E+02 0.428E+01 0.462E-02   -.367E+01 0.143E+00 -.197E-01
   -.318E+02 -.506E+00 -.108E+00   0.320E+02 0.872E+00 0.108E+00   -.181E+00 -.230E+00 -.218E-02
   -.636E+01 -.810E+00 -.319E+00   0.643E+01 0.809E+00 0.317E+00   -.236E+00 0.125E-01 0.186E-02
   -.108E+02 0.177E+01 -.402E+00   0.110E+02 -.196E+01 0.402E+00   0.230E-01 0.198E+00 -.941E-03
   -.494E+02 -.134E+01 -.412E+00   0.530E+02 0.677E+00 0.412E+00   -.379E+01 0.638E+00 -.433E-02
   -.282E+02 -.151E+01 -.478E+00   0.284E+02 0.960E+00 0.481E+00   -.144E+00 0.363E+00 -.657E-02
   -.539E+01 0.269E+01 -.232E+00   0.549E+01 -.306E+01 0.232E+00   -.103E+00 0.288E+00 0.135E-03
   -.105E+02 -.894E+00 -.897E-01   0.109E+02 0.612E+00 0.892E-01   -.364E+00 0.277E+00 0.118E-02
   -.193E+02 -.577E+01 -.878E-01   0.197E+02 0.594E+01 0.870E-01   -.387E+00 -.222E+00 0.334E-02
   -.191E+02 -.198E-01 -.191E+00   0.196E+02 0.114E+00 0.191E+00   -.429E+00 0.271E-01 -.253E-03
   0.644E+00 0.239E+01 0.914E-02   -.635E+00 -.247E+01 -.859E-02   -.421E-01 0.586E-01 0.184E-03
   0.401E+02 -.327E+01 0.964E+00   -.304E+02 0.206E+02 -.103E+01   -.957E+01 -.164E+02 0.712E-01
   -.399E+02 -.361E+01 0.884E+00   0.303E+02 0.210E+02 -.956E+00   0.956E+01 -.165E+02 0.719E-01
   0.823E+02 -.164E+02 0.237E+01   -.708E+02 0.158E+02 -.248E+01   -.114E+02 0.879E+00 0.105E+00
   -.823E+02 -.163E+02 0.245E+01   0.707E+02 0.157E+02 -.257E+01   0.114E+02 0.853E+00 0.113E+00
   0.228E+02 0.175E+02 -.484E+00   -.136E+02 -.345E+02 0.489E+00   -.924E+01 0.159E+02 -.699E-02
   -.230E+02 0.172E+02 -.459E+00   0.137E+02 -.342E+02 0.461E+00   0.923E+01 0.159E+02 -.405E-02
   -.265E+00 0.918E+02 0.384E+01   0.270E+00 -.970E+02 -.382E+01   0.138E-01 0.425E+00 -.130E-01
   0.164E+00 -.116E+03 0.198E+01   -.165E+00 0.121E+03 -.195E+01   -.120E-01 -.191E+00 -.224E-01
 -----------------------------------------------------------------------------------------------
   0.527E-02 -.532E+00 -.243E+00   0.357E-13 0.185E-12 -.178E-14   -.425E-02 0.330E+00 0.214E+00
 
 
 POSITION                                       TOTAL-FORCE (eV/Angst)
 -----------------------------------------------------------------------------------
      2.79943     12.46440     10.05785         0.001363     -0.014739      0.000779
      0.70090      1.25525     10.05960        -0.003262      0.020810     -0.000376
      1.38601     12.46416     10.05749         0.046868     -0.012049      0.001262
      3.50492      1.23737     10.05986         0.015791      0.062756     -0.003189
      2.84119      2.49654     10.05895         0.002691     -0.073739     -0.001217
      0.70895      3.75040     10.05925         0.018636      0.028498      0.000062
      1.41331      2.50627     10.05943        -0.037180     -0.005888     -0.000661
      3.60262      3.72421     10.05683         0.404505     -0.125050     -0.000951
      2.88450      4.96813     10.05718        -0.049734      0.124696     -0.001694
      0.71264      6.22997     10.05884         0.181011      0.015093      0.000173
      1.44590      4.98392     10.05875        -0.107859     -0.008032     -0.001796
      3.61399      6.22443     10.05561         0.507531      0.117116     -0.003667
      2.88714      7.48884     10.05821        -0.012073     -0.176635     -0.003996
      0.70761      8.70897     10.05841         0.028516     -0.058781      0.000864
      1.44679      7.47508     10.05876        -0.173435      0.018928     -0.001052
      3.59835      8.73749     10.05834         0.395622      0.008999     -0.004177
      2.83775      9.96531     10.05820        -0.011266      0.119525      0.000223
      0.69950     11.20675     10.05748         0.027786     -0.026964      0.000697
      1.41046      9.95497     10.05794        -0.008236      0.004387      0.000867
      3.50312     11.22480     10.05806        -0.031810     -0.064113      0.002580
      7.02789     -0.00083     10.06125        -0.213346     -0.000321     -0.001376
      4.91724      1.22830     10.06004         0.089428      0.091949     -0.003804
      5.62054     -0.00063     10.06109         0.213795      0.010524     -0.001367
      7.73146      1.22767     10.06042        -0.080420      0.105835     -0.003905
      7.03600      2.45621     10.05764         0.204051      0.089367     -0.000126
      5.61336      2.45640     10.05740        -0.207060      0.095504     -0.000080
      7.03507     10.00999     10.05861         0.016347      0.077957      0.000582
      4.91586     11.23751     10.05869         0.110664     -0.144072      0.001419
      5.61127     10.01021     10.05849        -0.009613      0.080499      0.000460
      7.73097     11.23690     10.05897        -0.118123     -0.136271      0.001521
     11.26100     12.46307     10.05857        -0.044408     -0.014119      0.001362
      9.14384      1.23665     10.06057        -0.011532      0.047910     -0.003240
      9.84755     12.46325     10.05864         0.001838     -0.005063      0.000785
     11.94805      1.25404     10.06083         0.002584      0.029415     -0.000373
     11.23626      2.50527     10.06056         0.037242     -0.008270     -0.000621
      9.04726      3.72286     10.05761        -0.414003     -0.117069     -0.001556
      9.80844      2.49526     10.05984        -0.011233     -0.067735     -0.001216
     11.94098      3.74945     10.06051        -0.031264      0.020751     -0.000017
     11.20349      4.98263     10.05990         0.105532     -0.001594     -0.001897
      9.03448      6.22257     10.05622        -0.512528      0.133305     -0.003966
      9.76505      4.96664     10.05806         0.035456      0.127114     -0.001787
     11.93579      6.22899     10.06010        -0.184145      0.012090      0.000020
     11.20045      7.47369     10.05989         0.172207      0.022967     -0.001227
      9.04798      8.73611     10.05891        -0.385389      0.011752     -0.004227
      9.76002      7.48740     10.05899         0.018223     -0.173485     -0.003998
     11.93862      8.70780     10.05965        -0.008831     -0.055652      0.000647
     11.23593      9.95372     10.05903         0.005939      0.006475      0.000755
      9.14360     11.22384     10.05865         0.036161     -0.070817      0.002760
      9.80858      9.96390     10.05895         0.016250      0.130053      0.000158
     11.94710     11.20545     10.05869        -0.026613     -0.014642      0.000767
      4.99327      3.67755     10.05462        -0.746817     -0.490238      0.006206
      7.65661      3.67692     10.05508         0.730280     -0.485409      0.006210
      4.94133      6.22260     10.05090        -0.802769      0.385347      0.003236
      7.70716      6.22221     10.05105         0.797528      0.368524      0.003865
      4.98851      8.79046     10.05785        -0.786547      0.281118     -0.003103
      7.65771      8.78992     10.05808         0.801444      0.282684     -0.002563
      6.32387      5.07821     10.05070         0.015160     -3.926363      0.012574
      6.32437      7.35178     10.05281        -0.010951      3.345165      0.012394
 -----------------------------------------------------------------------------------
    total drift:                               -0.000549      0.001179     -0.000315


--------------------------------------------------------------------------------------------------------



  FREE ENERGIE OF THE ION-ELECTRON SYSTEM (eV)
  ---------------------------------------------------
  free  energy   TOTEN  =      -609.65481462 eV

  energy  without entropy=     -609.64675478  energy(sigma->0) =     -609.65078470
 


--------------------------------------------------------------------------------------------------------


    POTLOK:  cpu time    2.2534: real time    2.2654


--------------------------------------------------------------------------------------------------------


 stress matrix after NEB project (eV)
    -41.70796      0.11374     -0.00436
      0.11374    -35.88658      0.01388
     -0.00437      0.01326     -0.40567
  FORCES: max atom, RMS     3.926413    0.754471
  FORCE total and by dimension    5.745878    3.926363
  Stress total and by dimension   55.023553   41.707959
 writing wavefunctions
     LOOP+:  cpu time41005.0462: real time41128.0391
 vacuum level on the upper side and lower side of the slab         1.486         1.486
    4ORBIT:  cpu time    0.0000: real time    0.0000
 


 total charge     
 
# of ion       s       p       d       tot
------------------------------------------
    1        0.867   1.791   0.000   2.658
    2        0.865   1.766   0.000   2.631
    3        0.867   1.772   0.000   2.640
    4        0.871   1.779   0.000   2.651
    5        0.864   1.768   0.000   2.632
    6        0.862   1.761   0.000   2.623
    7        0.864   1.758   0.000   2.622
    8        0.853   1.711   0.000   2.564
    9        0.856   1.762   0.000   2.618
   10        0.855   1.740   0.000   2.595
   11        0.860   1.739   0.000   2.599
   12        0.860   1.726   0.000   2.586
   13        0.855   1.756   0.000   2.610
   14        0.862   1.758   0.000   2.620
   15        0.859   1.738   0.000   2.597
   16        0.853   1.711   0.000   2.564
   17        0.864   1.768   0.000   2.632
   18        0.865   1.766   0.000   2.631
   19        0.864   1.758   0.000   2.622
   20        0.871   1.779   0.000   2.650
   21        0.871   1.808   0.000   2.678
   22        0.874   1.804   0.000   2.678
   23        0.871   1.808   0.000   2.678
   24        0.874   1.804   0.000   2.678
   25        0.869   1.773   0.000   2.642
   26        0.869   1.773   0.000   2.642
   27        0.869   1.773   0.000   2.642
   28        0.874   1.805   0.000   2.678
   29        0.869   1.773   0.000   2.642
   30        0.874   1.805   0.000   2.678
   31        0.867   1.772   0.000   2.640
   32        0.871   1.779   0.000   2.651
   33        0.867   1.791   0.000   2.658
   34        0.865   1.766   0.000   2.631
   35        0.864   1.758   0.000   2.622
   36        0.853   1.711   0.000   2.565
   37        0.865   1.768   0.000   2.632
   38        0.862   1.760   0.000   2.623
   39        0.860   1.739   0.000   2.599
   40        0.860   1.726   0.000   2.586
   41        0.856   1.762   0.000   2.618
   42        0.855   1.740   0.000   2.595
   43        0.859   1.738   0.000   2.597
   44        0.853   1.710   0.000   2.563
   45        0.855   1.755   0.000   2.610
   46        0.862   1.759   0.000   2.620
   47        0.864   1.758   0.000   2.622
   48        0.871   1.779   0.000   2.650
   49        0.864   1.768   0.000   2.632
   50        0.865   1.766   0.000   2.631
   51        1.230   2.659   0.000   3.888
   52        1.230   2.659   0.000   3.888
   53        1.246   2.640   0.000   3.885
   54        1.246   2.640   0.000   3.885
   55        1.230   2.664   0.000   3.894
   56        1.230   2.664   0.000   3.894
   57        0.462   0.709   7.445   8.616
   58        0.486   0.755   6.314   7.554
--------------------------------------------------
tot         51.549 105.523  13.759 170.830
 


 magnetization (x)
 
# of ion       s       p       d       tot
------------------------------------------
    1       -0.000  -0.006   0.000  -0.007
    2       -0.000  -0.003   0.000  -0.003
    3       -0.000  -0.007   0.000  -0.007
    4       -0.000  -0.008   0.000  -0.008
    5        0.000  -0.003   0.000  -0.003
    6       -0.001  -0.012   0.000  -0.012
    7       -0.000  -0.003   0.000  -0.003
    8        0.001   0.000   0.000   0.001
    9       -0.000  -0.011   0.000  -0.012
   10        0.000  -0.001   0.000  -0.001
   11       -0.000  -0.009   0.000  -0.009
   12       -0.001  -0.003   0.000  -0.004
   13        0.002  -0.000   0.000   0.001
   14       -0.000  -0.011   0.000  -0.011
   15        0.000  -0.006   0.000  -0.006
   16        0.000  -0.006   0.000  -0.006
   17       -0.000  -0.003   0.000  -0.003
   18       -0.000  -0.002   0.000  -0.002
   19       -0.000  -0.003   0.000  -0.003
   20       -0.001  -0.010   0.000  -0.011
   21       -0.000  -0.004   0.000  -0.004
   22        0.000  -0.000   0.000  -0.000
   23       -0.000  -0.004   0.000  -0.004
   24        0.000  -0.000   0.000  -0.000
   25       -0.000  -0.006   0.000  -0.006
   26       -0.000  -0.006   0.000  -0.006
   27       -0.001  -0.009   0.000  -0.009
   28        0.000   0.001   0.000   0.001
   29       -0.001  -0.009   0.000  -0.009
   30        0.000   0.001   0.000   0.001
   31       -0.000  -0.007   0.000  -0.007
   32       -0.000  -0.008   0.000  -0.009
   33       -0.000  -0.006   0.000  -0.007
   34       -0.000  -0.003   0.000  -0.003
   35       -0.000  -0.003   0.000  -0.003
   36        0.001   0.000   0.000   0.001
   37        0.000  -0.003   0.000  -0.002
   38       -0.001  -0.012   0.000  -0.012
   39       -0.000  -0.009   0.000  -0.009
   40       -0.001  -0.003   0.000  -0.004
   41       -0.000  -0.011   0.000  -0.012
   42        0.000  -0.001   0.000  -0.001
   43        0.000  -0.006   0.000  -0.006
   44        0.000  -0.006   0.000  -0.006
   45        0.002  -0.000   0.000   0.001
   46       -0.000  -0.011   0.000  -0.011
   47       -0.000  -0.003   0.000  -0.003
   48       -0.001  -0.011   0.000  -0.011
   49        0.000  -0.003   0.000  -0.003
   50       -0.000  -0.002   0.000  -0.002
   51        0.002  -0.025   0.000  -0.023
   52        0.002  -0.025   0.000  -0.023
   53        0.002   0.083   0.000   0.085
   54        0.002   0.084   0.000   0.086
   55       -0.004  -0.042   0.000  -0.046
   56       -0.004  -0.042   0.000  -0.046
   57       -0.048  -0.014  -0.785  -0.847
   58        0.061   0.019   2.247   2.326
--------------------------------------------------
tot          0.009  -0.212   1.462   1.259
 

 total amount of memory used by VASP MPI-rank0   155913. kBytes
=======================================================================

   base      :      30000. kBytes
   nonl-proj :       4272. kBytes
   fftplans  :      11851. kBytes
   grid      :      31266. kBytes
   one-center:         62. kBytes
   HF        :         23. kBytes
   nonlr-proj:      16540. kBytes
   wavefun   :      61899. kBytes
 
  
  
 General timing and accounting informations for this job:
 ========================================================
  
                  Total CPU time used (sec):    41069.273
                            User time (sec):    40939.028
                          System time (sec):      130.245
                         Elapsed time (sec):    41200.630
  
                   Maximum memory used (kb):      400248.
                   Average memory used (kb):           0.
  
                          Minor page faults:      2668304
                          Major page faults:            1
                 Voluntary context switches:       455274
