 vasp.5.4.4.18Apr17-6-g9f103f2a35 (build Feb 25 2019 10:51:38) complex          
  
 executed on             LinuxIFC date 2021.06.15  13:25:19
 running on   48 total cores
 distrk:  each k-point on   24 cores,    2 groups
 distr:  one band on NCORES_PER_BAND=  24 cores,    1 groups


--------------------------------------------------------------------------------------------------------


 INCAR:
 POTCAR:    PAW_PBE C 08Apr2002                   
 POTCAR:    PAW_PBE N 08Apr2002                   
 POTCAR:    PAW_PBE Fe 06Sep2000                  
 POTCAR:    PAW_PBE Mn 06Sep2000                  

 ----------------------------------------------------------------------------- 
|                                                                             |
|           W    W    AA    RRRRR   N    N  II  N    N   GGGG   !!!           |
|           W    W   A  A   R    R  NN   N  II  NN   N  G    G  !!!           |
|           W    W  A    A  R    R  N N  N  II  N N  N  G       !!!           |
|           W WW W  AAAAAA  RRRRR   N  N N  II  N  N N  G  GGG   !            |
|           WW  WW  A    A  R   R   N   NN  II  N   NN  G    G                |
|           W    W  A    A  R    R  N    N  II  N    N   GGGG   !!!           |
|                                                                             |
|      For optimal performance we recommend to set                            |
|        NCORE= 4 - approx SQRT( number of cores)                             |
|      NCORE specifies how many cores store one orbital (NPAR=cpu/NCORE).     |
|      This setting can  greatly improve the performance of VASP for DFT.     |
|      The default,   NCORE=1            might be grossly inefficient         |
|      on modern multi-core architectures or massively parallel machines.     |
|      Do your own testing !!!!                                               |
|      Unfortunately you need to use the default for GW and RPA calculations. |
|      (for HF NCORE is supported but not extensively tested yet)             |
|                                                                             |
 ----------------------------------------------------------------------------- 


 ----------------------------------------------------------------------------- 
|                                                                             |
|           W    W    AA    RRRRR   N    N  II  N    N   GGGG   !!!           |
|           W    W   A  A   R    R  NN   N  II  NN   N  G    G  !!!           |
|           W    W  A    A  R    R  N N  N  II  N N  N  G       !!!           |
|           W WW W  AAAAAA  RRRRR   N  N N  II  N  N N  G  GGG   !            |
|           WW  WW  A    A  R   R   N   NN  II  N   NN  G    G                |
|           W    W  A    A  R    R  N    N  II  N    N   GGGG   !!!           |
|                                                                             |
|      You have enabled k-point parallelism (KPAR>1).                         |
|      This developmental code was originally  written by Paul Kent at ORNL,  |
|      and carefully double checked in Vienna.                                |
|      GW as well as linear response parallelism added by Martijn Marsman     |
|      and Georg Kresse.                                                      |
|      Carefully verify results versus KPAR=1.                                |
|      Report problems to Paul Kent and Vienna.                               |
|                                                                             |
 ----------------------------------------------------------------------------- 

 POTCAR:    PAW_PBE C 08Apr2002                   
   VRHFIN =C: s2p2                                                              
   LEXCH  = PE                                                                  
   EATOM  =   147.1560 eV,   10.8157 Ry                                         
                                                                                
   TITEL  = PAW_PBE C 08Apr2002                                                 
   LULTRA =        F    use ultrasoft PP ?                                      
   IUNSCR =        1    unscreen: 0-lin 1-nonlin 2-no                           
   RPACOR =    1.200    partial core radius                                     
   POMASS =   12.011; ZVAL   =    4.000    mass and valenz                      
   RCORE  =    1.500    outmost cutoff radius                                   
   RWIGS  =    1.630; RWIGS  =    0.863    wigner-seitz radius (au A)           
   ENMAX  =  400.000; ENMIN  =  300.000 eV                                      
   ICORE  =        2    local potential                                         
   LCOR   =        T    correct aug charges                                     
   LPAW   =        T    paw PP                                                  
   EAUG   =  644.873                                                            
   DEXC   =    0.000                                                            
   RMAX   =    1.529    core radius for proj-oper                               
   RAUG   =    1.300    factor for augmentation sphere                          
   RDEP   =    1.501    radius for radial grids                                 
   RDEPT  =    1.300    core radius for aug-charge                              
                                                                                
   Atomic configuration                                                         
    4 entries                                                                   
     n  l   j            E        occ.                                          
     1  0  0.50      -273.3789   2.0000                                         
     2  0  0.50       -13.7508   2.0000                                         
     2  1  0.50        -5.2854   2.0000                                         
     3  2  1.50        -5.4423   0.0000                                         
   Description                                                                  
     l       E           TYP  RCUT    TYP  RCUT                                 
     0    -13.7508458     23  1.200                                             
     0     -8.2022199     23  1.200                                             
     1     -5.2854383     23  1.500                                             
     1     34.0145650     23  1.500                                             
     2     -5.4423304      7  1.500                                             
  local pseudopotential read in
  partial core-charges read in
  partial kinetic energy density read in
  atomic valenz-charges read in
  non local Contribution for L=           0  read in
    real space projection operators read in
  non local Contribution for L=           0  read in
    real space projection operators read in
  non local Contribution for L=           1  read in
    real space projection operators read in
  non local Contribution for L=           1  read in
    real space projection operators read in
    PAW grid and wavefunctions read in
 
   number of l-projection  operators is LMAX  =           4
   number of lm-projection operators is LMMAX =           8
 
 POTCAR:    PAW_PBE N 08Apr2002                   
   VRHFIN =N: s2p3                                                              
   LEXCH  = PE                                                                  
   EATOM  =   264.5486 eV,   19.4438 Ry                                         
                                                                                
   TITEL  = PAW_PBE N 08Apr2002                                                 
   LULTRA =        F    use ultrasoft PP ?                                      
   IUNSCR =        1    unscreen: 0-lin 1-nonlin 2-no                           
   RPACOR =    1.200    partial core radius                                     
   POMASS =   14.001; ZVAL   =    5.000    mass and valenz                      
   RCORE  =    1.500    outmost cutoff radius                                   
   RWIGS  =    1.400; RWIGS  =    0.741    wigner-seitz radius (au A)           
   ENMAX  =  400.000; ENMIN  =  300.000 eV                                      
   ICORE  =        2    local potential                                         
   LCOR   =        T    correct aug charges                                     
   LPAW   =        T    paw PP                                                  
   EAUG   =  627.112                                                            
   DEXC   =    0.000                                                            
   RMAX   =    1.529    core radius for proj-oper                               
   RAUG   =    1.300    factor for augmentation sphere                          
   RDEP   =    1.514    radius for radial grids                                 
   RDEPT  =    1.338    core radius for aug-charge                              
                                                                                
   Atomic configuration                                                         
    4 entries                                                                   
     n  l   j            E        occ.                                          
     1  0  0.50      -384.7179   2.0000                                         
     2  0  0.50       -18.5828   2.0000                                         
     2  1  0.50        -7.0898   3.0000                                         
     3  2  1.50        -6.8029   0.0000                                         
   Description                                                                  
     l       E           TYP  RCUT    TYP  RCUT                                 
     0    -18.5828119     23  1.200                                             
     0    -13.5018863     23  1.200                                             
     1     -7.0897853     23  1.500                                             
     1      9.5240782     23  1.500                                             
     2     -6.8029130      7  1.500                                             
  local pseudopotential read in
  partial core-charges read in
  partial kinetic energy density read in
  atomic valenz-charges read in
  non local Contribution for L=           0  read in
    real space projection operators read in
  non local Contribution for L=           0  read in
    real space projection operators read in
  non local Contribution for L=           1  read in
    real space projection operators read in
  non local Contribution for L=           1  read in
    real space projection operators read in
    PAW grid and wavefunctions read in
 
   number of l-projection  operators is LMAX  =           4
   number of lm-projection operators is LMMAX =           8
 
 POTCAR:    PAW_PBE Fe 06Sep2000                  
   VRHFIN =Fe:  d7 s1                                                           
   LEXCH  = PE                                                                  
   EATOM  =   594.3153 eV,   43.6809 Ry                                         
                                                                                
   TITEL  = PAW_PBE Fe 06Sep2000                                                
   LULTRA =        F    use ultrasoft PP ?                                      
   IUNSCR =        1    unscreen: 0-lin 1-nonlin 2-no                           
   RPACOR =    2.000    partial core radius                                     
   POMASS =   55.847; ZVAL   =    8.000    mass and valenz                      
   RCORE  =    2.300    outmost cutoff radius                                   
   RWIGS  =    2.460; RWIGS  =    1.302    wigner-seitz radius (au A)           
   ENMAX  =  267.882; ENMIN  =  200.911 eV                                      
   RCLOC  =    1.701    cutoff for local pot                                    
   LCOR   =        T    correct aug charges                                     
   LPAW   =        T    paw PP                                                  
   EAUG   =  511.368                                                            
   DEXC   =    0.000                                                            
   RMAX   =    2.356    core radius for proj-oper                               
   RAUG   =    1.300    factor for augmentation sphere                          
   RDEP   =    2.442    radius for radial grids                                 
   RDEPT  =    1.890    core radius for aug-charge                              
                                                                                
   Atomic configuration                                                         
    9 entries                                                                   
     n  l   j            E        occ.                                          
     1  0  0.50     -6993.8440   2.0000                                         
     2  0  0.50      -814.6047   2.0000                                         
     2  1  1.50      -693.3689   6.0000                                         
     3  0  0.50       -89.4732   2.0000                                         
     3  1  1.50       -55.6373   6.0000                                         
     3  2  2.50        -3.8151   7.0000                                         
     4  0  0.50        -4.2551   1.0000                                         
     4  1  1.50        -3.4015   0.0000                                         
     4  3  2.50        -1.3606   0.0000                                         
   Description                                                                  
     l       E           TYP  RCUT    TYP  RCUT                                 
     2     -3.8151135     23  2.300                                             
     2     -5.1756961     23  2.300                                             
     0     -4.2550963     23  2.300                                             
     0      7.2035603     23  2.300                                             
     1     -2.7211652     23  2.300                                             
     1     18.4316424     23  2.300                                             
  local pseudopotential read in
  partial core-charges read in
  partial kinetic energy density read in
  atomic valenz-charges read in
  non local Contribution for L=           2  read in
    real space projection operators read in
  non local Contribution for L=           2  read in
    real space projection operators read in
  non local Contribution for L=           0  read in
    real space projection operators read in
  non local Contribution for L=           0  read in
    real space projection operators read in
  non local Contribution for L=           1  read in
    real space projection operators read in
  non local Contribution for L=           1  read in
    real space projection operators read in
    PAW grid and wavefunctions read in
 
   number of l-projection  operators is LMAX  =           6
   number of lm-projection operators is LMMAX =          18
 
 POTCAR:    PAW_PBE Mn 06Sep2000                  
   VRHFIN =Mn: d6 s1                                                            
   LEXCH  = PE                                                                  
   EATOM  =   416.7541 eV,   30.6306 Ry                                         
                                                                                
   TITEL  = PAW_PBE Mn 06Sep2000                                                
   LULTRA =        F    use ultrasoft PP ?                                      
   IUNSCR =        1    unscreen: 0-lin 1-nonlin 2-no                           
   RPACOR =    2.000    partial core radius                                     
   POMASS =   54.938; ZVAL   =    7.000    mass and valenz                      
   RCORE  =    2.300    outmost cutoff radius                                   
   RWIGS  =    2.500; RWIGS  =    1.323    wigner-seitz radius (au A)           
   ENMAX  =  269.864; ENMIN  =  202.398 eV                                      
   RCLOC  =    1.725    cutoff for local pot                                    
   LCOR   =        T    correct aug charges                                     
   LPAW   =        T    paw PP                                                  
   EAUG   =  500.711                                                            
   DEXC   =    0.000                                                            
   RMAX   =    2.343    core radius for proj-oper                               
   RAUG   =    1.300    factor for augmentation sphere                          
   RDEP   =    2.338    radius for radial grids                                 
   RDEPT  =    1.911    core radius for aug-charge                              
                                                                                
   Atomic configuration                                                         
    9 entries                                                                   
     n  l   j            E        occ.                                          
     1  0  0.50     -6424.8288   2.0000                                         
     2  0  0.50      -739.1154   2.0000                                         
     2  1  1.50      -625.3949   6.0000                                         
     3  0  0.50       -81.6100   2.0000                                         
     3  1  1.50       -50.4667   6.0000                                         
     3  2  2.50        -3.3745   6.0000                                         
     4  0  0.50        -4.1331   1.0000                                         
     4  1  0.50        -4.0817   0.0000                                         
     4  3  2.50        -1.3606   0.0000                                         
   Description                                                                  
     l       E           TYP  RCUT    TYP  RCUT                                 
     2     -3.3744664     23  2.300                                             
     2     -4.7350490     23  2.300                                             
     0     -4.1331408     23  2.300                                             
     0      7.6656614     23  2.300                                             
     1     -2.7211652     23  2.300                                             
     1     20.4087390     23  2.300                                             
  local pseudopotential read in
  partial core-charges read in
  partial kinetic energy density read in
  atomic valenz-charges read in
  non local Contribution for L=           2  read in
    real space projection operators read in
  non local Contribution for L=           2  read in
    real space projection operators read in
  non local Contribution for L=           0  read in
    real space projection operators read in
  non local Contribution for L=           0  read in
    real space projection operators read in
  non local Contribution for L=           1  read in
    real space projection operators read in
  non local Contribution for L=           1  read in
    real space projection operators read in
    PAW grid and wavefunctions read in
 
   number of l-projection  operators is LMAX  =           6
   number of lm-projection operators is LMMAX =          18
 

 ----------------------------------------------------------------------------- 
|                                                                             |
|  ADVICE TO THIS USER RUNNING 'VASP/VAMP'   (HEAR YOUR MASTER'S VOICE ...):  |
|                                                                             |
|      You have a (more or less) 'large supercell' and for larger cells       |
|      it might be more efficient to use real space projection opertators     |
|      So try LREAL= Auto  in the INCAR   file.                               |
|      Mind:          For very  accurate calculation you might also keep the  |
|      reciprocal projection scheme          (i.e. LREAL=.FALSE.)             |
|                                                                             |
 ----------------------------------------------------------------------------- 

  PAW_PBE C 08Apr2002                   :
 energy of atom  1       EATOM= -147.1560
 kinetic energy error for atom=    0.0076 (will be added to EATOM!!)
  PAW_PBE N 08Apr2002                   :
 energy of atom  2       EATOM= -264.5486
 kinetic energy error for atom=    0.0138 (will be added to EATOM!!)
  PAW_PBE Fe 06Sep2000                  :
 energy of atom  3       EATOM= -594.3153
 kinetic energy error for atom=    0.0026 (will be added to EATOM!!)
  PAW_PBE Mn 06Sep2000                  :
 energy of atom  4       EATOM= -416.7541
 kinetic energy error for atom=    0.0024 (will be added to EATOM!!)
 
 
 POSCAR:  C  N Fe Mn                             
  positions in cartesian coordinates
  No initial velocities read in
 exchange correlation table for  LEXCH =        8
   RHO(1)=    0.500       N(1)  =     2000
   RHO(2)=  100.500       N(2)  =     4000

 VTST: version 3.2, (02/03/18)

 CHAIN: initializing optimizer
 
 OPT: Using VASP Conjugate-Gradient optimizer
 CHAIN: Read ICHAIN            0
 
 POSCAR:  C  N Fe Mn                             
  positions in cartesian coordinates
  No initial velocities read in
 


--------------------------------------------------------------------------------------------------------


 ion  position               nearest neighbor table
   1  0.223  0.003  0.500-  19 1.43   4 1.43   3 1.43
   2  0.058  0.102  0.499-   3 1.42   7 1.44  38 1.44
   3  0.112  0.002  0.499-   2 1.42  17 1.43   1 1.43
   4  0.280  0.104  0.500-  21 1.43   1 1.43   5 1.44
   5  0.227  0.206  0.500-   7 1.44   4 1.44   8 1.45
   6  0.059  0.302  0.498-   7 1.43  11 1.43  42 1.44
   7  0.115  0.203  0.499-   6 1.43   2 1.44   5 1.44
   8  0.284  0.309  0.501-  25 1.45   5 1.45   9 1.46
   9  0.226  0.409  0.501-  55 1.39  11 1.44   8 1.46
  10  0.055  0.501  0.498-  14 1.42  46 1.42  11 1.43
  11  0.114  0.404  0.499-   6 1.43  10 1.43   9 1.44
  12  0.217  0.604  0.501-  55 1.39  14 1.40  15 1.42
  13  0.053  0.703  0.498-  18 1.42  50 1.42  14 1.43
  14  0.108  0.603  0.499-  12 1.40  10 1.42  13 1.43
  15  0.273  0.705  0.501-  58 1.38  16 1.41  12 1.42
  16  0.219  0.803  0.500-  15 1.41  19 1.42  18 1.43
  17  0.054  0.902  0.499-  18 1.42   3 1.43  54 1.43
  18  0.108  0.803  0.499-  13 1.42  17 1.42  16 1.43
  19  0.277  0.903  0.500-  16 1.42  32 1.43   1 1.43
  20  0.555  0.995  0.498-  22 1.43  23 1.43  34 1.44
  21  0.390  0.101  0.499-   4 1.43  26 1.43  22 1.45
  22  0.444  0.998  0.499-  20 1.43  32 1.43  21 1.45
  23  0.612  0.096  0.497-  24 1.43  20 1.43  36 1.43
  24  0.558  0.196  0.497-  27 1.42  26 1.43  23 1.43
  25  0.396  0.305  0.500-  56 1.39   8 1.45  26 1.45
  26  0.448  0.201  0.498-  24 1.43  21 1.43  25 1.45
  27  0.615  0.296  0.496-  28 1.41  24 1.42  40 1.43
  28  0.562  0.394  0.497-  56 1.38  27 1.41  29 1.42
  29  0.617  0.495  0.497-  57 1.39  44 1.40  28 1.42
  30  0.609  0.690  0.499-  57 1.39  48 1.44  31 1.46
  31  0.551  0.791  0.500-  33 1.45  34 1.45  30 1.46
  32  0.387  0.898  0.500-  19 1.43  22 1.43  33 1.45
  33  0.439  0.794  0.501-  58 1.39  31 1.45  32 1.45
  34  0.608  0.893  0.499-  52 1.44  20 1.44  31 1.45
  35  0.888  0.999  0.498-  54 1.42  38 1.43  37 1.44
  36  0.723  0.097  0.497-  37 1.42  41 1.43  23 1.43
  37  0.777  0.997  0.498-  36 1.42  52 1.44  35 1.44
  38  0.946  0.100  0.498-  39 1.42  35 1.43   2 1.44
  39  0.891  0.199  0.497-  38 1.42  42 1.43  41 1.43
  40  0.726  0.296  0.495-  45 1.42  41 1.42  27 1.43
  41  0.780  0.197  0.496-  40 1.42  36 1.43  39 1.43
  42  0.948  0.300  0.497-  43 1.43  39 1.43   6 1.44
  43  0.891  0.398  0.496-  46 1.42  45 1.42  42 1.43
  44  0.726  0.496  0.495-  29 1.40  49 1.42  45 1.43
  45  0.781  0.396  0.495-  40 1.42  43 1.42  44 1.43
  46  0.945  0.500  0.497-  43 1.42  10 1.42  47 1.43
  47  0.889  0.599  0.497-  50 1.42  49 1.42  46 1.43
  48  0.720  0.695  0.497-  53 1.43  49 1.43  30 1.44
  49  0.779  0.598  0.496-  44 1.42  47 1.42  48 1.43
  50  0.943  0.701  0.498-  47 1.42  13 1.42  51 1.43
  51  0.887  0.799  0.498-  50 1.43  54 1.43  53 1.44
  52  0.720  0.896  0.498-  53 1.43  37 1.44  34 1.44
  53  0.775  0.797  0.498-  52 1.43  48 1.43  51 1.44
  54  0.943  0.900  0.498-  35 1.42  51 1.43  17 1.43
  55  0.275  0.510  0.503-   9 1.39  12 1.39  59 1.90
  56  0.456  0.400  0.501-  28 1.38  25 1.39  59 1.92
  57  0.560  0.589  0.501-  30 1.39  29 1.39  59 1.90
  58  0.380  0.699  0.503-  15 1.38  33 1.39  59 1.92
  59  0.419  0.550  0.511-  57 1.90  55 1.90  56 1.92  58 1.92  60 2.17
  60  0.440  0.552  0.620-  59 2.17
 
  LATTYP: Found a triclinic cell.
 ALAT       =    17.9945823471
 B/A-ratio  =     0.6844949087
 C/A-ratio  =     1.8922902945
 COS(alpha) =     0.0008085882
 COS(beta)  =     0.5819104325
 COS(gamma) =     0.6963101369
  
  Lattice vectors:
  
 A1 = (  13.1199344226, -12.3155314377,   0.0000000000)
 A2 = (   0.2027344226, -12.3155314377,   0.0000000000)
 A3 = (  27.5769222720,   0.4264257133, -19.9699854132)


Analysis of symmetry for initial positions (statically):
=====================================================================
 Subroutine PRICEL returns:
 Original cell was already a primitive cell.
 

 Routine SETGRP: Setting up the symmetry group for a 
 triclinic supercell.


 Subroutine GETGRP returns: Found  1 space group operations
 (whereof  1 operations were pure point group operations)
 out of a pool of  2 trial point group operations.


The static configuration has the point symmetry C_1 .


Analysis of symmetry for dynamics (positions and initial velocities):
=====================================================================
 Subroutine PRICEL returns:
 Original cell was already a primitive cell.
 

 Routine SETGRP: Setting up the symmetry group for a 
 triclinic supercell.


 Subroutine GETGRP returns: Found  1 space group operations
 (whereof  1 operations were pure point group operations)
 out of a pool of  2 trial point group operations.


The dynamic configuration has the point symmetry C_1 .


Analysis of structural, dynamic, and magnetic symmetry:
=====================================================================
 Subroutine PRICEL returns:
 Original cell was already a primitive cell.
 

 Routine SETGRP: Setting up the symmetry group for a 
 triclinic supercell.


 Subroutine GETGRP returns: Found  1 space group operations
 (whereof  1 operations were pure point group operations)
 out of a pool of  2 trial point group operations.


The magnetic configuration has the point symmetry C_1 .


 Subroutine INISYM returns: Found  1 space group operations
 (whereof  1 operations are pure point group operations),
 and found     1 'primitive' translations

 
 
 KPOINTS: KPOINTS created by Atomic Simulation Env

Automatic generation of k-mesh.
Space group operators:
 irot       det(A)        alpha          n_x          n_y          n_z        tau_x        tau_y        tau_z
    1     1.000000     0.000000     1.000000     0.000000     0.000000     0.000000     0.000000     0.000000
 
 Subroutine IBZKPT returns following result:
 ===========================================
 
 Found      2 irreducible k-points:
 
 Following reciprocal coordinates:
            Coordinates               Weight
  0.250000  0.250000 -0.000000      2.000000
 -0.250000  0.250000  0.000000      2.000000
 
 Following cartesian coordinates:
            Coordinates               Weight
  0.019354  0.020618  0.002129      2.000000
 -0.019354  0.019981 -0.001262      2.000000
 
 
 Subroutine IBZKPT_HF returns following result:
 ==============================================
 
 Found      4 k-points in 1st BZ
 the following      4 k-points will be used (e.g. in the exchange kernel)
 Following reciprocal coordinates:   # in IRBZ
  0.250000  0.250000 -0.000000    0.25000000   1 t-inv F
 -0.250000  0.250000  0.000000    0.25000000   2 t-inv F
 -0.250000 -0.250000  0.000000    0.25000000   1 t-inv T
  0.250000 -0.250000 -0.000000    0.25000000   2 t-inv T


--------------------------------------------------------------------------------------------------------




 Dimension of arrays:
   k-points           NKPTS =      2   k-points in BZ     NKDIM =      4   number of bands    NBANDS=    160
   number of dos      NEDOS =    301   number of ions     NIONS =     60
   non local maximal  LDIM  =      6   non local SUM 2l+1 LMDIM =     18
   total plane-waves  NPLWV = ******
   max r-space proj   IRMAX =      1   max aug-charges    IRDMAX=  15196
   dimension x,y,z NGX =    96 NGY =   90 NGZ =  150
   dimension x,y,z NGXF=   192 NGYF=  180 NGZF=  300
   support grid    NGXF=   192 NGYF=  180 NGZF=  300
   ions per type =              54   4   1   1
   NGX,Y,Z   is equivalent  to a cutoff of  12.36, 12.15, 12.44 a.u.
   NGXF,Y,Z  is equivalent  to a cutoff of  24.71, 24.29, 24.87 a.u.

 SYSTEM =  unknown system                          
 POSCAR =   C  N Fe Mn                             

 Startparameter for this run:
   NWRITE =      2    write-flag & timer
   PREC   = accura    normal or accurate (medium, high low for compatibility)
   ISTART =      1    job   : 0-new  1-cont  2-samecut
   ICHARG =      0    charge: 1-file 2-atom 10-const
   ISPIN  =      2    spin polarized calculation?
   LNONCOLLINEAR =      F non collinear calculations
   LSORBIT =      F    spin-orbit coupling
   INIWAV =      1    electr: 0-lowe 1-rand  2-diag
   LASPH  =      T    aspherical Exc in radial PAW
   METAGGA=      F    non-selfconsistent MetaGGA calc.

 Electronic Relaxation 1
   ENCUT  =  500.0 eV  36.75 Ry    6.06 a.u.  23.55 22.46 36.56*2*pi/ulx,y,z
   ENINI  =  500.0     initial cutoff
   ENAUG  =  644.9 eV  augmentation charge cutoff
   NELM   =    250;   NELMIN=  2; NELMDL=  0     # of ELM steps 
   EDIFF  = 0.1E-03   stopping-criterion for ELM
   LREAL  =      F    real-space projection
   NLSPLINE    = F    spline interpolate recip. space projectors
   LCOMPAT=      F    compatible to vasp.4.4
   GGA_COMPAT  = T    GGA compatible to vasp.4.4-vasp.4.6
   LMAXPAW     = -100 max onsite density
   LMAXMIX     =    2 max onsite mixed and CHGCAR
   VOSKOWN=      0    Vosko Wilk Nusair interpolation
   ROPT   =    0.00000   0.00000   0.00000   0.00000
 Ionic relaxation
   EDIFFG = -.3E-01   stopping-criterion for IOM
   NSW    =      0    number of steps for IOM
   NBLOCK =      1;   KBLOCK =      1    inner block; outer block 
   IBRION =     -1    ionic relax: 0-MD 1-quasi-New 2-CG
   NFREE  =      1    steps in history (QN), initial steepest desc. (CG)
   ISIF   =      2    stress and relaxation
   IWAVPR =     10    prediction:  0-non 1-charg 2-wave 3-comb
   ISYM   =      3    0-nonsym 1-usesym 2-fastsym
   LCORR  =      T    Harris-Foulkes like correction to forces

   POTIM  = 0.5000    time-step for ionic-motion
   TEIN   =    0.0    initial temperature
   TEBEG  =    0.0;   TEEND  =   0.0 temperature during run
   SMASS  =  -3.00    Nose mass-parameter (am)
   estimated Nose-frequenzy (Omega)   =  0.10E-29 period in steps =****** mass=  -0.381E-26a.u.
   SCALEE = 1.0000    scale energy and forces
   NPACO  =    256;   APACO  = 16.0  distance and # of slots for P.C.
   PSTRESS=    0.0 pullay stress

  Mass of Ions in am
   POMASS =  12.01 14.00 55.85 54.94
  Ionic Valenz
   ZVAL   =   4.00  5.00  8.00  7.00
  Atomic Wigner-Seitz radii
   RWIGS  =  -1.00 -1.00 -1.00 -1.00
  virtual crystal weights 
   VCA    =   1.00  1.00  1.00  1.00
   NELECT =     251.0000    total number of electrons
   NUPDOWN=      -1.0000    fix difference up-down

 DOS related values:
   EMIN   =  10.00;   EMAX   =-10.00  energy-range for DOS
   EFERMI =   0.00
   ISMEAR =     0;   SIGMA  =   0.10  broadening in eV -4-tet -1-fermi 0-gaus

 Electronic relaxation 2 (details)
   IALGO  =     53    algorithm
   LDIAG  =      T    sub-space diagonalisation (order eigenvalues)
   LSUBROT=      F    optimize rotation matrix (better conditioning)
   TURBO    =      0    0=normal 1=particle mesh
   IRESTART =      0    0=no restart 2=restart with 2 vectors
   NREBOOT  =      0    no. of reboots
   NMIN     =      0    reboot dimension
   EREF     =   0.00    reference energy to select bands
   IMIX   =      4    mixing-type and parameters
     AMIX     =   0.40;   BMIX     =  1.00
     AMIX_MAG =   1.60;   BMIX_MAG =  1.00
     AMIN     =   0.10
     WC   =   100.;   INIMIX=   1;  MIXPRE=   1;  MAXMIX= -45

 Intra band minimization:
   WEIMIN = 0.0000     energy-eigenvalue tresh-hold
   EBREAK =  0.16E-06  absolut break condition
   DEPER  =   0.30     relativ break condition  

   TIME   =   0.20     timestep for ELM

  volume/ion in A,a.u.               =      52.95       357.31
  Fermi-wavevector in a.u.,A,eV,Ry     =   0.702478  1.327492  6.714147  0.493476
  Thomas-Fermi vector in A             =   1.787189
 
 Write flags
   LWAVE        =      T    write WAVECAR
   LDOWNSAMPLE  =      F    k-point downsampling of WAVECAR
   LCHARG       =      T    write CHGCAR
   LVTOT        =      F    write LOCPOT, total local potential
   LVHAR        =      F    write LOCPOT, Hartree potential only
   LELF         =      F    write electronic localiz. function (ELF)
   LORBIT       =     11    0 simple, 1 ext, 2 COOP (PROOUT), +10 PAW based schemes


 Dipole corrections
   LMONO  =      F    monopole corrections only (constant potential shift)
   LDIPOL =      T    correct potential (dipole corrections)
   IDIPOL =      3    1-x, 2-y, 3-z, 4-all directions 
   EPSILON=  1.0000000 bulk dielectric constant

 Exchange correlation treatment:
   GGA     =    PE    GGA type
   LEXCH   =     8    internal setting for exchange type
   VOSKOWN=      0    Vosko Wilk Nusair interpolation
   EXXOEP  =     0    0=HF, 1=EXX-LHF (local Hartree Fock) 2=EXX OEP
   LHFCALC =     T    Hartree Fock is set to
   LSYMGRAD=     F    symmetrize gradient (conserves proper symmetry)
   PRECFOCK=normal    Normal, Fast or Accurate (Low or Medium for compatibility)
   LRHFCALC=     F    long range Hartree Fock
   LRSCOR  =     F    long range correlation only (use DFT for short range part)
   LTHOMAS =     F    Thomas Fermi screening in HF
   LMODELHF=     F    short range full HF, long range fraction AEXX
   ENCUT4O =  -1.0   cutoff for four orbital integrals eV
   LMAXFOCK=     4    L truncation for augmentation on plane wave grid
   LMAXFOCKAE=  -1    L truncation for all-electron charge restoration on plane wave grid
   NMAXFOCKAE=   1    number of basis functions for all-electron charge restoration
   LFOCKAEDFT=     F  apply the AE augmentation even for DFT
   NKREDX  =     1    reduce k-point grid by
   NKREDY  =     1    reduce k-point grid by
   NKREDZ  =     1    reduce k-point grid by
   SHIFTRED=     F    shift reduced grid of Gamma
   HFKIDENT=     F    idential grid for each k-point
   ODDONLY =     F    use only odd q-grid points
   EVENONLY=     F    use only even q-grid points
   HFALPHA =   -1.0000 decay constant for conv. correction
   MCALPHA =    0.0000 extent of test-charge in conv. correction in multipole expansion
   AEXX    =    0.2500 exact exchange contribution
   HFSCREEN=    0.2000 screening length (either q_TF or 0.3 A-1)
   HFSCREENC=   0.2000 screening length for correlation (either q_TF or 0.3 A-1)
   HFRCUT  =    0.0000 spherical cutoff for potential kernel
   ALDAX   =    0.7500 LDA exchange part
   AGGAX   =    0.7500 GGA exchange part
   ALDAC   =    1.0000 LDA correlation
   AGGAC   =    1.0000 GGA correlation
   ENCUTFOCK=  -1.0 apply spherical cutoff to Coloumb kernel
   NBANDSGWLOW=     1    first orbital included in HF term
   NBLOCK_FOCK=    64    blocking factor in FOCK_ACC
 Linear response parameters
   LEPSILON=     F    determine dielectric tensor
   LRPA    =     F    only Hartree local field effects (RPA)
   LNABLA  =     F    use nabla operator in PAW spheres
   LVEL    =     F    velocity operator in full k-point grid
   LINTERFAST=   F  fast interpolation
   KINTER  =     0    interpolate to denser k-point grid
   CSHIFT  =0.1000    complex shift for real part using Kramers Kronig
   OMEGAMAX=  -1.0    maximum frequency
   DEG_THRESHOLD= 0.2000000E-02 threshold for treating states as degnerate
   RTIME   =   -0.100 relaxation time in fs
  (WPLASMAI=    0.000 imaginary part of plasma frequency in eV, 0.658/RTIME)
   DFIELD  = 0.0000000 0.0000000 0.0000000 field for delta impulse in time
 
 Orbital magnetization related:
   ORBITALMAG=     F  switch on orbital magnetization
   LCHIMAG   =     F  perturbation theory with respect to B field
   DQ        =  0.001000  dq finite difference perturbation B field
   LLRAUG    =     F  two centre corrections for induced B field



--------------------------------------------------------------------------------------------------------


 Static calculation
 charge density and potential will be updated during run
 spin polarized calculation
 Conjugate gradient for all bands (Freysoldt, et al. PRB 79, 241103 (2009))
 perform sub-space diagonalisation
    before iterative eigenvector-optimisation
 modified Broyden-mixing scheme, WC =      100.0
 initial mixing is a Kerker type mixing with AMIX =  0.4000 and BMIX =      1.0000
 Hartree-type preconditioning will be used
 using additional bands           34
 reciprocal scheme for non local part
 use partial core corrections
 no Harris-corrections to forces 
 use gradient corrections 
 use of overlap-Matrix (Vanderbilt PP)
 Gauss-broadening in eV      SIGMA  =   0.10


--------------------------------------------------------------------------------------------------------


  energy-cutoff  :      500.00
  volume of cell :     3176.87
      direct lattice vectors                 reciprocal lattice vectors
    12.917200000  0.000000000  0.000000000     0.077416158  0.001274401  0.006782319
    -0.202734423 12.315531438  0.000000000     0.000000000  0.081198282  0.001733854
    -1.742522272 -0.426425713 19.969985413     0.000000000  0.000000000  0.050075149

  length of vectors
    12.917200000 12.317200000 20.050400000     0.077723134  0.081216792  0.050075149


 
 old parameters found on file WAVECAR:
  energy-cutoff  :      500.00
  volume of cell :     3176.87
      direct lattice vectors                 reciprocal lattice vectors
    12.917200000  0.000000000  0.000000000     0.077416158  0.001274401  0.006782319
    -0.202734423 12.315531438  0.000000000     0.000000000  0.081198282  0.001733854
    -1.742522272 -0.426425713 19.969985413     0.000000000  0.000000000  0.050075149

  length of vectors

 
 k-points in units of 2pi/SCALE and weight: KPOINTS created by Atomic Simulation Env
   0.01935404  0.02061817  0.00212904       0.500
  -0.01935404  0.01998097 -0.00126212       0.500
 
 k-points in reciprocal lattice and weights: KPOINTS created by Atomic Simulation Env
   0.25000000  0.25000000 -0.00000000       0.500
  -0.25000000  0.25000000  0.00000000       0.500
 
 position of ions in fractional coordinates (direct lattice) 
   0.22259846  0.00323070  0.49970363
   0.05758857  0.10202827  0.49892662
   0.11155980  0.00222987  0.49934660
   0.27974540  0.10384217  0.49973339
   0.22675397  0.20603968  0.50010435
   0.05908747  0.30204708  0.49825718
   0.11507324  0.20300633  0.49927071
   0.28415630  0.30864479  0.50093288
   0.22613704  0.40930661  0.50101367
   0.05529853  0.50148751  0.49819901
   0.11415740  0.40376273  0.49889608
   0.21730077  0.60395398  0.50052176
   0.05294648  0.70252854  0.49827618
   0.10837739  0.60321207  0.49881854
   0.27296117  0.70468442  0.50072238
   0.21886702  0.80337275  0.49962329
   0.05404925  0.90207846  0.49884214
   0.10843132  0.80270917  0.49887760
   0.27659004  0.90266283  0.49983401
   0.55495633  0.99528744  0.49840960
   0.39030911  0.10069900  0.49895967
   0.44434989  0.99840421  0.49888866
   0.61194053  0.09585480  0.49725218
   0.55793124  0.19641526  0.49700313
   0.39632760  0.30527021  0.50014276
   0.44750656  0.20117524  0.49836539
   0.61544717  0.29564458  0.49565126
   0.56172541  0.39443340  0.49704898
   0.61733917  0.49513180  0.49674016
   0.60892183  0.68992291  0.49917993
   0.55099738  0.79057800  0.50015291
   0.38719201  0.89793528  0.49973038
   0.43883043  0.79394453  0.50103188
   0.60807270  0.89312703  0.49888530
   0.88834928  0.99930911  0.49800550
   0.72288548  0.09684756  0.49685388
   0.77691427  0.99706911  0.49766752
   0.94607515  0.09976198  0.49796752
   0.89116542  0.19899088  0.49679886
   0.72569805  0.29627810  0.49494121
   0.78021449  0.19694644  0.49594906
   0.94770107  0.29978545  0.49682637
   0.89131028  0.39844852  0.49584338
   0.72583658  0.49580236  0.49528438
   0.78111506  0.39644382  0.49480826
   0.94526020  0.49978888  0.49674353
   0.88886602  0.59918579  0.49668791
   0.72033349  0.69532723  0.49728823
   0.77896381  0.59753778  0.49629191
   0.94279725  0.70052726  0.49752629
   0.88655582  0.79922893  0.49775650
   0.71953443  0.89611780  0.49812541
   0.77534040  0.79702868  0.49766156
   0.94314850  0.90004004  0.49831661
   0.27547144  0.51029013  0.50312278
   0.45577797  0.40029280  0.50140202
   0.56013152  0.58899044  0.50063269
   0.37996316  0.69905432  0.50337103
   0.41926928  0.54987142  0.51105642
   0.43974461  0.55204349  0.61972897
 
 position of ions in cartesian coordinates  (Angst):
   2.00394918 -0.17329868  9.97907415
  -0.14619235  1.04377724  9.96355737
   0.57046561 -0.18547215  9.97194433
   2.72167833  1.06577233  9.97966847
   2.01581205  2.32423086  9.98707651
  -0.16621497  3.50740064  9.95018869
   0.57527740  2.28722895  9.97042879
   2.73504416  3.58751400 10.00362240
   1.96504932  4.82718326 10.00523560
  -0.25548948  5.96364033  9.94902697
   0.52339978  4.75981051  9.96294750
   1.81230492  7.22457889  9.99541215
  -0.32676380  8.43953451  9.95056806
   0.40843821  7.21616821  9.96139887
   2.51051039  8.46504225  9.99941865
   1.79367304  9.68091009  9.97746985
  -0.35396089 10.89685647  9.96187028
   0.36858692  9.67305578  9.96257835
   2.51879619 10.90363044  9.98167780
   6.09821305 12.04495905  9.95323252
   4.15183733  1.02739243  9.96421725
   4.66802088 12.08313946  9.96279920
   7.01865219  0.96846169  9.93011872
   6.30105030  2.20702339  9.92514522
   4.18604426  3.54629118  9.98784364
   4.87133386  2.26506420  9.95234955
   7.02623344  3.42966170  9.89814837
   6.30983536  4.64570249  9.92606086
   7.00833242  5.88598852  9.91989368
   6.85586184  8.28390416  9.96861595
   6.08553836  9.52311019  9.98804639
   3.94860287 10.84545234  9.97960849
   4.63444137  9.56419600 10.00559924
   6.80421034 10.78659650  9.96273208
  10.40460528 12.09466040  9.94516251
   8.45224302  0.98085794  9.92216478
   8.96622011 12.06721780  9.93841307
  11.33269721  1.01627561  9.94440411
  10.60533655  2.23883063  9.92106607
   8.45147501  3.43776657  9.88396871
   9.17405658  2.21401468  9.90409541
  11.31513638  3.48015759  9.92161538
  10.56843580  4.69566485  9.90198511
   8.41221607  5.89486751  9.89082178
   9.14723218  4.67141731  9.88131371
  11.24320397  5.94334148  9.91996106
  10.49469485  7.16749099  9.91885031
   8.29718913  8.35126784  9.93083878
   9.07609013  7.14736367  9.91094230
  11.16932899  8.41520745  9.93559275
  10.42243583  9.63067287  9.94019007
   8.24470158 10.82375351  9.94755727
   8.98645547  9.60361605  9.93829415
  11.13204090 10.87197644  9.95137540
   2.57816362  6.06994970 10.04735459
   4.93251788  4.71600779 10.01299111
   6.24355867  7.04024759  9.99762754
   3.88920246  8.39457515 10.05231210
   4.41378003  6.55403116 10.20578920
   4.48845930  6.53444061 12.37597857
 


--------------------------------------------------------------------------------------------------------


 k-point  1 :   0.2500 0.2500-0.0000  plane waves:   80671
 k-point  2 :  -0.2500 0.2500 0.0000  plane waves:   80676

 maximum and minimum number of plane-waves per node :      3386     3315

 maximum number of plane-waves:     80676
 maximum index in each direction: 
   IXMAX=   23   IYMAX=   22   IZMAX=   36
   IXMIN=  -23   IYMIN=  -22   IZMIN=  -36


 parallel 3D FFT for wavefunctions:
    minimum data exchange during FFTs selected (reduces bandwidth)
 parallel 3D FFT for charge:
    minimum data exchange during FFTs selected (reduces bandwidth)


 FFT grid for exact exchange (Hartree Fock) 
  NGX = 72; NGY = 70; NGZ =112

 
 Radii for the augmentation spheres in the non-local exchange
 for species   1 augmentation radius   0.874 (default was   0.699)
       energy cutoff for augmentation   2000.0
 for species   2 augmentation radius   0.886 (default was   0.709)
       energy cutoff for augmentation   2000.0
 for species   3 augmentation radius   1.263 (default was   1.010)
       energy cutoff for augmentation   2000.0
 for species   4 augmentation radius   1.276 (default was   1.021)
       energy cutoff for augmentation   2000.0

 real space projection operators:
  total allocation   :       2620.05 KBytes
  max/ min on nodes  :        186.96         52.24

 Maximum index for augmentation-charges in exchange           43
  SETUP_FOCK is finished

 total amount of memory used by VASP MPI-rank0   207889. kBytes
=======================================================================

   base      :      30000. kBytes
   nonl-proj :       7168. kBytes
   fftplans  :      17540. kBytes
   grid      :      46049. kBytes
   one-center:         93. kBytes
   HF        :         23. kBytes
   nonlr-proj:       1710. kBytes
   wavefun   :     105306. kBytes
 
     INWAV:  cpu time    3.5470: real time    6.1582
 Broyden mixing: mesh for mixing (old mesh)
   NGX = 47   NGY = 45   NGZ = 73
  (NGX  =192   NGY  =180   NGZ  =300)
  gives a total of 154395 points

 charge density for first step will be calculated from the start-wavefunctions


--------------------------------------------------------------------------------------------------------


 Maximum index for augmentation-charges          541 (set IRDMAX)


--------------------------------------------------------------------------------------------------------


 initial charge from wavefunction
 First call to EWALD:  gamma=   0.121
 Maximum number of real-space cells 3x 3x 2
 Maximum number of reciprocal cells 2x 2x 4

    FEWALD:  cpu time    0.0023: real time    0.0023


--------------------------------------- Iteration      1(   1)  ---------------------------------------


    POTLOK:  cpu time    2.0944: real time    2.0970
    SETDIJ:  cpu time    2.0693: real time    2.0714
    TRIAL :  cpu time  355.7860: real time  356.1777
    CORREC:  cpu time    0.0009: real time    0.0009
    CHARGE:  cpu time    1.4006: real time    1.4019
    --------------------------------------------
      LOOP:  cpu time  361.3885: real time  361.7881

 eigenvalue-minimisations  :     0
 total energy-change (2. order) :-0.6328518E+03  (-0.4566913E+00)
 number of electron     250.9999997 magnetization       5.0000023
 augmentation part       13.4504356 magnetization       2.8963296

 DIPCOR: dipole corrections for dipol
 direction  3 min pos     1,
 dipolmoment           0.042223      0.010333     -0.483888 electrons x Angstroem
 Tr[quadrupol]     -6987.377956

 energy correction for charged system         0.000000 eV
 dipol+quadrupol energy correction           -0.006797 eV
 added-field ion interaction          0.327287 eV  (added to PSCEN)


 Free energy of the ion-electron system (eV)
  ---------------------------------------------------
  alpha Z        PSCENC =       107.80675626
  Ewald energy   TEWEN  =     40679.09150020
  -Hartree energ DENC   =    -49278.85045360
  -exchange      EXHF   =       567.22093298
  -V(xc)+E(xc)   XCENC  =       626.28397718
  PAW double counting   =     27030.52618943   -27057.79472451
  entropy T*S    EENTRO =        -0.00001382
  eigenvalues    EBANDS =     -3205.39244776
  atomic energy  EATOM  =      9898.25650051
  ---------------------------------------------------
  free energy    TOTEN  =      -632.85183777 eV

  energy without entropy =     -632.85182396  energy(sigma->0) =     -632.85183086
  exchange ACFDT corr.  =        -0.00006718  see jH, gK, PRB 81, 115126


--------------------------------------------------------------------------------------------------------




--------------------------------------- Iteration      1(   2)  ---------------------------------------


    POTLOK:  cpu time    2.1095: real time    2.1120
    SETDIJ:  cpu time    2.0668: real time    2.0682
    TRIAL :  cpu time  358.4683: real time  358.8520
    CORREC:  cpu time    0.0008: real time    0.0008
    CHARGE:  cpu time    1.3924: real time    1.3941
    --------------------------------------------
      LOOP:  cpu time  364.0399: real time  364.4324

 eigenvalue-minimisations  :     0
 total energy-change (2. order) :-0.3729492E+00  (-0.3962444E+00)
 number of electron     250.9999997 magnetization       5.0000001
 augmentation part       13.4188420 magnetization       2.9407509

 DIPCOR: dipole corrections for dipol
 direction  3 min pos     1,
 dipolmoment           0.050667      0.012399     -0.580668 electrons x Angstroem
 Tr[quadrupol]     -6987.479643

 energy correction for charged system         0.000000 eV
 dipol+quadrupol energy correction           -0.009787 eV
 added-field ion interaction          0.392747 eV  (added to PSCEN)


 Free energy of the ion-electron system (eV)
  ---------------------------------------------------
  alpha Z        PSCENC =       107.86922521
  Ewald energy   TEWEN  =     40679.09150020
  -Hartree energ DENC   =    -49271.75017009
  -exchange      EXHF   =       567.12559680
  -V(xc)+E(xc)   XCENC  =       625.99000509
  PAW double counting   =     27168.27831849   -27195.43992434
  entropy T*S    EENTRO =        -0.00000120
  eigenvalues    EBANDS =     -3212.64582500
  atomic energy  EATOM  =      9898.25650051
  ---------------------------------------------------
  free energy    TOTEN  =      -633.22478695 eV

  energy without entropy =     -633.22478575  energy(sigma->0) =     -633.22478635
  exchange ACFDT corr.  =        -0.00002121  see jH, gK, PRB 81, 115126


--------------------------------------------------------------------------------------------------------




--------------------------------------- Iteration      1(   3)  ---------------------------------------


    POTLOK:  cpu time    2.1311: real time    2.1341
    SETDIJ:  cpu time    2.0687: real time    2.0701
    TRIAL :  cpu time  358.1341: real time  358.6901
    CORREC:  cpu time    0.0008: real time    0.0008
    CHARGE:  cpu time    1.3936: real time    1.3945
    --------------------------------------------
      LOOP:  cpu time  363.7294: real time  364.2934

 eigenvalue-minimisations  :     0
 total energy-change (2. order) :-0.3043469E+00  (-0.2206580E+00)
 number of electron     250.9999998 magnetization       5.0000001
 augmentation part       13.4078441 magnetization       2.9671995

 DIPCOR: dipole corrections for dipol
 direction  3 min pos     1,
 dipolmoment           0.053735      0.013150     -0.615826 electrons x Angstroem
 Tr[quadrupol]     -6987.444257

 energy correction for charged system         0.000000 eV
 dipol+quadrupol energy correction           -0.011008 eV
 added-field ion interaction          0.416526 eV  (added to PSCEN)


 Free energy of the ion-electron system (eV)
  ---------------------------------------------------
  alpha Z        PSCENC =       107.89178346
  Ewald energy   TEWEN  =     40679.09150020
  -Hartree energ DENC   =    -49258.05235181
  -exchange      EXHF   =       567.05258066
  -V(xc)+E(xc)   XCENC  =       625.63926484
  PAW double counting   =     27342.63394989   -27369.35607789
  entropy T*S    EENTRO =        -0.00000020
  eigenvalues    EBANDS =     -3226.68628254
  atomic energy  EATOM  =      9898.25650051
  ---------------------------------------------------
  free energy    TOTEN  =      -633.52913389 eV

  energy without entropy =     -633.52913369  energy(sigma->0) =     -633.52913379
  exchange ACFDT corr.  =        -0.00000127  see jH, gK, PRB 81, 115126


--------------------------------------------------------------------------------------------------------




--------------------------------------- Iteration      1(   4)  ---------------------------------------


    POTLOK:  cpu time    2.1426: real time    2.1439
    SETDIJ:  cpu time    2.0663: real time    2.0675
    TRIAL :  cpu time  357.7271: real time  358.2948
    CORREC:  cpu time    0.0007: real time    0.0007
    CHARGE:  cpu time    1.4110: real time    1.4204
    --------------------------------------------
      LOOP:  cpu time  363.3498: real time  363.9320

 eigenvalue-minimisations  :     0
 total energy-change (2. order) :-0.1708198E+00  (-0.1347729E+00)
 number of electron     250.9999998 magnetization       5.0000002
 augmentation part       13.4147127 magnetization       2.9727568

 DIPCOR: dipole corrections for dipol
 direction  3 min pos     1,
 dipolmoment           0.054749      0.013398     -0.627448 electrons x Angstroem
 Tr[quadrupol]     -6987.453399

 energy correction for charged system         0.000000 eV
 dipol+quadrupol energy correction           -0.011428 eV
 added-field ion interaction          0.424387 eV  (added to PSCEN)


 Free energy of the ion-electron system (eV)
  ---------------------------------------------------
  alpha Z        PSCENC =       107.89922488
  Ewald energy   TEWEN  =     40679.09150020
  -Hartree energ DENC   =    -49251.73037421
  -exchange      EXHF   =       567.17285040
  -V(xc)+E(xc)   XCENC  =       625.50267194
  PAW double counting   =     27492.25907194   -27518.86992931
  entropy T*S    EENTRO =        -0.00000008
  eigenvalues    EBANDS =     -3233.28146984
  atomic energy  EATOM  =      9898.25650051
  ---------------------------------------------------
  free energy    TOTEN  =      -633.69995368 eV

  energy without entropy =     -633.69995360  energy(sigma->0) =     -633.69995364
  exchange ACFDT corr.  =        -0.00000005  see jH, gK, PRB 81, 115126


--------------------------------------------------------------------------------------------------------




--------------------------------------- Iteration      1(   5)  ---------------------------------------


    POTLOK:  cpu time    2.1378: real time    2.1406
    SETDIJ:  cpu time    2.0685: real time    2.0699
    TRIAL :  cpu time  356.7958: real time  357.3531
    CORREC:  cpu time    0.0007: real time    0.0007
    CHARGE:  cpu time    1.3922: real time    1.3942
    --------------------------------------------
      LOOP:  cpu time  362.3961: real time  362.9641

 eigenvalue-minimisations  :     0
 total energy-change (2. order) :-0.1097184E+00  (-0.9061783E-01)
 number of electron     250.9999998 magnetization       5.0000003
 augmentation part       13.4180450 magnetization       2.9670605

 DIPCOR: dipole corrections for dipol
 direction  3 min pos     1,
 dipolmoment           0.055723      0.013636     -0.638608 electrons x Angstroem
 Tr[quadrupol]     -6987.521775

 energy correction for charged system         0.000000 eV
 dipol+quadrupol energy correction           -0.011838 eV
 added-field ion interaction          0.431935 eV  (added to PSCEN)


 Free energy of the ion-electron system (eV)
  ---------------------------------------------------
  alpha Z        PSCENC =       107.90636310
  Ewald energy   TEWEN  =     40679.09150020
  -Hartree energ DENC   =    -49253.29835068
  -exchange      EXHF   =       567.44273635
  -V(xc)+E(xc)   XCENC  =       625.57048457
  PAW double counting   =     27598.29580471   -27625.05922842
  entropy T*S    EENTRO =        -0.00000003
  eigenvalues    EBANDS =     -3232.01548236
  atomic energy  EATOM  =      9898.25650051
  ---------------------------------------------------
  free energy    TOTEN  =      -633.80967211 eV

  energy without entropy =     -633.80967207  energy(sigma->0) =     -633.80967209
  exchange ACFDT corr.  =        -0.00000002  see jH, gK, PRB 81, 115126


--------------------------------------------------------------------------------------------------------




--------------------------------------- Iteration      1(   6)  ---------------------------------------


    POTLOK:  cpu time    2.1361: real time    2.1379
    SETDIJ:  cpu time    2.0668: real time    2.0685
    TRIAL :  cpu time  357.9372: real time  358.5519
    CORREC:  cpu time    0.0007: real time    0.0007
    CHARGE:  cpu time    1.3949: real time    1.4016
    --------------------------------------------
      LOOP:  cpu time  363.5375: real time  364.1654

 eigenvalue-minimisations  :     0
 total energy-change (2. order) :-0.7685228E-01  (-0.6432179E-01)
 number of electron     250.9999998 magnetization       5.0000003
 augmentation part       13.4173565 magnetization       2.9592769

 DIPCOR: dipole corrections for dipol
 direction  3 min pos     1,
 dipolmoment           0.055723      0.013636     -0.638605 electrons x Angstroem
 Tr[quadrupol]     -6987.561132

 energy correction for charged system         0.000000 eV
 dipol+quadrupol energy correction           -0.011838 eV
 added-field ion interaction          0.431934 eV  (added to PSCEN)


 Free energy of the ion-electron system (eV)
  ---------------------------------------------------
  alpha Z        PSCENC =       107.90636158
  Ewald energy   TEWEN  =     40679.09150020
  -Hartree energ DENC   =    -49256.24575526
  -exchange      EXHF   =       567.72866353
  -V(xc)+E(xc)   XCENC  =       625.70303234
  PAW double counting   =     27664.83022116   -27691.67378201
  entropy T*S    EENTRO =        -0.00000002
  eigenvalues    EBANDS =     -3229.48326641
  atomic energy  EATOM  =      9898.25650051
  ---------------------------------------------------
  free energy    TOTEN  =      -633.88652439 eV

  energy without entropy =     -633.88652437  energy(sigma->0) =     -633.88652438
  exchange ACFDT corr.  =        -0.00000001  see jH, gK, PRB 81, 115126


--------------------------------------------------------------------------------------------------------




--------------------------------------- Iteration      1(   7)  ---------------------------------------


    POTLOK:  cpu time    2.1330: real time    2.1352
    SETDIJ:  cpu time    2.0671: real time    2.0683
    TRIAL :  cpu time  357.4476: real time  358.0603
    CORREC:  cpu time    0.0007: real time    0.0007
    CHARGE:  cpu time    1.3896: real time    1.3907
    --------------------------------------------
      LOOP:  cpu time  363.0395: real time  363.6598

 eigenvalue-minimisations  :     0
 total energy-change (2. order) :-0.5588292E-01  (-0.4685422E-01)
 number of electron     250.9999998 magnetization       5.0000003
 augmentation part       13.4193869 magnetization       2.9528801

 DIPCOR: dipole corrections for dipol
 direction  3 min pos     1,
 dipolmoment           0.055064      0.013475     -0.631059 electrons x Angstroem
 Tr[quadrupol]     -6987.559483

 energy correction for charged system         0.000000 eV
 dipol+quadrupol energy correction           -0.011560 eV
 added-field ion interaction          0.426829 eV  (added to PSCEN)


 Free energy of the ion-electron system (eV)
  ---------------------------------------------------
  alpha Z        PSCENC =       107.90153551
  Ewald energy   TEWEN  =     40679.09150020
  -Hartree energ DENC   =    -49258.19115675
  -exchange      EXHF   =       567.96401285
  -V(xc)+E(xc)   XCENC  =       625.82543184
  PAW double counting   =     27703.82221262   -27730.67341045
  entropy T*S    EENTRO =        -0.00000001
  eigenvalues    EBANDS =     -3227.93903362
  atomic energy  EATOM  =      9898.25650051
  ---------------------------------------------------
  free energy    TOTEN  =      -633.94240731 eV

  energy without entropy =     -633.94240730  energy(sigma->0) =     -633.94240730
  exchange ACFDT corr.  =        -0.00000000  see jH, gK, PRB 81, 115126


--------------------------------------------------------------------------------------------------------




--------------------------------------- Iteration      1(   8)  ---------------------------------------


    POTLOK:  cpu time    2.1290: real time    2.1313
    SETDIJ:  cpu time    2.0638: real time    2.0649
    TRIAL :  cpu time  356.5575: real time  356.9243
    CORREC:  cpu time    0.0007: real time    0.0007
    CHARGE:  cpu time    1.3884: real time    1.3902
    --------------------------------------------
      LOOP:  cpu time  362.1407: real time  362.5155

 eigenvalue-minimisations  :     0
 total energy-change (2. order) :-0.4187035E-01  (-0.3598280E-01)
 number of electron     250.9999998 magnetization       5.0000003
 augmentation part       13.4236133 magnetization       2.9477251

 DIPCOR: dipole corrections for dipol
 direction  3 min pos     1,
 dipolmoment           0.054495      0.013336     -0.624535 electrons x Angstroem
 Tr[quadrupol]     -6987.541939

 energy correction for charged system         0.000000 eV
 dipol+quadrupol energy correction           -0.011322 eV
 added-field ion interaction          0.422417 eV  (added to PSCEN)


 Free energy of the ion-electron system (eV)
  ---------------------------------------------------
  alpha Z        PSCENC =       107.89736082
  Ewald energy   TEWEN  =     40679.09150020
  -Hartree energ DENC   =    -49259.43687937
  -exchange      EXHF   =       568.14042439
  -V(xc)+E(xc)   XCENC  =       625.92109028
  PAW double counting   =     27725.79287808   -27752.69481161
  entropy T*S    EENTRO =        -0.00000001
  eigenvalues    EBANDS =     -3226.95234094
  atomic energy  EATOM  =      9898.25650051
  ---------------------------------------------------
  free energy    TOTEN  =      -633.98427766 eV

  energy without entropy =     -633.98427765  energy(sigma->0) =     -633.98427765
  exchange ACFDT corr.  =        -0.00000000  see jH, gK, PRB 81, 115126


--------------------------------------------------------------------------------------------------------




--------------------------------------- Iteration      1(   9)  ---------------------------------------


    POTLOK:  cpu time    2.1251: real time    2.1264
    SETDIJ:  cpu time    2.0656: real time    2.0669
    TRIAL :  cpu time  356.1952: real time  356.5528
    CORREC:  cpu time    0.0007: real time    0.0007
    CHARGE:  cpu time    1.3876: real time    1.3888
    --------------------------------------------
      LOOP:  cpu time  361.7753: real time  362.1397

 eigenvalue-minimisations  :     0
 total energy-change (2. order) :-0.3263550E-01  (-0.2804648E-01)
 number of electron     250.9999999 magnetization       5.0000003
 augmentation part       13.4265569 magnetization       2.9428577

 DIPCOR: dipole corrections for dipol
 direction  3 min pos     1,
 dipolmoment           0.054019      0.013219     -0.619084 electrons x Angstroem
 Tr[quadrupol]     -6987.516148

 energy correction for charged system         0.000000 eV
 dipol+quadrupol energy correction           -0.011125 eV
 added-field ion interaction          0.418730 eV  (added to PSCEN)


 Free energy of the ion-electron system (eV)
  ---------------------------------------------------
  alpha Z        PSCENC =       107.89387029
  Ewald energy   TEWEN  =     40679.09150020
  -Hartree energ DENC   =    -49259.99780011
  -exchange      EXHF   =       568.26528772
  -V(xc)+E(xc)   XCENC  =       625.98738991
  PAW double counting   =     27737.52722411   -27764.51877688
  entropy T*S    EENTRO =        -0.00000000
  eigenvalues    EBANDS =     -3226.52210889
  atomic energy  EATOM  =      9898.25650051
  ---------------------------------------------------
  free energy    TOTEN  =      -634.01691316 eV

  energy without entropy =     -634.01691315  energy(sigma->0) =     -634.01691316
  exchange ACFDT corr.  =        -0.00000000  see jH, gK, PRB 81, 115126


--------------------------------------------------------------------------------------------------------




--------------------------------------- Iteration      1(  10)  ---------------------------------------


    POTLOK:  cpu time    2.1327: real time    2.1345
    SETDIJ:  cpu time    2.0678: real time    2.0694
    TRIAL :  cpu time  355.3817: real time  355.7230
    CORREC:  cpu time    0.0007: real time    0.0007
    CHARGE:  cpu time    1.4011: real time    1.4025
    --------------------------------------------
      LOOP:  cpu time  360.9853: real time  361.3347

 eigenvalue-minimisations  :     0
 total energy-change (2. order) :-0.2566245E-01  (-0.2215022E-01)
 number of electron     250.9999999 magnetization       5.0000003
 augmentation part       13.4272757 magnetization       2.9376919

 DIPCOR: dipole corrections for dipol
 direction  3 min pos     1,
 dipolmoment           0.053374      0.013061     -0.611683 electrons x Angstroem
 Tr[quadrupol]     -6987.479984

 energy correction for charged system         0.000000 eV
 dipol+quadrupol energy correction           -0.010861 eV
 added-field ion interaction          0.413724 eV  (added to PSCEN)


 Free energy of the ion-electron system (eV)
  ---------------------------------------------------
  alpha Z        PSCENC =       107.88912944
  Ewald energy   TEWEN  =     40679.09150020
  -Hartree energ DENC   =    -49259.72785029
  -exchange      EXHF   =       568.35077885
  -V(xc)+E(xc)   XCENC  =       626.02776727
  PAW double counting   =     27743.05159410   -27770.11629135
  entropy T*S    EENTRO =        -0.00000000
  eigenvalues    EBANDS =     -3226.86570434
  atomic energy  EATOM  =      9898.25650051
  ---------------------------------------------------
  free energy    TOTEN  =      -634.04257560 eV

  energy without entropy =     -634.04257560  energy(sigma->0) =     -634.04257560
  exchange ACFDT corr.  =        -0.00000000  see jH, gK, PRB 81, 115126


--------------------------------------------------------------------------------------------------------




--------------------------------------- Iteration      1(  11)  ---------------------------------------


    POTLOK:  cpu time    2.1177: real time    2.1191
    SETDIJ:  cpu time    2.0657: real time    2.0673
    TRIAL :  cpu time  355.6794: real time  356.0490
    CORREC:  cpu time    0.0007: real time    0.0007
    CHARGE:  cpu time    1.3863: real time    1.3872
    --------------------------------------------
      LOOP:  cpu time  361.2509: real time  361.6272

 eigenvalue-minimisations  :     0
 total energy-change (2. order) :-0.2040715E-01  (-0.1763362E-01)
 number of electron     250.9999999 magnetization       5.0000003
 augmentation part       13.4272544 magnetization       2.9320820

 DIPCOR: dipole corrections for dipol
 direction  3 min pos     1,
 dipolmoment           0.052568      0.012864     -0.602447 electrons x Angstroem
 Tr[quadrupol]     -6987.437729

 energy correction for charged system         0.000000 eV
 dipol+quadrupol energy correction           -0.010535 eV
 added-field ion interaction          0.407477 eV  (added to PSCEN)


 Free energy of the ion-electron system (eV)
  ---------------------------------------------------
  alpha Z        PSCENC =       107.88320782
  Ewald energy   TEWEN  =     40679.09150020
  -Hartree energ DENC   =    -49258.91029051
  -exchange      EXHF   =       568.41175522
  -V(xc)+E(xc)   XCENC  =       626.05177189
  PAW double counting   =     27745.05227945   -27772.15632621
  entropy T*S    EENTRO =        -0.00000000
  eigenvalues    EBANDS =     -3227.74338112
  atomic energy  EATOM  =      9898.25650051
  ---------------------------------------------------
  free energy    TOTEN  =      -634.06298275 eV

  energy without entropy =     -634.06298275  energy(sigma->0) =     -634.06298275
  exchange ACFDT corr.  =        -0.00000000  see jH, gK, PRB 81, 115126


--------------------------------------------------------------------------------------------------------




--------------------------------------- Iteration      1(  12)  ---------------------------------------


    POTLOK:  cpu time    2.1118: real time    2.1140
    SETDIJ:  cpu time    2.0655: real time    2.0680
    TRIAL :  cpu time  355.9674: real time  356.3147
    CORREC:  cpu time    0.0007: real time    0.0007
    CHARGE:  cpu time    1.3858: real time    1.3871
    --------------------------------------------
      LOOP:  cpu time  361.5326: real time  361.8886

 eigenvalue-minimisations  :     0
 total energy-change (2. order) :-0.1632884E-01  (-0.1411761E-01)
 number of electron     250.9999999 magnetization       5.0000003
 augmentation part       13.4276973 magnetization       2.9262489

 DIPCOR: dipole corrections for dipol
 direction  3 min pos     1,
 dipolmoment           0.051815      0.012680     -0.593815 electrons x Angstroem
 Tr[quadrupol]     -6987.397438

 energy correction for charged system         0.000000 eV
 dipol+quadrupol energy correction           -0.010235 eV
 added-field ion interaction          0.401639 eV  (added to PSCEN)


 Free energy of the ion-electron system (eV)
  ---------------------------------------------------
  alpha Z        PSCENC =       107.87766892
  Ewald energy   TEWEN  =     40679.09150020
  -Hartree energ DENC   =    -49258.03480993
  -exchange      EXHF   =       568.46085955
  -V(xc)+E(xc)   XCENC  =       626.06966066
  PAW double counting   =     27745.52610216   -27772.65629713
  entropy T*S    EENTRO =        -0.00000000
  eigenvalues    EBANDS =     -3228.67049653
  atomic energy  EATOM  =      9898.25650051
  ---------------------------------------------------
  free energy    TOTEN  =      -634.07931159 eV

  energy without entropy =     -634.07931159  energy(sigma->0) =     -634.07931159
  exchange ACFDT corr.  =        -0.00000000  see jH, gK, PRB 81, 115126


--------------------------------------------------------------------------------------------------------




--------------------------------------- Iteration      1(  13)  ---------------------------------------


    POTLOK:  cpu time    2.1083: real time    2.1110
    SETDIJ:  cpu time    2.0650: real time    2.0664
    TRIAL :  cpu time  355.8628: real time  356.2207
    CORREC:  cpu time    0.0007: real time    0.0007
    CHARGE:  cpu time    1.3875: real time    1.3896
    --------------------------------------------
      LOOP:  cpu time  361.4253: real time  361.7926

 eigenvalue-minimisations  :     0
 total energy-change (2. order) :-0.1313664E-01  (-0.1136059E-01)
 number of electron     250.9999999 magnetization       5.0000004
 augmentation part       13.4284317 magnetization       2.9204752

 DIPCOR: dipole corrections for dipol
 direction  3 min pos     1,
 dipolmoment           0.051226      0.012536     -0.587067 electrons x Angstroem
 Tr[quadrupol]     -6987.362992

 energy correction for charged system         0.000000 eV
 dipol+quadrupol energy correction           -0.010004 eV
 added-field ion interaction          0.397075 eV  (added to PSCEN)


 Free energy of the ion-electron system (eV)
  ---------------------------------------------------
  alpha Z        PSCENC =       107.87333641
  Ewald energy   TEWEN  =     40679.09150020
  -Hartree energ DENC   =    -49257.35507522
  -exchange      EXHF   =       568.50461174
  -V(xc)+E(xc)   XCENC  =       626.08674576
  PAW double counting   =     27745.83730518   -27772.99767629
  entropy T*S    EENTRO =        -0.00000000
  eigenvalues    EBANDS =     -3229.38969653
  atomic energy  EATOM  =      9898.25650051
  ---------------------------------------------------
  free energy    TOTEN  =      -634.09244823 eV

  energy without entropy =     -634.09244823  energy(sigma->0) =     -634.09244823
  exchange ACFDT corr.  =        -0.00000000  see jH, gK, PRB 81, 115126


--------------------------------------------------------------------------------------------------------




--------------------------------------- Iteration      1(  14)  ---------------------------------------


    POTLOK:  cpu time    2.1045: real time    2.1058
    SETDIJ:  cpu time    2.0660: real time    2.0678
    TRIAL :  cpu time  354.9158: real time  355.2680
    CORREC:  cpu time    0.0007: real time    0.0007
    CHARGE:  cpu time    1.3860: real time    1.3880
    --------------------------------------------
      LOOP:  cpu time  360.4741: real time  360.8341

 eigenvalue-minimisations  :     0
 total energy-change (2. order) :-0.1060602E-01  (-0.9166639E-02)
 number of electron     250.9999999 magnetization       5.0000004
 augmentation part       13.4289474 magnetization       2.9149286

 DIPCOR: dipole corrections for dipol
 direction  3 min pos     1,
 dipolmoment           0.050742      0.012418     -0.581527 electrons x Angstroem
 Tr[quadrupol]     -6987.333238

 energy correction for charged system         0.000000 eV
 dipol+quadrupol energy correction           -0.009816 eV
 added-field ion interaction          0.393328 eV  (added to PSCEN)


 Free energy of the ion-electron system (eV)
  ---------------------------------------------------
  alpha Z        PSCENC =       107.86977714
  Ewald energy   TEWEN  =     40679.09150020
  -Hartree energ DENC   =    -49256.82905811
  -exchange      EXHF   =       568.54426491
  -V(xc)+E(xc)   XCENC  =       626.10327564
  PAW double counting   =     27746.54958965   -27773.74085674
  entropy T*S    EENTRO =        -0.00000000
  eigenvalues    EBANDS =     -3229.94804745
  atomic energy  EATOM  =      9898.25650051
  ---------------------------------------------------
  free energy    TOTEN  =      -634.10305425 eV

  energy without entropy =     -634.10305425  energy(sigma->0) =     -634.10305425
  exchange ACFDT corr.  =        -0.00000000  see jH, gK, PRB 81, 115126


--------------------------------------------------------------------------------------------------------




--------------------------------------- Iteration      1(  15)  ---------------------------------------


    POTLOK:  cpu time    2.1027: real time    2.1041
    SETDIJ:  cpu time    2.0652: real time    2.0665
    TRIAL :  cpu time  354.8124: real time  355.1632
    CORREC:  cpu time    0.0007: real time    0.0007
    CHARGE:  cpu time    1.3889: real time    1.3898
    --------------------------------------------
      LOOP:  cpu time  360.3709: real time  360.7277

 eigenvalue-minimisations  :     0
 total energy-change (2. order) :-0.8582819E-02  (-0.7416523E-02)
 number of electron     250.9999999 magnetization       5.0000004
 augmentation part       13.4292096 magnetization       2.9096896

 DIPCOR: dipole corrections for dipol
 direction  3 min pos     1,
 dipolmoment           0.050287      0.012306     -0.576314 electrons x Angstroem
 Tr[quadrupol]     -6987.306283

 energy correction for charged system         0.000000 eV
 dipol+quadrupol energy correction           -0.009641 eV
 added-field ion interaction          0.389802 eV  (added to PSCEN)


 Free energy of the ion-electron system (eV)
  ---------------------------------------------------
  alpha Z        PSCENC =       107.86642641
  Ewald energy   TEWEN  =     40679.09150020
  -Hartree energ DENC   =    -49256.35536850
  -exchange      EXHF   =       568.57949026
  -V(xc)+E(xc)   XCENC  =       626.11817232
  PAW double counting   =     27747.73557946   -27774.95089712
  entropy T*S    EENTRO =        -0.00000000
  eigenvalues    EBANDS =     -3230.45304061
  atomic energy  EATOM  =      9898.25650051
  ---------------------------------------------------
  free energy    TOTEN  =      -634.11163707 eV

  energy without entropy =     -634.11163707  energy(sigma->0) =     -634.11163707
  exchange ACFDT corr.  =        -0.00000000  see jH, gK, PRB 81, 115126


--------------------------------------------------------------------------------------------------------




--------------------------------------- Iteration      1(  16)  ---------------------------------------


    POTLOK:  cpu time    2.0991: real time    2.1041
    SETDIJ:  cpu time    2.0638: real time    2.0649
    TRIAL :  cpu time  354.7234: real time  355.5136
    CORREC:  cpu time    0.0007: real time    0.0007
    CHARGE:  cpu time    1.3892: real time    1.3902
    --------------------------------------------
      LOOP:  cpu time  360.2770: real time  361.0766

 eigenvalue-minimisations  :     0
 total energy-change (2. order) :-0.6960424E-02  (-0.6013587E-02)
 number of electron     250.9999999 magnetization       5.0000004
 augmentation part       13.4294698 magnetization       2.9048114

 DIPCOR: dipole corrections for dipol
 direction  3 min pos     1,
 dipolmoment           0.049855      0.012200     -0.571356 electrons x Angstroem
 Tr[quadrupol]     -6987.281839

 energy correction for charged system         0.000000 eV
 dipol+quadrupol energy correction           -0.009476 eV
 added-field ion interaction          0.386448 eV  (added to PSCEN)


 Free energy of the ion-electron system (eV)
  ---------------------------------------------------
  alpha Z        PSCENC =       107.86323829
  Ewald energy   TEWEN  =     40679.09150020
  -Hartree energ DENC   =    -49255.91747370
  -exchange      EXHF   =       568.61061250
  -V(xc)+E(xc)   XCENC  =       626.13136011
  PAW double counting   =     27749.22744539   -27776.46055791
  entropy T*S    EENTRO =        -0.00000000
  eigenvalues    EBANDS =     -3230.92122288
  atomic energy  EATOM  =      9898.25650051
  ---------------------------------------------------
  free energy    TOTEN  =      -634.11859750 eV

  energy without entropy =     -634.11859749  energy(sigma->0) =     -634.11859749
  exchange ACFDT corr.  =        -0.00000000  see jH, gK, PRB 81, 115126


--------------------------------------------------------------------------------------------------------




--------------------------------------- Iteration      1(  17)  ---------------------------------------


    POTLOK:  cpu time    2.1011: real time    2.1027
    SETDIJ:  cpu time    2.0637: real time    2.0649
    TRIAL :  cpu time  355.6141: real time  356.0092
    CORREC:  cpu time    0.0007: real time    0.0007
    CHARGE:  cpu time    1.3851: real time    1.3862
    --------------------------------------------
      LOOP:  cpu time  361.1657: real time  361.5673

 eigenvalue-minimisations  :     0
 total energy-change (2. order) :-0.5656373E-02  (-0.4888078E-02)
 number of electron     250.9999999 magnetization       5.0000004
 augmentation part       13.4297753 magnetization       2.9002723

 DIPCOR: dipole corrections for dipol
 direction  3 min pos     1,
 dipolmoment           0.049472      0.012107     -0.566974 electrons x Angstroem
 Tr[quadrupol]     -6987.260257

 energy correction for charged system         0.000000 eV
 dipol+quadrupol energy correction           -0.009331 eV
 added-field ion interaction          0.383484 eV  (added to PSCEN)


 Free energy of the ion-electron system (eV)
  ---------------------------------------------------
  alpha Z        PSCENC =       107.86041879
  Ewald energy   TEWEN  =     40679.09150020
  -Hartree energ DENC   =    -49255.54015499
  -exchange      EXHF   =       568.63840066
  -V(xc)+E(xc)   XCENC  =       626.14336956
  PAW double counting   =     27750.82067283   -27778.07027124
  entropy T*S    EENTRO =        -0.00000000
  eigenvalues    EBANDS =     -3231.32469018
  atomic energy  EATOM  =      9898.25650051
  ---------------------------------------------------
  free energy    TOTEN  =      -634.12425387 eV

  energy without entropy =     -634.12425387  energy(sigma->0) =     -634.12425387
[...]


 VOLUME and BASIS-vectors are now :
 -----------------------------------------------------------------------------
  energy-cutoff  :      500.00
  volume of cell :     3176.87
      direct lattice vectors                 reciprocal lattice vectors
    12.917200000  0.000000000  0.000000000     0.077416158  0.001274401  0.006782319
    -0.202734423 12.315531438  0.000000000     0.000000000  0.081198282  0.001733854
    -1.742522272 -0.426425713 19.969985413     0.000000000  0.000000000  0.050075149

  length of vectors
    12.917200000 12.317200000 20.050400000     0.077723134  0.081216792  0.050075149


 FORCES acting on ions:
    Electron-Ion                     Ewald-Force                    Non-Local-Force
 -----------------------------------------------------------------------------------------------
   0.456E+01 -.776E+01 0.276E+01   -.479E+01 0.807E+01 -.281E+01   0.220E+00 -.257E+00 0.440E-01
   0.421E+01 -.259E+01 0.242E+01   -.413E+01 0.258E+01 -.247E+01   -.527E-01 -.938E-02 0.356E-01
   0.252E+01 -.413E+01 0.160E+01   -.258E+01 0.416E+01 -.161E+01   0.563E-01 -.273E-01 -.142E-02
   0.585E+01 -.494E+00 0.320E+01   -.599E+01 0.546E+00 -.321E+01   0.130E+00 -.856E-01 0.275E-02
   0.532E+01 0.804E+01 0.270E+01   -.535E+01 -.784E+01 -.275E+01   -.132E-01 -.189E+00 0.449E-01
   0.654E+01 0.101E+02 0.808E+01   -.650E+01 -.103E+02 -.814E+01   -.429E-01 0.307E+00 0.573E-01
   0.173E+01 0.889E+01 0.284E+01   -.160E+01 -.902E+01 -.284E+01   -.640E-01 0.928E-01 -.454E-02
   0.158E+02 0.249E+02 0.653E+01   -.158E+02 -.248E+02 -.666E+01   -.247E-03 -.551E-01 0.128E+00
   0.283E+02 0.563E+02 0.134E+02   -.295E+02 -.592E+02 -.135E+02   0.127E+01 0.314E+01 0.114E+00
   0.166E+02 0.104E+02 0.106E+02   -.170E+02 -.106E+02 -.106E+02   0.350E+00 0.168E+00 -.573E-02
   0.148E+02 0.182E+02 0.116E+02   -.150E+02 -.185E+02 -.117E+02   0.135E+00 0.225E+00 0.733E-01
   0.527E+02 -.245E+02 0.231E+02   -.545E+02 0.270E+02 -.233E+02   0.173E+01 -.260E+01 0.262E+00
   0.143E+02 -.635E+01 0.101E+02   -.144E+02 0.673E+01 -.102E+02   0.139E+00 -.309E+00 0.402E-01
   0.308E+02 -.717E+01 0.135E+02   -.311E+02 0.745E+01 -.136E+02   0.430E+00 -.238E+00 0.419E-01
   0.497E+02 -.362E+02 0.231E+02   -.528E+02 0.364E+02 -.234E+02   0.322E+01 -.124E+00 0.317E+00
   0.203E+02 -.258E+02 0.115E+02   -.208E+02 0.260E+02 -.116E+02   0.452E+00 -.266E+00 0.579E-01
   0.791E+01 -.102E+02 0.419E+01   -.798E+01 0.103E+02 -.424E+01   0.369E-01 -.123E+00 0.477E-01
   0.113E+02 -.141E+02 0.799E+01   -.117E+02 0.141E+02 -.801E+01   0.350E+00 -.749E-01 0.170E-01
   0.479E+01 -.239E+02 0.597E+01   -.483E+01 0.243E+02 -.598E+01   0.954E-01 -.431E+00 -.186E-02
   -.562E+01 0.584E+00 0.742E+01   0.578E+01 -.628E+00 -.742E+01   -.127E+00 0.839E-01 -.133E-02
   0.633E+00 0.939E+01 0.785E+01   -.838E+00 -.952E+01 -.789E+01   0.227E+00 0.132E+00 0.400E-01
   -.290E+00 -.915E+01 0.852E+01   0.515E+00 0.928E+01 -.860E+01   -.223E+00 -.130E+00 0.782E-01
   -.444E+01 0.803E+01 0.109E+02   0.468E+01 -.833E+01 -.110E+02   -.220E+00 0.258E+00 0.515E-01
   -.450E+01 0.242E+02 0.157E+02   0.456E+01 -.246E+02 -.157E+02   -.926E-01 0.432E+00 -.290E-02
   0.308E+02 0.555E+02 0.167E+02   -.328E+02 -.581E+02 -.168E+02   0.216E+01 0.270E+01 0.110E+00
   0.695E+01 0.208E+02 0.144E+02   -.703E+01 -.211E+02 -.144E+02   0.121E+00 0.228E+00 0.800E-01
   -.201E+02 0.262E+02 0.271E+02   0.206E+02 -.265E+02 -.272E+02   -.451E+00 0.272E+00 0.949E-01
   -.487E+02 0.365E+02 0.398E+02   0.519E+02 -.367E+02 -.402E+02   -.320E+01 0.131E+00 0.410E+00
   -.523E+02 0.243E+02 0.411E+02   0.541E+02 -.269E+02 -.414E+02   -.173E+01 0.261E+01 0.385E+00
   -.278E+02 -.571E+02 0.206E+02   0.291E+02 0.600E+02 -.207E+02   -.127E+01 -.316E+01 0.116E+00
   -.151E+02 -.253E+02 0.957E+01   0.151E+02 0.253E+02 -.970E+01   0.130E-01 0.467E-01 0.138E+00
   -.647E+01 -.205E+02 0.985E+01   0.657E+01 0.208E+02 -.992E+01   -.117E+00 -.226E+00 0.688E-01
   -.297E+02 -.556E+02 0.142E+02   0.317E+02 0.582E+02 -.144E+02   -.215E+01 -.269E+01 0.174E+00
   -.502E+01 -.820E+01 0.684E+01   0.507E+01 0.801E+01 -.690E+01   0.164E-01 0.185E+00 0.572E-01
   0.260E+01 -.399E+01 0.437E+01   -.260E+01 0.406E+01 -.442E+01   0.203E-01 -.345E-01 0.347E-01
   -.256E+01 0.426E+01 0.102E+02   0.264E+01 -.427E+01 -.102E+02   -.572E-01 0.255E-01 0.251E-01
   -.430E+01 0.257E+01 0.612E+01   0.424E+01 -.256E+01 -.615E+01   0.505E-01 0.767E-02 0.230E-01
   -.282E+01 0.397E+01 0.452E+01   0.285E+01 -.404E+01 -.454E+01   -.233E-01 0.350E-01 0.205E-01
   -.189E+01 0.430E+01 0.964E+01   0.189E+01 -.436E+01 -.967E+01   -.358E-01 0.604E-01 0.301E-01
   -.116E+02 0.144E+02 0.230E+02   0.120E+02 -.144E+02 -.230E+02   -.351E+00 0.745E-01 0.443E-01
   -.817E+01 0.103E+02 0.142E+02   0.826E+01 -.105E+02 -.142E+02   -.381E-01 0.121E+00 0.349E-01
   -.352E+01 0.815E+01 0.109E+02   0.360E+01 -.823E+01 -.109E+02   -.539E-01 0.827E-01 0.295E-01
   -.480E+01 0.807E+01 0.159E+02   0.487E+01 -.807E+01 -.159E+02   -.390E-01 0.203E-01 0.360E-01
   -.313E+02 0.711E+01 0.282E+02   0.317E+02 -.738E+01 -.283E+02   -.440E+00 0.235E+00 0.741E-01
   -.149E+02 0.655E+01 0.237E+02   0.150E+02 -.693E+01 -.237E+02   -.143E+00 0.311E+00 0.503E-01
   0.341E+01 0.499E-01 0.128E+02   -.350E+01 -.575E-01 -.128E+02   0.154E+00 -.515E-01 0.444E-01
   -.425E+01 -.103E+00 0.128E+02   0.437E+01 0.112E+00 -.129E+02   -.160E+00 0.548E-01 0.373E-01
   -.153E+02 -.186E+02 0.174E+02   0.155E+02 0.189E+02 -.175E+02   -.142E+00 -.226E+00 0.755E-01
   -.172E+02 -.107E+02 0.177E+02   0.177E+02 0.108E+02 -.177E+02   -.355E+00 -.170E+00 -.288E-02
   0.413E+01 -.806E+01 0.931E+01   -.417E+01 0.806E+01 -.933E+01   0.359E-01 -.195E-01 0.231E-01
   0.302E+01 -.820E+01 0.743E+01   -.307E+01 0.829E+01 -.748E+01   0.531E-01 -.809E-01 0.457E-01
   -.176E+01 -.908E+01 0.647E+01   0.165E+01 0.922E+01 -.648E+01   0.663E-01 -.968E-01 0.666E-02
   -.685E+01 -.104E+02 0.955E+01   0.684E+01 0.106E+02 -.960E+01   0.424E-01 -.311E+00 0.452E-01
   0.158E+01 -.427E+01 0.392E+01   -.156E+01 0.433E+01 -.394E+01   0.345E-01 -.587E-01 0.714E-02
   0.213E+02 0.405E+02 0.252E+02   -.104E+01 -.396E+02 -.248E+02   -.193E+02 -.977E+00 -.297E+00
   0.274E+02 0.383E+02 0.339E+02   -.373E+02 -.202E+02 -.334E+02   0.936E+01 -.173E+02 -.459E+00
   -.199E+02 -.416E+02 0.405E+02   -.236E+00 0.407E+02 -.401E+02   0.193E+02 0.973E+00 -.268E+00
   -.250E+02 -.383E+02 0.231E+02   0.349E+02 0.202E+02 -.227E+02   -.936E+01 0.173E+02 -.323E+00
   0.439E+01 -.102E+01 0.193E+02   -.459E+01 0.106E+01 -.228E+02   0.124E+00 -.562E-02 0.109E+01
   -.756E+01 0.254E+01 -.814E+03   0.740E+01 -.249E+01 0.811E+03   0.212E+00 -.522E-01 0.347E+01
 -----------------------------------------------------------------------------------------------
   0.356E+00 0.217E+00 -.787E+01   -.371E-12 0.185E-12 0.114E-12   0.292E+00 -.494E-01 0.696E+01
 
 
 POSITION                                       TOTAL-FORCE (eV/Angst)
 -----------------------------------------------------------------------------------
      2.00395     -0.17330      9.97907        -0.000617      0.036351     -0.003363
     -0.14619      1.04378      9.96356         0.013667     -0.023072     -0.007458
      0.57047     -0.18547      9.97194        -0.010808     -0.004675     -0.008504
      2.72168      1.06577      9.97967        -0.014953     -0.046214     -0.004508
      2.01581      2.32423      9.98708        -0.058675     -0.011984     -0.007464
     -0.16621      3.50740      9.95019        -0.012619      0.052396      0.000229
      0.57528      2.28723      9.97043         0.045976     -0.033115     -0.012797
      2.73504      3.58751     10.00362        -0.025391     -0.054916      0.007785
      1.96505      4.82718     10.00524         0.115038      0.406489      0.006533
     -0.25549      5.96364      9.94903        -0.041960      0.006862     -0.009671
      0.52340      4.75981      9.96295        -0.065462     -0.059836     -0.001005
      1.81230      7.22458      9.99541         0.040630     -0.235509      0.024203
     -0.32676      8.43953      9.95057         0.015919      0.054574     -0.002798
      0.40844      7.21617      9.96140         0.084462      0.018018     -0.016455
      2.51051      8.46504      9.99942         0.269216      0.035563      0.043247
      1.79367      9.68091      9.97747        -0.022915     -0.024911     -0.009873
     -0.35396     10.89686      9.96187        -0.037060     -0.000611     -0.001236
      0.36859      9.67306      9.96258        -0.020255     -0.056544     -0.006904
      2.51880     10.90363      9.98168         0.044884     -0.059786     -0.007390
      6.09821     12.04496      9.95323         0.015306      0.046856      0.000328
      4.15184      1.02739      9.96422         0.019101      0.010025      0.000426
      4.66802     12.08314      9.96280        -0.017187     -0.008798      0.007864
      7.01865      0.96846      9.93012        -0.001283     -0.034585      0.007634
      6.30105      2.20702      9.92515        -0.042872      0.057895      0.007456
      4.18604      3.54629      9.98784         0.274620      0.305931      0.023564
      4.87133      2.26506      9.95235         0.043421     -0.099403      0.007547
      7.02623      3.42966      9.89815         0.026322      0.024348      0.018178
      6.30984      4.64570      9.92606        -0.263259     -0.035952      0.068946
      7.00833      5.88599      9.91989        -0.037920      0.225015      0.058336
      6.85586      8.28390      9.96862        -0.113511     -0.396500      0.021798
      6.08554      9.52311      9.98805         0.030735      0.053178      0.012585
      3.94860     10.84545      9.97961        -0.041897      0.098997      0.006465
      4.63444      9.56420     10.00560        -0.277888     -0.307883      0.021302
      6.80421     10.78660      9.96273         0.061897      0.012321      0.002022
     10.40461     12.09466      9.94516         0.012013      0.023097     -0.007743
      8.45224      0.98086      9.92216         0.010432      0.003648      0.010566
      8.96622     12.06722      9.93841        -0.014044      0.024534     -0.004369
     11.33270      1.01628      9.94440        -0.015992     -0.022127     -0.002256
     10.60534      2.23883      9.92107        -0.047994     -0.000976     -0.000704
      8.45148      3.43777      9.88397         0.020158      0.055072      0.014871
      9.17406      2.21401      9.90410         0.036255     -0.003488      0.012181
     11.31514      3.48016      9.92162         0.004962      0.002043     -0.001148
     10.56844      4.69566      9.90199         0.018085      0.021334      0.012796
      8.41222      5.89487      9.89082        -0.083884     -0.024567      0.014350
      9.14723      4.67142      9.88131        -0.015589     -0.057873      0.017157
     11.24320      5.94334      9.91996         0.063029     -0.071513      0.004274
     10.49469      7.16749      9.91885        -0.066059      0.070255      0.001191
      8.29719      8.35127      9.93084         0.065207      0.062547      0.010756
      9.07609      7.14736      9.91094         0.045403     -0.010198      0.002717
     11.16933      8.41521      9.93559        -0.015763     -0.018991      0.004719
     10.42244      9.63067      9.94019        -0.000533      0.000568     -0.001692
      8.24470     10.82375      9.94756        -0.046606      0.031412     -0.001332
      8.98646      9.60362      9.93829         0.014471     -0.050240      0.001917
     11.13204     10.87198      9.95138         0.047660      0.002040     -0.009861
      2.57816      6.06995     10.04735        -0.770650     -0.176957      0.107775
      4.93252      4.71601     10.01299         0.294273     -0.787696      0.079131
      6.24356      7.04025      9.99763         0.757277      0.171221      0.111726
      3.88920      8.39458     10.05231        -0.285776      0.789102      0.085603
      4.41378      6.55403     10.20579        -0.036975      0.015536     -1.247363
      4.48846      6.53444     12.37598         0.015980      0.001693      0.537720
 -----------------------------------------------------------------------------------
    total drift:                                0.670785      0.164126     -0.009314


--------------------------------------------------------------------------------------------------------



  FREE ENERGIE OF THE ION-ELECTRON SYSTEM (eV)
  ---------------------------------------------------
  free  energy   TOTEN  =      -634.15258213 eV

  energy  without entropy=     -634.15258212  energy(sigma->0) =     -634.15258212
 


--------------------------------------------------------------------------------------------------------


    POTLOK:  cpu time    4.1375: real time    4.1405


--------------------------------------------------------------------------------------------------------


 stress matrix after NEB project (eV)
    -45.90368     -1.79130     -0.01865
     -1.79127    -44.82325      0.01808
     -0.01837      0.01812      0.79192
  FORCES: max atom, RMS     1.248007    0.306418
  FORCE total and by dimension    2.373502    1.247363
  Stress total and by dimension   64.213059   45.903679
 writing wavefunctions
     LOOP+:  cpu time19578.7223: real time19604.9778
    4ORBIT:  cpu time    0.0000: real time    0.0000
 


 total charge     
 
# of ion       s       p       d       tot
------------------------------------------
    1        0.863   1.762   0.000   2.626
    2        0.864   1.757   0.000   2.621
    3        0.865   1.772   0.000   2.637
    4        0.862   1.756   0.000   2.618
    5        0.857   1.729   0.000   2.586
    6        0.864   1.762   0.000   2.626
    7        0.861   1.759   0.000   2.619
    8        0.847   1.739   0.000   2.586
    9        0.851   1.700   0.000   2.551
   10        0.869   1.778   0.000   2.646
   11        0.862   1.760   0.000   2.622
   12        0.866   1.771   0.000   2.637
   13        0.868   1.787   0.000   2.655
   14        0.873   1.795   0.000   2.668
   15        0.866   1.768   0.000   2.635
   16        0.871   1.790   0.000   2.661
   17        0.866   1.771   0.000   2.637
   18        0.869   1.788   0.000   2.656
   19        0.867   1.766   0.000   2.633
   20        0.862   1.756   0.000   2.618
   21        0.861   1.750   0.000   2.611
   22        0.861   1.750   0.000   2.611
   23        0.863   1.762   0.000   2.625
   24        0.867   1.766   0.000   2.633
   25        0.851   1.699   0.000   2.550
   26        0.861   1.754   0.000   2.615
   27        0.871   1.790   0.000   2.661
   28        0.866   1.768   0.000   2.634
   29        0.866   1.771   0.000   2.637
   30        0.851   1.701   0.000   2.551
   31        0.847   1.739   0.000   2.586
   32        0.861   1.754   0.000   2.615
   33        0.851   1.699   0.000   2.550
   34        0.857   1.729   0.000   2.586
   35        0.864   1.763   0.000   2.627
   36        0.865   1.772   0.000   2.637
   37        0.864   1.757   0.000   2.621
   38        0.864   1.763   0.000   2.627
   39        0.866   1.770   0.000   2.636
   40        0.868   1.787   0.000   2.656
   41        0.866   1.771   0.000   2.637
   42        0.864   1.765   0.000   2.629
   43        0.870   1.778   0.000   2.648
   44        0.873   1.795   0.000   2.668
   45        0.868   1.787   0.000   2.655
   46        0.867   1.783   0.000   2.649
   47        0.867   1.783   0.000   2.649
   48        0.862   1.760   0.000   2.623
   49        0.869   1.778   0.000   2.647
   50        0.870   1.778   0.000   2.648
   51        0.865   1.765   0.000   2.629
   52        0.861   1.759   0.000   2.619
   53        0.864   1.762   0.000   2.627
   54        0.866   1.770   0.000   2.636
   55        1.231   2.658   0.000   3.889
   56        1.233   2.653   0.000   3.886
   57        1.231   2.658   0.000   3.889
   58        1.233   2.653   0.000   3.886
   59        0.476   0.684   6.567   7.727
   60        0.420   0.074   4.904   5.399
--------------------------------------------------
tot         52.451 106.524  11.471 170.446
 


 magnetization (x)
 
# of ion       s       p       d       tot
------------------------------------------
    1        0.000   0.000   0.000   0.000
    2       -0.000  -0.000   0.000  -0.000
    3        0.000   0.001   0.000   0.001
    4        0.000   0.001   0.000   0.001
    5       -0.000  -0.001   0.000  -0.001
    6       -0.000  -0.000   0.000  -0.000
    7        0.000   0.002   0.000   0.002
    8        0.000   0.006   0.000   0.006
    9       -0.000  -0.002   0.000  -0.002
   10       -0.000  -0.001   0.000  -0.001
   11        0.000   0.001   0.000   0.001
   12       -0.000  -0.003   0.000  -0.003
   13        0.000   0.000   0.000   0.000
   14        0.000   0.001   0.000   0.001
   15       -0.000  -0.002   0.000  -0.003
   16        0.000   0.001   0.000   0.001
   17        0.000   0.000   0.000   0.000
   18        0.000   0.001   0.000   0.001
   19       -0.000  -0.001   0.000  -0.002
   20        0.000   0.001   0.000   0.001
   21        0.000   0.000   0.000   0.000
   22        0.000   0.000   0.000   0.000
   23        0.000   0.000   0.000   0.000
   24       -0.000  -0.001   0.000  -0.002
   25       -0.000  -0.002   0.000  -0.002
   26        0.000   0.001   0.000   0.001
   27        0.000   0.001   0.000   0.001
   28       -0.000  -0.002   0.000  -0.003
   29       -0.000  -0.003   0.000  -0.003
   30       -0.000  -0.002   0.000  -0.002
   31        0.000   0.006   0.000   0.006
   32        0.000   0.001   0.000   0.001
   33       -0.000  -0.002   0.000  -0.002
   34       -0.000  -0.001   0.000  -0.001
   35        0.000   0.000   0.000   0.000
   36        0.000   0.001   0.000   0.001
   37       -0.000  -0.000   0.000  -0.000
   38        0.000   0.000   0.000   0.000
   39        0.000   0.001   0.000   0.001
   40        0.000   0.001   0.000   0.001
   41       -0.000   0.000   0.000   0.000
   42        0.000   0.001   0.000   0.001
   43       -0.000   0.000   0.000   0.000
   44        0.000   0.001   0.000   0.001
   45        0.000   0.000   0.000   0.000
   46        0.000   0.001   0.000   0.001
   47        0.000   0.001   0.000   0.001
   48        0.000   0.001   0.000   0.002
   49       -0.000  -0.001   0.000  -0.001
   50       -0.000  -0.000   0.000  -0.000
   51        0.000   0.001   0.000   0.001
   52        0.000   0.002   0.000   0.002
   53       -0.000  -0.000   0.000  -0.000
   54        0.000   0.001   0.000   0.001
   55        0.004   0.025   0.000   0.029
   56        0.004   0.022   0.000   0.026
   57        0.004   0.027   0.000   0.030
   58        0.004   0.022   0.000   0.026
   59       -0.039  -0.007  -0.411  -0.457
   60        0.215  -0.008   4.345   4.552
--------------------------------------------------
tot          0.190   0.091   3.934   4.215
 

 total amount of memory used by VASP MPI-rank0   222631. kBytes
=======================================================================

   base      :      30000. kBytes
   nonl-proj :       7168. kBytes
   fftplans  :      17540. kBytes
   grid      :      46049. kBytes
   one-center:         93. kBytes
   HF        :         23. kBytes
   nonlr-proj:      16452. kBytes
   wavefun   :     105306. kBytes
 
  
  
 General timing and accounting informations for this job:
 ========================================================
  
                  Total CPU time used (sec):    19629.334
                            User time (sec):    19597.235
                          System time (sec):       32.100
                         Elapsed time (sec):    19662.040
  
                   Maximum memory used (kb):      493716.
                   Average memory used (kb):           0.
  
                          Minor page faults:      1094654
                          Major page faults:          219
                 Voluntary context switches:       233433
