 vasp.5.4.4.18Apr17-6-g9f103f2a35 (build Feb 25 2019 10:51:38) complex          
  
 executed on             LinuxIFC date 2021.08.06  12:24:51
 running on   32 total cores
 distrk:  each k-point on   32 cores,    1 groups
 distr:  one band on NCORES_PER_BAND=  32 cores,    1 groups


--------------------------------------------------------------------------------------------------------


 INCAR:
 POTCAR:    PAW_PBE C 08Apr2002                   
 POTCAR:    PAW_PBE N 08Apr2002                   
 POTCAR:    PAW_PBE Fe 06Sep2000                  
 POTCAR:    PAW_PBE Mn 06Sep2000                  

 ----------------------------------------------------------------------------- 
|                                                                             |
|           W    W    AA    RRRRR   N    N  II  N    N   GGGG   !!!           |
|           W    W   A  A   R    R  NN   N  II  NN   N  G    G  !!!           |
|           W    W  A    A  R    R  N N  N  II  N N  N  G       !!!           |
|           W WW W  AAAAAA  RRRRR   N  N N  II  N  N N  G  GGG   !            |
|           WW  WW  A    A  R   R   N   NN  II  N   NN  G    G                |
|           W    W  A    A  R    R  N    N  II  N    N   GGGG   !!!           |
|                                                                             |
|      For optimal performance we recommend to set                            |
|        NCORE= 4 - approx SQRT( number of cores)                             |
|      NCORE specifies how many cores store one orbital (NPAR=cpu/NCORE).     |
|      This setting can  greatly improve the performance of VASP for DFT.     |
|      The default,   NCORE=1            might be grossly inefficient         |
|      on modern multi-core architectures or massively parallel machines.     |
|      Do your own testing !!!!                                               |
|      Unfortunately you need to use the default for GW and RPA calculations. |
|      (for HF NCORE is supported but not extensively tested yet)             |
|                                                                             |
 ----------------------------------------------------------------------------- 

 POTCAR:    PAW_PBE C 08Apr2002                   
   VRHFIN =C: s2p2                                                              
   LEXCH  = PE                                                                  
   EATOM  =   147.1560 eV,   10.8157 Ry                                         
                                                                                
   TITEL  = PAW_PBE C 08Apr2002                                                 
   LULTRA =        F    use ultrasoft PP ?                                      
   IUNSCR =        1    unscreen: 0-lin 1-nonlin 2-no                           
   RPACOR =    1.200    partial core radius                                     
   POMASS =   12.011; ZVAL   =    4.000    mass and valenz                      
   RCORE  =    1.500    outmost cutoff radius                                   
   RWIGS  =    1.630; RWIGS  =    0.863    wigner-seitz radius (au A)           
   ENMAX  =  400.000; ENMIN  =  300.000 eV                                      
   ICORE  =        2    local potential                                         
   LCOR   =        T    correct aug charges                                     
   LPAW   =        T    paw PP                                                  
   EAUG   =  644.873                                                            
   DEXC   =    0.000                                                            
   RMAX   =    1.529    core radius for proj-oper                               
   RAUG   =    1.300    factor for augmentation sphere                          
   RDEP   =    1.501    radius for radial grids                                 
   RDEPT  =    1.300    core radius for aug-charge                              
                                                                                
   Atomic configuration                                                         
    4 entries                                                                   
     n  l   j            E        occ.                                          
     1  0  0.50      -273.3789   2.0000                                         
     2  0  0.50       -13.7508   2.0000                                         
     2  1  0.50        -5.2854   2.0000                                         
     3  2  1.50        -5.4423   0.0000                                         
   Description                                                                  
     l       E           TYP  RCUT    TYP  RCUT                                 
     0    -13.7508458     23  1.200                                             
     0     -8.2022199     23  1.200                                             
     1     -5.2854383     23  1.500                                             
     1     34.0145650     23  1.500                                             
     2     -5.4423304      7  1.500                                             
  local pseudopotential read in
  partial core-charges read in
  partial kinetic energy density read in
  atomic valenz-charges read in
  non local Contribution for L=           0  read in
    real space projection operators read in
  non local Contribution for L=           0  read in
    real space projection operators read in
  non local Contribution for L=           1  read in
    real space projection operators read in
  non local Contribution for L=           1  read in
    real space projection operators read in
    PAW grid and wavefunctions read in
 
   number of l-projection  operators is LMAX  =           4
   number of lm-projection operators is LMMAX =           8
 
 POTCAR:    PAW_PBE N 08Apr2002                   
   VRHFIN =N: s2p3                                                              
   LEXCH  = PE                                                                  
   EATOM  =   264.5486 eV,   19.4438 Ry                                         
                                                                                
   TITEL  = PAW_PBE N 08Apr2002                                                 
   LULTRA =        F    use ultrasoft PP ?                                      
   IUNSCR =        1    unscreen: 0-lin 1-nonlin 2-no                           
   RPACOR =    1.200    partial core radius                                     
   POMASS =   14.001; ZVAL   =    5.000    mass and valenz                      
   RCORE  =    1.500    outmost cutoff radius                                   
   RWIGS  =    1.400; RWIGS  =    0.741    wigner-seitz radius (au A)           
   ENMAX  =  400.000; ENMIN  =  300.000 eV                                      
   ICORE  =        2    local potential                                         
   LCOR   =        T    correct aug charges                                     
   LPAW   =        T    paw PP                                                  
   EAUG   =  627.112                                                            
   DEXC   =    0.000                                                            
   RMAX   =    1.529    core radius for proj-oper                               
   RAUG   =    1.300    factor for augmentation sphere                          
   RDEP   =    1.514    radius for radial grids                                 
   RDEPT  =    1.338    core radius for aug-charge                              
                                                                                
   Atomic configuration                                                         
    4 entries                                                                   
     n  l   j            E        occ.                                          
     1  0  0.50      -384.7179   2.0000                                         
     2  0  0.50       -18.5828   2.0000                                         
     2  1  0.50        -7.0898   3.0000                                         
     3  2  1.50        -6.8029   0.0000                                         
   Description                                                                  
     l       E           TYP  RCUT    TYP  RCUT                                 
     0    -18.5828119     23  1.200                                             
     0    -13.5018863     23  1.200                                             
     1     -7.0897853     23  1.500                                             
     1      9.5240782     23  1.500                                             
     2     -6.8029130      7  1.500                                             
  local pseudopotential read in
  partial core-charges read in
  partial kinetic energy density read in
  atomic valenz-charges read in
  non local Contribution for L=           0  read in
    real space projection operators read in
  non local Contribution for L=           0  read in
    real space projection operators read in
  non local Contribution for L=           1  read in
    real space projection operators read in
  non local Contribution for L=           1  read in
    real space projection operators read in
    PAW grid and wavefunctions read in
 
   number of l-projection  operators is LMAX  =           4
   number of lm-projection operators is LMMAX =           8
 
 POTCAR:    PAW_PBE Fe 06Sep2000                  
   VRHFIN =Fe:  d7 s1                                                           
   LEXCH  = PE                                                                  
   EATOM  =   594.3153 eV,   43.6809 Ry                                         
                                                                                
   TITEL  = PAW_PBE Fe 06Sep2000                                                
   LULTRA =        F    use ultrasoft PP ?                                      
   IUNSCR =        1    unscreen: 0-lin 1-nonlin 2-no                           
   RPACOR =    2.000    partial core radius                                     
   POMASS =   55.847; ZVAL   =    8.000    mass and valenz                      
   RCORE  =    2.300    outmost cutoff radius                                   
   RWIGS  =    2.460; RWIGS  =    1.302    wigner-seitz radius (au A)           
   ENMAX  =  267.882; ENMIN  =  200.911 eV                                      
   RCLOC  =    1.701    cutoff for local pot                                    
   LCOR   =        T    correct aug charges                                     
   LPAW   =        T    paw PP                                                  
   EAUG   =  511.368                                                            
   DEXC   =    0.000                                                            
   RMAX   =    2.356    core radius for proj-oper                               
   RAUG   =    1.300    factor for augmentation sphere                          
   RDEP   =    2.442    radius for radial grids                                 
   RDEPT  =    1.890    core radius for aug-charge                              
                                                                                
   Atomic configuration                                                         
    9 entries                                                                   
     n  l   j            E        occ.                                          
     1  0  0.50     -6993.8440   2.0000                                         
     2  0  0.50      -814.6047   2.0000                                         
     2  1  1.50      -693.3689   6.0000                                         
     3  0  0.50       -89.4732   2.0000                                         
     3  1  1.50       -55.6373   6.0000                                         
     3  2  2.50        -3.8151   7.0000                                         
     4  0  0.50        -4.2551   1.0000                                         
     4  1  1.50        -3.4015   0.0000                                         
     4  3  2.50        -1.3606   0.0000                                         
   Description                                                                  
     l       E           TYP  RCUT    TYP  RCUT                                 
     2     -3.8151135     23  2.300                                             
     2     -5.1756961     23  2.300                                             
     0     -4.2550963     23  2.300                                             
     0      7.2035603     23  2.300                                             
     1     -2.7211652     23  2.300                                             
     1     18.4316424     23  2.300                                             
  local pseudopotential read in
  partial core-charges read in
  partial kinetic energy density read in
  atomic valenz-charges read in
  non local Contribution for L=           2  read in
    real space projection operators read in
  non local Contribution for L=           2  read in
    real space projection operators read in
  non local Contribution for L=           0  read in
    real space projection operators read in
  non local Contribution for L=           0  read in
    real space projection operators read in
  non local Contribution for L=           1  read in
    real space projection operators read in
  non local Contribution for L=           1  read in
    real space projection operators read in
    PAW grid and wavefunctions read in
 
   number of l-projection  operators is LMAX  =           6
   number of lm-projection operators is LMMAX =          18
 
 POTCAR:    PAW_PBE Mn 06Sep2000                  
   VRHFIN =Mn: d6 s1                                                            
   LEXCH  = PE                                                                  
   EATOM  =   416.7541 eV,   30.6306 Ry                                         
                                                                                
   TITEL  = PAW_PBE Mn 06Sep2000                                                
   LULTRA =        F    use ultrasoft PP ?                                      
   IUNSCR =        1    unscreen: 0-lin 1-nonlin 2-no                           
   RPACOR =    2.000    partial core radius                                     
   POMASS =   54.938; ZVAL   =    7.000    mass and valenz                      
   RCORE  =    2.300    outmost cutoff radius                                   
   RWIGS  =    2.500; RWIGS  =    1.323    wigner-seitz radius (au A)           
   ENMAX  =  269.864; ENMIN  =  202.398 eV                                      
   RCLOC  =    1.725    cutoff for local pot                                    
   LCOR   =        T    correct aug charges                                     
   LPAW   =        T    paw PP                                                  
   EAUG   =  500.711                                                            
   DEXC   =    0.000                                                            
   RMAX   =    2.343    core radius for proj-oper                               
   RAUG   =    1.300    factor for augmentation sphere                          
   RDEP   =    2.338    radius for radial grids                                 
   RDEPT  =    1.911    core radius for aug-charge                              
                                                                                
   Atomic configuration                                                         
    9 entries                                                                   
     n  l   j            E        occ.                                          
     1  0  0.50     -6424.8288   2.0000                                         
     2  0  0.50      -739.1154   2.0000                                         
     2  1  1.50      -625.3949   6.0000                                         
     3  0  0.50       -81.6100   2.0000                                         
     3  1  1.50       -50.4667   6.0000                                         
     3  2  2.50        -3.3745   6.0000                                         
     4  0  0.50        -4.1331   1.0000                                         
     4  1  0.50        -4.0817   0.0000                                         
     4  3  2.50        -1.3606   0.0000                                         
   Description                                                                  
     l       E           TYP  RCUT    TYP  RCUT                                 
     2     -3.3744664     23  2.300                                             
     2     -4.7350490     23  2.300                                             
     0     -4.1331408     23  2.300                                             
     0      7.6656614     23  2.300                                             
     1     -2.7211652     23  2.300                                             
     1     20.4087390     23  2.300                                             
  local pseudopotential read in
  partial core-charges read in
  partial kinetic energy density read in
  atomic valenz-charges read in
  non local Contribution for L=           2  read in
    real space projection operators read in
  non local Contribution for L=           2  read in
    real space projection operators read in
  non local Contribution for L=           0  read in
    real space projection operators read in
  non local Contribution for L=           0  read in
    real space projection operators read in
  non local Contribution for L=           1  read in
    real space projection operators read in
  non local Contribution for L=           1  read in
    real space projection operators read in
    PAW grid and wavefunctions read in
 
   number of l-projection  operators is LMAX  =           6
   number of lm-projection operators is LMMAX =          18
 

 ----------------------------------------------------------------------------- 
|                                                                             |
|  ADVICE TO THIS USER RUNNING 'VASP/VAMP'   (HEAR YOUR MASTER'S VOICE ...):  |
|                                                                             |
|      You have a (more or less) 'large supercell' and for larger cells       |
|      it might be more efficient to use real space projection opertators     |
|      So try LREAL= Auto  in the INCAR   file.                               |
|      Mind:          For very  accurate calculation you might also keep the  |
|      reciprocal projection scheme          (i.e. LREAL=.FALSE.)             |
|                                                                             |
 ----------------------------------------------------------------------------- 

  PAW_PBE C 08Apr2002                   :
 energy of atom  1       EATOM= -147.1560
 kinetic energy error for atom=    0.0076 (will be added to EATOM!!)
  PAW_PBE N 08Apr2002                   :
 energy of atom  2       EATOM= -264.5486
 kinetic energy error for atom=    0.0138 (will be added to EATOM!!)
  PAW_PBE Fe 06Sep2000                  :
 energy of atom  3       EATOM= -594.3153
 kinetic energy error for atom=    0.0026 (will be added to EATOM!!)
  PAW_PBE Mn 06Sep2000                  :
 energy of atom  4       EATOM= -416.7541
 kinetic energy error for atom=    0.0024 (will be added to EATOM!!)
 
 
 POSCAR:  C  N Fe Mn                             
  positions in cartesian coordinates
  No initial velocities read in
 exchange correlation table for  LEXCH =        8
   RHO(1)=    0.500       N(1)  =     2000
   RHO(2)=  100.500       N(2)  =     4000

 VTST: version 3.2, (02/03/18)

 CHAIN: initializing optimizer
 
 OPT: Using VASP Conjugate-Gradient optimizer
 CHAIN: Read ICHAIN            0
 
 POSCAR:  C  N Fe Mn                             
  positions in cartesian coordinates
  No initial velocities read in
 


--------------------------------------------------------------------------------------------------------


 ion  position               nearest neighbor table
   1  0.220  0.000  0.500-   3 1.42  20 1.43   4 1.43
   2  0.055  0.100  0.500-  34 1.42   7 1.44   3 1.44
   3  0.109  1.000  0.500-   1 1.42  18 1.44   2 1.44
   4  0.276  0.099  0.500-  22 1.42   5 1.43   1 1.43
   5  0.222  0.200  0.500-   7 1.43   4 1.43   8 1.45
   6  0.055  0.300  0.500-  38 1.43   7 1.44  11 1.45
   7  0.111  0.200  0.500-   5 1.43   2 1.44   6 1.44
   8  0.281  0.299  0.500-  51 1.42   5 1.45   9 1.46
   9  0.224  0.399  0.500-  11 1.43  12 1.45   8 1.46
  10  0.056  0.500  0.500-  42 1.44  11 1.45  15 1.45
  11  0.112  0.400  0.500-   9 1.43  10 1.45   6 1.45
  12  0.280  0.499  0.500-  55 1.34   9 1.45  13 1.45
  13  0.226  0.601  0.500-  15 1.44  12 1.45  16 1.46
  14  0.056  0.700  0.500-  46 1.43  19 1.44  15 1.44
  15  0.113  0.601  0.500-  13 1.44  14 1.44  10 1.45
  16  0.282  0.703  0.500-  56 1.38  17 1.44  13 1.46
  17  0.223  0.801  0.500-  20 1.43  19 1.43  16 1.44
  18  0.055  0.899  0.500-  50 1.42   3 1.44  19 1.44
  19  0.111  0.800  0.500-  17 1.43  14 1.44  18 1.44
  20  0.276  0.901  0.500-  28 1.42  17 1.43   1 1.43
  21  0.555  1.000  0.500-  30 1.42  23 1.42  24 1.42
  22  0.387  0.097  0.500-  26 1.41  23 1.42   4 1.42
  23  0.444  1.000  0.500-  22 1.42  28 1.42  21 1.42
  24  0.611  0.098  0.500-  25 1.41  32 1.42  21 1.42
  25  0.556  0.195  0.500-  24 1.41  52 1.42  26 1.44
  26  0.443  0.194  0.500-  51 1.41  22 1.41  25 1.44
  27  0.555  0.803  0.500-  54 1.42  30 1.42  29 1.45
  28  0.387  0.902  0.500-  29 1.41  23 1.42  20 1.42
  29  0.441  0.805  0.500-  56 1.37  28 1.41  27 1.45
  30  0.610  0.901  0.500-  21 1.42  27 1.42  48 1.43
  31  0.889  1.000  0.500-  33 1.42  50 1.44  34 1.44
  32  0.723  0.099  0.500-  24 1.42  37 1.43  33 1.44
  33  0.778  1.000  0.500-  31 1.42  32 1.44  48 1.44
  34  0.943  0.100  0.500-   2 1.42  35 1.44  31 1.44
  35  0.888  0.200  0.500-  37 1.43  34 1.44  38 1.44
  36  0.718  0.299  0.500-  52 1.42  37 1.45  41 1.46
  37  0.776  0.200  0.500-  35 1.43  32 1.43  36 1.45
  38  0.944  0.300  0.500-   6 1.43  35 1.44  39 1.45
  39  0.887  0.400  0.500-  41 1.43  38 1.45  42 1.45
  40  0.720  0.500  0.500-  53 1.40  41 1.44  45 1.44
  41  0.776  0.399  0.500-  39 1.43  40 1.44  36 1.46
  42  0.944  0.500  0.500-  10 1.44  43 1.45  39 1.45
  43  0.887  0.600  0.500-  45 1.43  46 1.44  42 1.45
  44  0.718  0.701  0.500-  54 1.42  49 1.44  45 1.46
  45  0.776  0.600  0.500-  43 1.43  40 1.44  44 1.46
  46  0.944  0.700  0.500-  14 1.43  47 1.44  43 1.44
  47  0.888  0.800  0.500-  49 1.43  50 1.44  46 1.44
  48  0.722  0.900  0.500-  30 1.43  49 1.43  33 1.44
  49  0.776  0.800  0.500-  47 1.43  48 1.43  44 1.44
  50  0.944  0.899  0.500-  18 1.42  47 1.44  31 1.44
  51  0.392  0.294  0.500-  26 1.41   8 1.42  57 1.95
  52  0.606  0.296  0.500-  25 1.42  36 1.42  57 1.98
  53  0.611  0.501  0.500-  40 1.40  58 1.84  57 1.87
  54  0.606  0.703  0.500-  27 1.42  44 1.42  58 1.99
  55  0.385  0.499  0.500-  12 1.34  57 1.83  58 1.84
  56  0.390  0.708  0.500-  29 1.37  16 1.38  58 2.01
  57  0.496  0.408  0.499-  55 1.83  53 1.87  51 1.95  52 1.98  58 2.29
  58  0.497  0.591  0.500-  53 1.84  55 1.84  54 1.99  56 2.01  57 2.29
 
  LATTYP: Found a triclinic cell.
 ALAT       =    12.5274837147
 B/A-ratio  =     1.4282534468
 C/A-ratio  =     1.5833631271
 COS(alpha) =     0.0000210840
 COS(beta)  =     0.0002811028
 COS(gamma) =     0.6995984142
  
  Lattice vectors:
  
 A1 = (  -0.0054492319,  12.5274825295,  -0.0000266245)
 A2 = (  12.7793379478,  12.5230698825,   0.0001789826)
 A3 = (  -0.0045574114,   0.0055316914, -19.8355544945)


Analysis of symmetry for initial positions (statically):
=====================================================================
 Subroutine PRICEL returns:
 Original cell was already a primitive cell.
 

 Routine SETGRP: Setting up the symmetry group for a 
 triclinic supercell.


 Subroutine GETGRP returns: Found  1 space group operations
 (whereof  1 operations were pure point group operations)
 out of a pool of  2 trial point group operations.


The static configuration has the point symmetry C_1 .


Analysis of symmetry for dynamics (positions and initial velocities):
=====================================================================
 Subroutine PRICEL returns:
 Original cell was already a primitive cell.
 

 Routine SETGRP: Setting up the symmetry group for a 
 triclinic supercell.


 Subroutine GETGRP returns: Found  1 space group operations
 (whereof  1 operations were pure point group operations)
 out of a pool of  2 trial point group operations.


The dynamic configuration has the point symmetry C_1 .


Analysis of structural, dynamic, and magnetic symmetry:
=====================================================================
 Subroutine PRICEL returns:
 Original cell was already a primitive cell.
 

 Routine SETGRP: Setting up the symmetry group for a 
 triclinic supercell.


 Subroutine GETGRP returns: Found  1 space group operations
 (whereof  1 operations were pure point group operations)
 out of a pool of  2 trial point group operations.


The magnetic configuration has the point symmetry C_1 .


 Subroutine INISYM returns: Found  1 space group operations
 (whereof  1 operations are pure point group operations),
 and found     1 'primitive' translations

 
 
 KPOINTS: KPOINTS created by Atomic Simulation Env

Automatic generation of k-mesh.
Space group operators:
 irot       det(A)        alpha          n_x          n_y          n_z        tau_x        tau_y        tau_z
    1     1.000000     0.000001     1.000000     0.000000     0.000000     0.000000     0.000000     0.000000
 
 Subroutine IBZKPT returns following result:
 ===========================================
 
 Found      2 irreducible k-points:
 
 Following reciprocal coordinates:
            Coordinates               Weight
  0.250000  0.250000  0.000000      2.000000
 -0.250000  0.250000  0.000000      2.000000
 
 Following cartesian coordinates:
            Coordinates               Weight
  0.019561  0.019965  0.000001      2.000000
 -0.019548  0.019948  0.000010      2.000000
 
 
 Subroutine IBZKPT_HF returns following result:
 ==============================================
 
 Found      4 k-points in 1st BZ
 the following      4 k-points will be used (e.g. in the exchange kernel)
 Following reciprocal coordinates:   # in IRBZ
  0.250000  0.250000  0.000000    0.25000000   1 t-inv F
 -0.250000  0.250000  0.000000    0.25000000   2 t-inv F
 -0.250000 -0.250000 -0.000000    0.25000000   1 t-inv T
  0.250000 -0.250000 -0.000000    0.25000000   2 t-inv T


--------------------------------------------------------------------------------------------------------




 Dimension of arrays:
   k-points           NKPTS =      2   k-points in BZ     NKDIM =      4   number of bands    NBANDS=    154
   number of dos      NEDOS =    301   number of ions     NIONS =     58
   non local maximal  LDIM  =      6   non local SUM 2l+1 LMDIM =     18
   total plane-waves  NPLWV = ******
   max r-space proj   IRMAX =      1   max aug-charges    IRDMAX=  16196
   dimension x,y,z NGX =    96 NGY =   96 NGZ =  150
   dimension x,y,z NGXF=   192 NGYF=  192 NGZF=  300
   support grid    NGXF=   192 NGYF=  192 NGZF=  300
   ions per type =              54   2   1   1
   NGX,Y,Z   is equivalent  to a cutoff of  12.48, 12.74, 12.57 a.u.
   NGXF,Y,Z  is equivalent  to a cutoff of  24.97, 25.48, 25.14 a.u.

 SYSTEM =  unknown system                          
 POSCAR =   C  N Fe Mn                             

 Startparameter for this run:
   NWRITE =      2    write-flag & timer
   PREC   = accura    normal or accurate (medium, high low for compatibility)
   ISTART =      1    job   : 0-new  1-cont  2-samecut
   ICHARG =      0    charge: 1-file 2-atom 10-const
   ISPIN  =      2    spin polarized calculation?
   LNONCOLLINEAR =      F non collinear calculations
   LSORBIT =      F    spin-orbit coupling
   INIWAV =      1    electr: 0-lowe 1-rand  2-diag
   LASPH  =      T    aspherical Exc in radial PAW
   METAGGA=      F    non-selfconsistent MetaGGA calc.

 Electronic Relaxation 1
   ENCUT  =  500.0 eV  36.75 Ry    6.06 a.u.  23.31 22.84 36.16*2*pi/ulx,y,z
   ENINI  =  500.0     initial cutoff
   ENAUG  =  644.9 eV  augmentation charge cutoff
   NELM   =    250;   NELMIN=  2; NELMDL=  0     # of ELM steps 
   EDIFF  = 0.1E-03   stopping-criterion for ELM
   LREAL  =      F    real-space projection
   NLSPLINE    = F    spline interpolate recip. space projectors
   LCOMPAT=      F    compatible to vasp.4.4
   GGA_COMPAT  = T    GGA compatible to vasp.4.4-vasp.4.6
   LMAXPAW     = -100 max onsite density
   LMAXMIX     =    2 max onsite mixed and CHGCAR
   VOSKOWN=      0    Vosko Wilk Nusair interpolation
   ROPT   =    0.00000   0.00000   0.00000   0.00000
 Ionic relaxation
   EDIFFG = -.3E-01   stopping-criterion for IOM
   NSW    =      0    number of steps for IOM
   NBLOCK =      1;   KBLOCK =      1    inner block; outer block 
   IBRION =     -1    ionic relax: 0-MD 1-quasi-New 2-CG
   NFREE  =      1    steps in history (QN), initial steepest desc. (CG)
   ISIF   =      2    stress and relaxation
   IWAVPR =     10    prediction:  0-non 1-charg 2-wave 3-comb
   ISYM   =      3    0-nonsym 1-usesym 2-fastsym
   LCORR  =      T    Harris-Foulkes like correction to forces

   POTIM  = 0.5000    time-step for ionic-motion
   TEIN   =    0.0    initial temperature
   TEBEG  =    0.0;   TEEND  =   0.0 temperature during run
   SMASS  =  -3.00    Nose mass-parameter (am)
   estimated Nose-frequenzy (Omega)   =  0.10E-29 period in steps =****** mass=  -0.374E-26a.u.
   SCALEE = 1.0000    scale energy and forces
   NPACO  =    256;   APACO  = 16.0  distance and # of slots for P.C.
   PSTRESS=    0.0 pullay stress

  Mass of Ions in am
   POMASS =  12.01 14.00 55.85 54.94
  Ionic Valenz
   ZVAL   =   4.00  5.00  8.00  7.00
  Atomic Wigner-Seitz radii
   RWIGS  =  -1.00 -1.00 -1.00 -1.00
  virtual crystal weights 
   VCA    =   1.00  1.00  1.00  1.00
   NELECT =     241.0000    total number of electrons
   NUPDOWN=      -1.0000    fix difference up-down

 DOS related values:
   EMIN   =  10.00;   EMAX   =-10.00  energy-range for DOS
   EFERMI =   0.00
   ISMEAR =     0;   SIGMA  =   0.10  broadening in eV -4-tet -1-fermi 0-gaus

 Electronic relaxation 2 (details)
   IALGO  =     53    algorithm
   LDIAG  =      T    sub-space diagonalisation (order eigenvalues)
   LSUBROT=      F    optimize rotation matrix (better conditioning)
   TURBO    =      0    0=normal 1=particle mesh
   IRESTART =      0    0=no restart 2=restart with 2 vectors
   NREBOOT  =      0    no. of reboots
   NMIN     =      0    reboot dimension
   EREF     =   0.00    reference energy to select bands
   IMIX   =      4    mixing-type and parameters
     AMIX     =   0.40;   BMIX     =  1.00
     AMIX_MAG =   1.60;   BMIX_MAG =  1.00
     AMIN     =   0.10
     WC   =   100.;   INIMIX=   1;  MIXPRE=   1;  MAXMIX= -45

 Intra band minimization:
   WEIMIN = 0.0000     energy-eigenvalue tresh-hold
   EBREAK =  0.16E-06  absolut break condition
   DEPER  =   0.30     relativ break condition  

   TIME   =   0.20     timestep for ELM

  volume/ion in A,a.u.               =      54.77       369.63
  Fermi-wavevector in a.u.,A,eV,Ry     =   0.693021  1.309621  6.534588  0.480279
  Thomas-Fermi vector in A             =   1.775118
 
 Write flags
   LWAVE        =      T    write WAVECAR
   LDOWNSAMPLE  =      F    k-point downsampling of WAVECAR
   LCHARG       =      T    write CHGCAR
   LVTOT        =      F    write LOCPOT, total local potential
   LVHAR        =      F    write LOCPOT, Hartree potential only
   LELF         =      F    write electronic localiz. function (ELF)
   LORBIT       =     11    0 simple, 1 ext, 2 COOP (PROOUT), +10 PAW based schemes


 Dipole corrections
   LMONO  =      F    monopole corrections only (constant potential shift)
   LDIPOL =      T    correct potential (dipole corrections)
   IDIPOL =      3    1-x, 2-y, 3-z, 4-all directions 
   EPSILON=  1.0000000 bulk dielectric constant

 Exchange correlation treatment:
   GGA     =    PE    GGA type
   LEXCH   =     8    internal setting for exchange type
   VOSKOWN=      0    Vosko Wilk Nusair interpolation
   EXXOEP  =     0    0=HF, 1=EXX-LHF (local Hartree Fock) 2=EXX OEP
   LHFCALC =     T    Hartree Fock is set to
   LSYMGRAD=     F    symmetrize gradient (conserves proper symmetry)
   PRECFOCK=normal    Normal, Fast or Accurate (Low or Medium for compatibility)
   LRHFCALC=     F    long range Hartree Fock
   LRSCOR  =     F    long range correlation only (use DFT for short range part)
   LTHOMAS =     F    Thomas Fermi screening in HF
   LMODELHF=     F    short range full HF, long range fraction AEXX
   ENCUT4O =  -1.0   cutoff for four orbital integrals eV
   LMAXFOCK=     4    L truncation for augmentation on plane wave grid
   LMAXFOCKAE=  -1    L truncation for all-electron charge restoration on plane wave grid
   NMAXFOCKAE=   1    number of basis functions for all-electron charge restoration
   LFOCKAEDFT=     F  apply the AE augmentation even for DFT
   NKREDX  =     1    reduce k-point grid by
   NKREDY  =     1    reduce k-point grid by
   NKREDZ  =     1    reduce k-point grid by
   SHIFTRED=     F    shift reduced grid of Gamma
   HFKIDENT=     F    idential grid for each k-point
   ODDONLY =     F    use only odd q-grid points
   EVENONLY=     F    use only even q-grid points
   HFALPHA =   -1.0000 decay constant for conv. correction
   MCALPHA =    0.0000 extent of test-charge in conv. correction in multipole expansion
   AEXX    =    0.2500 exact exchange contribution
   HFSCREEN=    0.2000 screening length (either q_TF or 0.3 A-1)
   HFSCREENC=   0.2000 screening length for correlation (either q_TF or 0.3 A-1)
   HFRCUT  =    0.0000 spherical cutoff for potential kernel
   ALDAX   =    0.7500 LDA exchange part
   AGGAX   =    0.7500 GGA exchange part
   ALDAC   =    1.0000 LDA correlation
   AGGAC   =    1.0000 GGA correlation
   ENCUTFOCK=  -1.0 apply spherical cutoff to Coloumb kernel
   NBANDSGWLOW=     1    first orbital included in HF term
   NBLOCK_FOCK=    64    blocking factor in FOCK_ACC
 Linear response parameters
   LEPSILON=     F    determine dielectric tensor
   LRPA    =     F    only Hartree local field effects (RPA)
   LNABLA  =     F    use nabla operator in PAW spheres
   LVEL    =     F    velocity operator in full k-point grid
   LINTERFAST=   F  fast interpolation
   KINTER  =     0    interpolate to denser k-point grid
   CSHIFT  =0.1000    complex shift for real part using Kramers Kronig
   OMEGAMAX=  -1.0    maximum frequency
   DEG_THRESHOLD= 0.2000000E-02 threshold for treating states as degnerate
   RTIME   =   -0.100 relaxation time in fs
  (WPLASMAI=    0.000 imaginary part of plasma frequency in eV, 0.658/RTIME)
   DFIELD  = 0.0000000 0.0000000 0.0000000 field for delta impulse in time
 
 Orbital magnetization related:
   ORBITALMAG=     F  switch on orbital magnetization
   LCHIMAG   =     F  perturbation theory with respect to B field
   DQ        =  0.001000  dq finite difference perturbation B field
   LLRAUG    =     F  two centre corrections for induced B field



--------------------------------------------------------------------------------------------------------


 Static calculation
 charge density and potential will be updated during run
 spin polarized calculation
 Conjugate gradient for all bands (Freysoldt, et al. PRB 79, 241103 (2009))
 perform sub-space diagonalisation
    before iterative eigenvector-optimisation
 modified Broyden-mixing scheme, WC =      100.0
 initial mixing is a Kerker type mixing with AMIX =  0.4000 and BMIX =      1.0000
 Hartree-type preconditioning will be used
 using additional bands           33
 reciprocal scheme for non local part
 use partial core corrections
 no Harris-corrections to forces 
 use gradient corrections 
 use of overlap-Matrix (Vanderbilt PP)
 Gauss-broadening in eV      SIGMA  =   0.10


--------------------------------------------------------------------------------------------------------


  energy-cutoff  :      500.00
  volume of cell :     3176.89
      direct lattice vectors                 reciprocal lattice vectors
    12.784787180 -0.004412647  0.000205607     0.078217974  0.000034023 -0.000017962
    -0.005449232 12.527482530 -0.000026625     0.000027551  0.079824510  0.000022255
     0.004557411 -0.005531691 19.835554494    -0.000000811  0.000000107  0.050414522

  length of vectors
    12.784787943 12.527483715 19.835555789     0.078217984  0.079824518  0.050414522


 
 old parameters found on file WAVECAR:
  energy-cutoff  :      500.00
  volume of cell :     3176.89
      direct lattice vectors                 reciprocal lattice vectors
    12.695700000  0.000000000  0.000000000     0.078766827  0.000007011 -0.000016495
    -0.001110155 12.471999951  0.000000000     0.000000000  0.080179603  0.000021829
     0.004202111 -0.005462370 20.063598816     0.000000000  0.000000000  0.049841507

  length of vectors

 
 k-points in units of 2pi/SCALE and weight: KPOINTS created by Atomic Simulation Env
   0.01956138  0.01996463  0.00000107       0.500
  -0.01954761  0.01994762  0.00001005       0.500
 
 k-points in reciprocal lattice and weights: KPOINTS created by Atomic Simulation Env
   0.25000000  0.25000000  0.00000000       0.500
  -0.25000000  0.25000000  0.00000000       0.500
 
 position of ions in fractional coordinates (direct lattice) 
   0.21999547  0.00014700  0.50001863
   0.05469261  0.10027364  0.50001270
   0.10928398  0.99984487  0.50000577
   0.27604735  0.09923358  0.50000694
   0.22247914  0.19954051  0.49998328
   0.05526621  0.29993758  0.50002316
   0.11069716  0.19990341  0.50001237
   0.28107329  0.29853028  0.49989416
   0.22368893  0.39890705  0.49990500
   0.05636868  0.50039669  0.50002494
   0.11222453  0.39994741  0.49999979
   0.28003596  0.49949914  0.49982649
   0.22567855  0.60134190  0.49996377
   0.05563827  0.69981656  0.50002791
   0.11324249  0.60062699  0.50002008
   0.28212424  0.70286240  0.49998616
   0.22254065  0.80079504  0.50001280
   0.05490779  0.89937919  0.49999881
   0.11073856  0.79975799  0.50000986
   0.27568343  0.90112918  0.50002369
   0.55502189  0.99955713  0.50004298
   0.38733198  0.09714220  0.49999884
   0.44376313  0.99954688  0.50004141
   0.61139585  0.09767079  0.50000388
   0.55586205  0.19519545  0.49990513
   0.44305065  0.19428506  0.49990602
   0.55460061  0.80316564  0.50001843
   0.38688889  0.90208555  0.50004154
   0.44133766  0.80459384  0.50002144
   0.61041389  0.90131298  0.50004184
   0.88875096  0.99968324  0.50000689
   0.72255350  0.09918673  0.50001330
   0.77795326  0.99960572  0.50002091
   0.94334608  0.10027616  0.50001424
   0.88780489  0.20007773  0.50001713
   0.71754245  0.29892884  0.49990411
   0.77597400  0.19989205  0.49999216
   0.94380200  0.29991122  0.50002556
   0.88741032  0.39986831  0.50000601
   0.72037805  0.49976669  0.49985775
   0.77571173  0.39941758  0.49991727
   0.94395218  0.50019004  0.50002736
   0.88729200  0.60007988  0.50002251
   0.71768826  0.70093275  0.49998730
   0.77555353  0.60038399  0.49996783
   0.94388356  0.69979912  0.50002855
   0.88798527  0.79960753  0.50001126
   0.72193975  0.90007066  0.50002476
   0.77595566  0.79978367  0.50001581
   0.94353340  0.89932714  0.49999906
   0.39199198  0.29391720  0.49980769
   0.60624933  0.29619594  0.49980006
   0.61077697  0.50075144  0.49963753
   0.60635967  0.70336264  0.49995708
   0.38452896  0.49850498  0.49958510
   0.39003327  0.70838021  0.49997530
   0.49645560  0.40769273  0.49941710
   0.49689944  0.59055986  0.49967256
 
 position of ions in cartesian coordinates  (Angst):
   2.81487321 -0.00189517  9.91819210
   0.70096569  1.25316901  9.91803778
   1.39400278 12.52229109  9.91788764
   3.53094459  1.23916302  9.91796894
   2.84553980  2.49599277  9.91748606
   0.70721116  3.75445294  9.91823992
   1.41642910  2.50103205  9.91804002
   3.59411370  3.73582733  9.91572761
   2.85991991  4.99354868  9.91592832
   0.72021362  6.26569610  9.91827015
   1.43486600  5.00707310  9.91778546
   3.57975620  6.25346621  9.91437978
   2.88425393  7.52953865  9.91708904
   0.70978878  8.76392821  9.91832357
   1.44678698  7.52107846  9.91818290
   3.60534689  8.80108575  9.91754201
   2.84304996 10.02819797  9.91805564
   0.69936219 11.26394900  9.91774103
   1.41368966 10.01569968  9.91797428
   3.52192237 11.28489764  9.91827978
   7.09266889 12.51671923  9.91871721
   4.95370633  1.21247227  9.91783133
   5.67024935 12.51708187  9.91866327
   7.81831230  1.21810541  9.91797723
   7.10779258  2.44008942  9.91600453
   5.66552787  2.42918236  9.91599894
   7.08835289 10.05643036  9.91823554
   4.94365534 11.29638773  9.91865675
   5.64030241 10.07482182  9.91827177
   7.80137914 11.28572303  9.91870876
  11.35932316 12.51682664  9.91807004
   9.23943106  1.23660570  9.91818703
   9.94279864 12.51634442  9.91832539
  12.06221116  1.24927927  9.91825100
  11.35158503  2.49978674  9.91829431
   9.17427679  3.73889430  9.91601471
   9.92185192  2.49795430  9.91777601
  12.06695228  3.75020195  9.91847028
  11.34545180  5.00266155  9.91806825
   9.20943476  6.25487470  9.91509048
   9.91741121  4.99750842  9.91628514
  12.06778094  6.25919073  9.91850076
  11.34284816  7.51080892  9.91839017
   9.17395077  8.77499013  9.91765421
   9.91429378  7.51511206  9.91728267
  12.06581593  8.75979016  9.91851893
  11.35062423 10.01038511  9.91816194
   9.22722021 11.26966782  9.91839286
   9.91834848 10.01308598  9.91822901
  12.06025175 11.25937569  9.91792874
   5.01221029  3.67754804  9.91403542
   7.75143248  3.70514957  9.91392803
   7.80820195  6.26769598  9.91069961
   7.75062511  8.80592189  9.91703184
   4.91568121  6.24055207  9.90961323
   4.98491087  8.86973391  9.91734863
   6.34713361  5.10241020  9.90630641
   6.35181276  7.39327164  9.91136871
 


--------------------------------------------------------------------------------------------------------


 k-point  1 :   0.2500 0.2500 0.0000  plane waves:   80668
 k-point  2 :  -0.2500 0.2500 0.0000  plane waves:   80656

 maximum and minimum number of plane-waves per node :      2552     2490

 maximum number of plane-waves:     80668
 maximum index in each direction: 
   IXMAX=   23   IYMAX=   22   IZMAX=   36
   IXMIN=  -23   IYMIN=  -23   IZMIN=  -36


 parallel 3D FFT for wavefunctions:
    minimum data exchange during FFTs selected (reduces bandwidth)
 parallel 3D FFT for charge:
    minimum data exchange during FFTs selected (reduces bandwidth)


 FFT grid for exact exchange (Hartree Fock) 
  NGX = 70; NGY = 70; NGZ =112

 
 Radii for the augmentation spheres in the non-local exchange
 for species   1 augmentation radius   0.874 (default was   0.699)
       energy cutoff for augmentation   2000.0
 for species   2 augmentation radius   0.886 (default was   0.709)
       energy cutoff for augmentation   2000.0
 for species   3 augmentation radius   1.263 (default was   1.010)
       energy cutoff for augmentation   2000.0
 for species   4 augmentation radius   1.276 (default was   1.021)
       energy cutoff for augmentation   2000.0

 real space projection operators:
  total allocation   :       2450.23 KBytes
  max/ min on nodes  :        129.51         39.23

 Maximum index for augmentation-charges in exchange          135
  SETUP_FOCK is finished

 total amount of memory used by VASP MPI-rank0   164642. kBytes
=======================================================================

   base      :      30000. kBytes
   nonl-proj :       5324. kBytes
   fftplans  :      14250. kBytes
   grid      :      36827. kBytes
   one-center:         62. kBytes
   HF        :         23. kBytes
   nonlr-proj:       1695. kBytes
   wavefun   :      76461. kBytes
 
     INWAV:  cpu time    3.5039: real time    3.5046
 Broyden mixing: mesh for mixing (old mesh)
   NGX = 47   NGY = 45   NGZ = 73
  (NGX  =192   NGY  =192   NGZ  =300)
  gives a total of 154395 points

 charge density for first step will be calculated from the start-wavefunctions


--------------------------------------------------------------------------------------------------------


 Maximum index for augmentation-charges          759 (set IRDMAX)


--------------------------------------------------------------------------------------------------------


 initial charge from wavefunction
 First call to EWALD:  gamma=   0.121
 Maximum number of real-space cells 3x 3x 2
 Maximum number of reciprocal cells 2x 2x 4

    FEWALD:  cpu time    0.0039: real time    0.0039


--------------------------------------- Iteration      1(   1)  ---------------------------------------


    POTLOK:  cpu time    1.3700: real time    1.3703
    SETDIJ:  cpu time    2.0891: real time    2.0894
    TRIAL :  cpu time  510.3140: real time  510.3813
    CORREC:  cpu time    0.0020: real time    0.0023
    CHARGE:  cpu time    1.6675: real time    1.6676
    --------------------------------------------
      LOOP:  cpu time  515.4591: real time  515.5294

 eigenvalue-minimisations  :     0
 total energy-change (2. order) :-0.6084769E+03  (-0.4246415E+00)
 number of electron     240.9999994 magnetization       4.9924480
 augmentation part       12.6103525 magnetization       3.3888273

 DIPCOR: dipole corrections for dipol
 direction  3 min pos     1,
 dipolmoment           0.000000     -0.000001      0.001892 electrons x Angstroem
 Tr[quadrupol]     -6559.254717

 energy correction for charged system         0.000000 eV
 dipol+quadrupol energy correction            0.000000 eV
 added-field ion interaction          0.000000 eV  (added to PSCEN)


 Free energy of the ion-electron system (eV)
  ---------------------------------------------------
  alpha Z        PSCENC =        99.93393459
  Ewald energy   TEWEN  =     37644.21784352
  -Hartree energ DENC   =    -45742.11930261
  -exchange      EXHF   =       537.56964856
  -V(xc)+E(xc)   XCENC  =       592.36627320
  PAW double counting   =     25584.00301130   -25610.58589400
  entropy T*S    EENTRO =        -0.00156028
  eigenvalues    EBANDS =     -3088.18526914
  atomic energy  EATOM  =      9374.32688621
  ---------------------------------------------------
  free energy    TOTEN  =      -608.47692376 eV

  energy without entropy =     -608.47536348  energy(sigma->0) =     -608.47614362
  exchange ACFDT corr.  =        -0.00481311  see jH, gK, PRB 81, 115126


--------------------------------------------------------------------------------------------------------




--------------------------------------- Iteration      1(   2)  ---------------------------------------


    POTLOK:  cpu time    1.3974: real time    1.3973
    SETDIJ:  cpu time    2.0865: real time    2.0866
    TRIAL :  cpu time  509.9274: real time  509.9988
    CORREC:  cpu time    0.0020: real time    0.0022
    CHARGE:  cpu time    1.6643: real time    1.6644
    --------------------------------------------
      LOOP:  cpu time  515.0834: real time  515.1561

 eigenvalue-minimisations  :     0
 total energy-change (2. order) :-0.3497310E+00  (-0.3723360E+00)
 number of electron     240.9999994 magnetization       4.9984556
 augmentation part       12.5872565 magnetization       3.4861502

 DIPCOR: dipole corrections for dipol
 direction  3 min pos     1,
 dipolmoment           0.000001     -0.000001      0.002191 electrons x Angstroem
 Tr[quadrupol]     -6559.045983

 energy correction for charged system         0.000000 eV
 dipol+quadrupol energy correction            0.000000 eV
 added-field ion interaction          0.000000 eV  (added to PSCEN)


 Free energy of the ion-electron system (eV)
  ---------------------------------------------------
  alpha Z        PSCENC =        99.93393462
  Ewald energy   TEWEN  =     37644.21784352
  -Hartree energ DENC   =    -45723.77203608
  -exchange      EXHF   =       537.38902774
  -V(xc)+E(xc)   XCENC  =       591.97562093
  PAW double counting   =     25710.13688135   -25736.00837472
  entropy T*S    EENTRO =        -0.00037768
  eigenvalues    EBANDS =     -3107.02487801
  atomic energy  EATOM  =      9374.32688621
  ---------------------------------------------------
  free energy    TOTEN  =      -608.82665472 eV

  energy without entropy =     -608.82627704  energy(sigma->0) =     -608.82646588
  exchange ACFDT corr.  =        -0.00158456  see jH, gK, PRB 81, 115126


--------------------------------------------------------------------------------------------------------




--------------------------------------- Iteration      1(   3)  ---------------------------------------


    POTLOK:  cpu time    1.4073: real time    1.4073
    SETDIJ:  cpu time    2.1122: real time    2.1121
    TRIAL :  cpu time  507.5640: real time  507.6383
    CORREC:  cpu time    0.0019: real time    0.0021
    CHARGE:  cpu time    1.6553: real time    1.6554
    --------------------------------------------
      LOOP:  cpu time  512.7434: real time  512.8181

 eigenvalue-minimisations  :     0
 total energy-change (2. order) :-0.2922004E+00  (-0.2221543E+00)
 number of electron     240.9999994 magnetization       4.9997927
 augmentation part       12.5909442 magnetization       3.5751152

 DIPCOR: dipole corrections for dipol
 direction  3 min pos     1,
 dipolmoment           0.000001     -0.000001      0.002371 electrons x Angstroem
 Tr[quadrupol]     -6558.849267

 energy correction for charged system         0.000000 eV
 dipol+quadrupol energy correction            0.000000 eV
 added-field ion interaction          0.000000 eV  (added to PSCEN)


 Free energy of the ion-electron system (eV)
  ---------------------------------------------------
  alpha Z        PSCENC =        99.93393464
  Ewald energy   TEWEN  =     37644.21784352
  -Hartree energ DENC   =    -45707.53565387
  -exchange      EXHF   =       537.28613028
  -V(xc)+E(xc)   XCENC  =       591.62836531
  PAW double counting   =     25877.92112129   -25903.62982504
  entropy T*S    EENTRO =        -0.00006151
  eigenvalues    EBANDS =     -3123.26727981
  atomic energy  EATOM  =      9374.32688621
  ---------------------------------------------------
  free energy    TOTEN  =      -609.11885514 eV

  energy without entropy =     -609.11879364  energy(sigma->0) =     -609.11882439
  exchange ACFDT corr.  =        -0.00032001  see jH, gK, PRB 81, 115126


--------------------------------------------------------------------------------------------------------




--------------------------------------- Iteration      1(   4)  ---------------------------------------


    POTLOK:  cpu time    1.4094: real time    1.4094
    SETDIJ:  cpu time    2.0804: real time    2.0805
    TRIAL :  cpu time  507.0191: real time  507.0656
    CORREC:  cpu time    0.0018: real time    0.0020
    CHARGE:  cpu time    1.6536: real time    1.6536
    --------------------------------------------
      LOOP:  cpu time  512.1673: real time  512.2142

 eigenvalue-minimisations  :     0
 total energy-change (2. order) :-0.1741657E+00  (-0.1357954E+00)
 number of electron     240.9999994 magnetization       4.9999828
 augmentation part       12.5934534 magnetization       3.6441465

 DIPCOR: dipole corrections for dipol
 direction  3 min pos     1,
 dipolmoment           0.000001     -0.000001      0.002452 electrons x Angstroem
 Tr[quadrupol]     -6558.766829

 energy correction for charged system         0.000000 eV
 dipol+quadrupol energy correction            0.000000 eV
 added-field ion interaction          0.000000 eV  (added to PSCEN)


 Free energy of the ion-electron system (eV)
  ---------------------------------------------------
  alpha Z        PSCENC =        99.93393465
  Ewald energy   TEWEN  =     37644.21784352
  -Hartree energ DENC   =    -45700.47066056
  -exchange      EXHF   =       537.38801070
  -V(xc)+E(xc)   XCENC  =       591.51026607
  PAW double counting   =     26023.89651468   -26049.78018433
  entropy T*S    EENTRO =        -0.00000677
  eigenvalues    EBANDS =     -3130.31557028
  atomic energy  EATOM  =      9374.32688621
  ---------------------------------------------------
  free energy    TOTEN  =      -609.29302085 eV

  energy without entropy =     -609.29301408  energy(sigma->0) =     -609.29301746
  exchange ACFDT corr.  =        -0.00004331  see jH, gK, PRB 81, 115126


--------------------------------------------------------------------------------------------------------




--------------------------------------- Iteration      1(   5)  ---------------------------------------


    POTLOK:  cpu time    1.4097: real time    1.4097
    SETDIJ:  cpu time    2.0711: real time    2.0818
    TRIAL :  cpu time  507.3765: real time  507.4416
    CORREC:  cpu time    0.0016: real time    0.0018
    CHARGE:  cpu time    1.6520: real time    1.6520
    --------------------------------------------
      LOOP:  cpu time  512.5133: real time  512.5894

 eigenvalue-minimisations  :     0
 total energy-change (2. order) :-0.1129760E+00  (-0.9634731E-01)
 number of electron     240.9999994 magnetization       4.9999992
 augmentation part       12.5916939 magnetization       3.6959832

 DIPCOR: dipole corrections for dipol
 direction  3 min pos     1,
 dipolmoment           0.000001     -0.000001      0.002585 electrons x Angstroem
 Tr[quadrupol]     -6558.779145

 energy correction for charged system         0.000000 eV
 dipol+quadrupol energy correction            0.000000 eV
 added-field ion interaction          0.000000 eV  (added to PSCEN)


 Free energy of the ion-electron system (eV)
  ---------------------------------------------------
  alpha Z        PSCENC =        99.93393467
  Ewald energy   TEWEN  =     37644.21784352
  -Hartree energ DENC   =    -45700.30806757
  -exchange      EXHF   =       537.63801536
  -V(xc)+E(xc)   XCENC  =       591.57931291
  PAW double counting   =     26128.16131506   -26154.13543874
  entropy T*S    EENTRO =        -0.00000064
  eigenvalues    EBANDS =     -3130.81979147
  atomic energy  EATOM  =      9374.32688621
  ---------------------------------------------------
  free energy    TOTEN  =      -609.40599681 eV

  energy without entropy =     -609.40599617  energy(sigma->0) =     -609.40599649
  exchange ACFDT corr.  =        -0.00000397  see jH, gK, PRB 81, 115126


--------------------------------------------------------------------------------------------------------




--------------------------------------- Iteration      1(   6)  ---------------------------------------


    POTLOK:  cpu time    1.4101: real time    1.4103
    SETDIJ:  cpu time    2.0932: real time    2.0933
    TRIAL :  cpu time  507.5447: real time  507.5947
    CORREC:  cpu time    0.0014: real time    0.0014
    CHARGE:  cpu time    1.6619: real time    1.6621
    --------------------------------------------
      LOOP:  cpu time  512.7140: real time  512.7645

 eigenvalue-minimisations  :     0
 total energy-change (2. order) :-0.8264465E-01  (-0.6858837E-01)
 number of electron     240.9999994 magnetization       5.0000002
 augmentation part       12.5928903 magnetization       3.7381443

 DIPCOR: dipole corrections for dipol
 direction  3 min pos     1,
 dipolmoment           0.000001     -0.000001      0.002720 electrons x Angstroem
 Tr[quadrupol]     -6558.827479

 energy correction for charged system         0.000000 eV
 dipol+quadrupol energy correction            0.000000 eV
 added-field ion interaction          0.000000 eV  (added to PSCEN)


 Free energy of the ion-electron system (eV)
  ---------------------------------------------------
  alpha Z        PSCENC =        99.93393469
  Ewald energy   TEWEN  =     37644.21784352
  -Hartree energ DENC   =    -45703.00109342
  -exchange      EXHF   =       537.92214014
  -V(xc)+E(xc)   XCENC  =       591.72644050
  PAW double counting   =     26195.05091632   -26221.01512307
  entropy T*S    EENTRO =        -0.00000007
  eigenvalues    EBANDS =     -3128.65058572
  atomic energy  EATOM  =      9374.32688621
  ---------------------------------------------------
  free energy    TOTEN  =      -609.48864147 eV

  energy without entropy =     -609.48864140  energy(sigma->0) =     -609.48864143
  exchange ACFDT corr.  =        -0.00000032  see jH, gK, PRB 81, 115126


--------------------------------------------------------------------------------------------------------




--------------------------------------- Iteration      1(   7)  ---------------------------------------


    POTLOK:  cpu time    1.4023: real time    1.4023
    SETDIJ:  cpu time    2.1600: real time    2.1600
    TRIAL :  cpu time  507.2621: real time  507.2888
    CORREC:  cpu time    0.0015: real time    0.0017
    CHARGE:  cpu time    1.6528: real time    1.6528
    --------------------------------------------
      LOOP:  cpu time  512.4812: real time  512.5099

 eigenvalue-minimisations  :     0
 total energy-change (2. order) :-0.6006996E-01  (-0.4981617E-01)
 number of electron     240.9999994 magnetization       5.0000003
 augmentation part       12.5985707 magnetization       3.7757896

 DIPCOR: dipole corrections for dipol
 direction  3 min pos     1,
 dipolmoment           0.000001     -0.000001      0.002794 electrons x Angstroem
 Tr[quadrupol]     -6558.872529

 energy correction for charged system         0.000000 eV
 dipol+quadrupol energy correction            0.000000 eV
 added-field ion interaction          0.000000 eV  (added to PSCEN)


 Free energy of the ion-electron system (eV)
  ---------------------------------------------------
  alpha Z        PSCENC =        99.93393471
  Ewald energy   TEWEN  =     37644.21784352
  -Hartree energ DENC   =    -45706.01172279
  -exchange      EXHF   =       538.16767723
  -V(xc)+E(xc)   XCENC  =       591.87589026
  PAW double counting   =     26235.85394831   -26261.83487827
  entropy T*S    EENTRO =        -0.00000001
  eigenvalues    EBANDS =     -3126.07829053
  atomic energy  EATOM  =      9374.32688621
  ---------------------------------------------------
  free energy    TOTEN  =      -609.54871143 eV

  energy without entropy =     -609.54871142  energy(sigma->0) =     -609.54871142
  exchange ACFDT corr.  =        -0.00000003  see jH, gK, PRB 81, 115126


--------------------------------------------------------------------------------------------------------




--------------------------------------- Iteration      1(   8)  ---------------------------------------


    POTLOK:  cpu time    1.4024: real time    1.4025
    SETDIJ:  cpu time    2.0812: real time    2.0812
    TRIAL :  cpu time  507.0044: real time  507.0354
    CORREC:  cpu time    0.0012: real time    0.0015
    CHARGE:  cpu time    1.6519: real time    1.6520
    --------------------------------------------
      LOOP:  cpu time  512.1435: real time  512.1749

 eigenvalue-minimisations  :     0
 total energy-change (2. order) :-0.4464602E-01  (-0.3756468E-01)
 number of electron     240.9999994 magnetization       5.0000003
 augmentation part       12.6050187 magnetization       3.8102192

 DIPCOR: dipole corrections for dipol
 direction  3 min pos     1,
 dipolmoment           0.000001     -0.000001      0.002818 electrons x Angstroem
 Tr[quadrupol]     -6558.899766

 energy correction for charged system         0.000000 eV
 dipol+quadrupol energy correction            0.000000 eV
 added-field ion interaction          0.000000 eV  (added to PSCEN)


 Free energy of the ion-electron system (eV)
  ---------------------------------------------------
  alpha Z        PSCENC =        99.93393471
  Ewald energy   TEWEN  =     37644.21784352
  -Hartree energ DENC   =    -45708.17462734
  -exchange      EXHF   =       538.35146490
  -V(xc)+E(xc)   XCENC  =       591.99447816
  PAW double counting   =     26259.84502556   -26285.90164331
  entropy T*S    EENTRO =        -0.00000000
  eigenvalues    EBANDS =     -3124.18671985
  atomic energy  EATOM  =      9374.32688621
  ---------------------------------------------------
  free energy    TOTEN  =      -609.59335745 eV

  energy without entropy =     -609.59335745  energy(sigma->0) =     -609.59335745
  exchange ACFDT corr.  =        -0.00000000  see jH, gK, PRB 81, 115126


--------------------------------------------------------------------------------------------------------




--------------------------------------- Iteration      1(   9)  ---------------------------------------


    POTLOK:  cpu time    1.3977: real time    1.3982
    SETDIJ:  cpu time    2.1827: real time    2.1830
    TRIAL :  cpu time  508.1116: real time  508.3192
    CORREC:  cpu time    0.0012: real time    0.0015
    CHARGE:  cpu time    1.6531: real time    1.6536
    --------------------------------------------
      LOOP:  cpu time  513.3488: real time  513.5579

 eigenvalue-minimisations  :     0
 total energy-change (2. order) :-0.3415073E-01  (-0.2894135E-01)
 number of electron     240.9999994 magnetization       5.0000003
 augmentation part       12.6092505 magnetization       3.8412690

 DIPCOR: dipole corrections for dipol
 direction  3 min pos     1,
 dipolmoment           0.000001     -0.000001      0.002831 electrons x Angstroem
 Tr[quadrupol]     -6558.909971

 energy correction for charged system         0.000000 eV
 dipol+quadrupol energy correction            0.000000 eV
 added-field ion interaction          0.000000 eV  (added to PSCEN)


 Free energy of the ion-electron system (eV)
  ---------------------------------------------------
  alpha Z        PSCENC =        99.93393471
  Ewald energy   TEWEN  =     37644.21784352
  -Hartree energ DENC   =    -45709.22843757
  -exchange      EXHF   =       538.47949706
  -V(xc)+E(xc)   XCENC  =       592.07713484
  PAW double counting   =     26273.29199293   -26299.43689292
  entropy T*S    EENTRO =        -0.00000000
  eigenvalues    EBANDS =     -3123.28946696
  atomic energy  EATOM  =      9374.32688621
  ---------------------------------------------------
  free energy    TOTEN  =      -609.62750818 eV

  energy without entropy =     -609.62750818  energy(sigma->0) =     -609.62750818
  exchange ACFDT corr.  =        -0.00000000  see jH, gK, PRB 81, 115126


--------------------------------------------------------------------------------------------------------




--------------------------------------- Iteration      1(  10)  ---------------------------------------


    POTLOK:  cpu time    1.3909: real time    1.3914
    SETDIJ:  cpu time    2.0803: real time    2.0806
    TRIAL :  cpu time  507.9819: real time  508.1883
    CORREC:  cpu time    0.0012: real time    0.0014
    CHARGE:  cpu time    1.6503: real time    1.6508
    --------------------------------------------
      LOOP:  cpu time  513.1072: real time  513.3150

 eigenvalue-minimisations  :     0
 total energy-change (2. order) :-0.2660776E-01  (-0.2276072E-01)
 number of electron     240.9999994 magnetization       5.0000003
 augmentation part       12.6110829 magnetization       3.8689677

 DIPCOR: dipole corrections for dipol
 direction  3 min pos     1,
 dipolmoment           0.000001     -0.000001      0.002852 electrons x Angstroem
 Tr[quadrupol]     -6558.909811

 energy correction for charged system         0.000000 eV
 dipol+quadrupol energy correction            0.000000 eV
 added-field ion interaction          0.000000 eV  (added to PSCEN)


 Free energy of the ion-electron system (eV)
  ---------------------------------------------------
  alpha Z        PSCENC =        99.93393472
  Ewald energy   TEWEN  =     37644.21784352
  -Hartree energ DENC   =    -45709.44715764
  -exchange      EXHF   =       538.56895750
  -V(xc)+E(xc)   XCENC  =       592.13282666
  PAW double counting   =     26280.36927605   -26306.57741826
  entropy T*S    EENTRO =        -0.00000000
  eigenvalues    EBANDS =     -3123.17926470
  atomic energy  EATOM  =      9374.32688621
  ---------------------------------------------------
  free energy    TOTEN  =      -609.65411594 eV

  energy without entropy =     -609.65411594  energy(sigma->0) =     -609.65411594
  exchange ACFDT corr.  =        -0.00000000  see jH, gK, PRB 81, 115126


--------------------------------------------------------------------------------------------------------




--------------------------------------- Iteration      1(  11)  ---------------------------------------


    POTLOK:  cpu time    1.3906: real time    1.3911
    SETDIJ:  cpu time    2.0786: real time    2.0790
    TRIAL :  cpu time  507.9070: real time  508.0262
    CORREC:  cpu time    0.0012: real time    0.0014
    CHARGE:  cpu time    1.6585: real time    1.6586
    --------------------------------------------
      LOOP:  cpu time  513.0380: real time  513.1585

 eigenvalue-minimisations  :     0
 total energy-change (2. order) :-0.2111837E-01  (-0.1819187E-01)
 number of electron     240.9999994 magnetization       5.0000003
 augmentation part       12.6118757 magnetization       3.8937641

 DIPCOR: dipole corrections for dipol
 direction  3 min pos     1,
 dipolmoment           0.000001     -0.000001      0.002880 electrons x Angstroem
 Tr[quadrupol]     -6558.905757

 energy correction for charged system         0.000000 eV
 dipol+quadrupol energy correction            0.000000 eV
 added-field ion interaction          0.000000 eV  (added to PSCEN)


 Free energy of the ion-electron system (eV)
  ---------------------------------------------------
  alpha Z        PSCENC =        99.93393472
  Ewald energy   TEWEN  =     37644.21784352
  -Hartree energ DENC   =    -45709.26687347
  -exchange      EXHF   =       538.63635038
  -V(xc)+E(xc)   XCENC  =       592.17338928
  PAW double counting   =     26283.95755435   -26310.20182928
  entropy T*S    EENTRO =        -0.00000000
  eigenvalues    EBANDS =     -3123.45249002
  atomic energy  EATOM  =      9374.32688621
  ---------------------------------------------------
  free energy    TOTEN  =      -609.67523431 eV

  energy without entropy =     -609.67523431  energy(sigma->0) =     -609.67523431
  exchange ACFDT corr.  =        -0.00000000  see jH, gK, PRB 81, 115126


--------------------------------------------------------------------------------------------------------




--------------------------------------- Iteration      1(  12)  ---------------------------------------


    POTLOK:  cpu time    1.3821: real time    1.3821
    SETDIJ:  cpu time    2.1501: real time    2.1502
    TRIAL :  cpu time  508.0287: real time  508.0681
    CORREC:  cpu time    0.0012: real time    0.0015
    CHARGE:  cpu time    1.6516: real time    1.6517
    --------------------------------------------
      LOOP:  cpu time  513.2159: real time  513.2556

 eigenvalue-minimisations  :     0
 total energy-change (2. order) :-0.1699835E-01  (-0.1471961E-01)
 number of electron     240.9999994 magnetization       5.0000003
 augmentation part       12.6128248 magnetization       3.9162056

 DIPCOR: dipole corrections for dipol
 direction  3 min pos     1,
 dipolmoment           0.000001     -0.000001      0.002907 electrons x Angstroem
 Tr[quadrupol]     -6558.901632

 energy correction for charged system         0.000000 eV
 dipol+quadrupol energy correction            0.000000 eV
 added-field ion interaction          0.000000 eV  (added to PSCEN)


 Free energy of the ion-electron system (eV)
  ---------------------------------------------------
  alpha Z        PSCENC =        99.93393472
  Ewald energy   TEWEN  =     37644.21784352
  -Hartree energ DENC   =    -45709.01952596
  -exchange      EXHF   =       538.69238786
  -V(xc)+E(xc)   XCENC  =       592.20732173
  PAW double counting   =     26286.03443072   -26312.30405904
  entropy T*S    EENTRO =        -0.00000000
  eigenvalues    EBANDS =     -3123.78145242
  atomic energy  EATOM  =      9374.32688621
  ---------------------------------------------------
  free energy    TOTEN  =      -609.69223266 eV

  energy without entropy =     -609.69223266  energy(sigma->0) =     -609.69223266
  exchange ACFDT corr.  =        -0.00000000  see jH, gK, PRB 81, 115126


--------------------------------------------------------------------------------------------------------




--------------------------------------- Iteration      1(  13)  ---------------------------------------


    POTLOK:  cpu time    1.3793: real time    1.3794
    SETDIJ:  cpu time    2.0793: real time    2.0793
    TRIAL :  cpu time  506.8950: real time  506.9292
    CORREC:  cpu time    0.0011: real time    0.0013
    CHARGE:  cpu time    1.6569: real time    1.6571
    --------------------------------------------
      LOOP:  cpu time  512.0141: real time  512.0487

 eigenvalue-minimisations  :     0
 total energy-change (2. order) :-0.1384305E-01  (-0.1205865E-01)
 number of electron     240.9999994 magnetization       5.0000003
 augmentation part       12.6141592 magnetization       3.9365938

 DIPCOR: dipole corrections for dipol
 direction  3 min pos     1,
 dipolmoment           0.000001     -0.000001      0.002928 electrons x Angstroem
 Tr[quadrupol]     -6558.898784

 energy correction for charged system         0.000000 eV
 dipol+quadrupol energy correction            0.000000 eV
 added-field ion interaction          0.000000 eV  (added to PSCEN)


 Free energy of the ion-electron system (eV)
  ---------------------------------------------------
  alpha Z        PSCENC =        99.93393473
  Ewald energy   TEWEN  =     37644.21784352
  -Hartree energ DENC   =    -45708.85360077
  -exchange      EXHF   =       538.74225016
  -V(xc)+E(xc)   XCENC  =       592.23863730
  PAW double counting   =     26287.91946218   -26314.21720193
  entropy T*S    EENTRO =        -0.00000000
  eigenvalues    EBANDS =     -3124.01428711
  atomic energy  EATOM  =      9374.32688621
  ---------------------------------------------------
  free energy    TOTEN  =      -609.70607570 eV

  energy without entropy =     -609.70607570  energy(sigma->0) =     -609.70607570
  exchange ACFDT corr.  =        -0.00000000  see jH, gK, PRB 81, 115126


--------------------------------------------------------------------------------------------------------




--------------------------------------- Iteration      1(  14)  ---------------------------------------


    POTLOK:  cpu time    1.3724: real time    1.3725
    SETDIJ:  cpu time    2.1048: real time    2.1047
    TRIAL :  cpu time  508.3102: real time  508.3361
    CORREC:  cpu time    0.0011: real time    0.0014
    CHARGE:  cpu time    1.6511: real time    1.6511
    --------------------------------------------
      LOOP:  cpu time  513.4421: real time  513.4684

 eigenvalue-minimisations  :     0
 total energy-change (2. order) :-0.1140121E-01  (-0.9978601E-02)
 number of electron     240.9999994 magnetization       5.0000003
 augmentation part       12.6155187 magnetization       3.9550415

 DIPCOR: dipole corrections for dipol
 direction  3 min pos     1,
 dipolmoment           0.000001     -0.000001      0.002944 electrons x Angstroem
 Tr[quadrupol]     -6558.897214

 energy correction for charged system         0.000000 eV
 dipol+quadrupol energy correction            0.000000 eV
 added-field ion interaction          0.000000 eV  (added to PSCEN)


 Free energy of the ion-electron system (eV)
  ---------------------------------------------------
  alpha Z        PSCENC =        99.93393473
  Ewald energy   TEWEN  =     37644.21784352
  -Hartree energ DENC   =    -45708.77950929
  -exchange      EXHF   =       538.78770190
  -V(xc)+E(xc)   XCENC  =       592.26818588
  PAW double counting   =     26290.14570900   -26316.47572610
  entropy T*S    EENTRO =        -0.00000000
  eigenvalues    EBANDS =     -3124.14250276
  atomic energy  EATOM  =      9374.32688621
  ---------------------------------------------------
  free energy    TOTEN  =      -609.71747692 eV

  energy without entropy =     -609.71747691  energy(sigma->0) =     -609.71747692
  exchange ACFDT corr.  =        -0.00000000  see jH, gK, PRB 81, 115126


--------------------------------------------------------------------------------------------------------




--------------------------------------- Iteration      1(  15)  ---------------------------------------


    POTLOK:  cpu time    1.3714: real time    1.3715
    SETDIJ:  cpu time    2.0904: real time    2.0904
    TRIAL :  cpu time  506.7707: real time  506.8022
    CORREC:  cpu time    0.0012: real time    0.0014
    CHARGE:  cpu time    1.6501: real time    1.6502
    --------------------------------------------
      LOOP:  cpu time  511.8862: real time  511.9181

 eigenvalue-minimisations  :     0
 total energy-change (2. order) :-0.9474228E-02  (-0.8327327E-02)
 number of electron     240.9999994 magnetization       5.0000003
 augmentation part       12.6165950 magnetization       3.9716623

 DIPCOR: dipole corrections for dipol
 direction  3 min pos     1,
 dipolmoment           0.000001     -0.000001      0.002959 electrons x Angstroem
 Tr[quadrupol]     -6558.896401

 energy correction for charged system         0.000000 eV
 dipol+quadrupol energy correction            0.000000 eV
 added-field ion interaction          0.000000 eV  (added to PSCEN)


 Free energy of the ion-electron system (eV)
  ---------------------------------------------------
  alpha Z        PSCENC =        99.93393473
  Ewald energy   TEWEN  =     37644.21784352
  -Hartree energ DENC   =    -45708.75200543
  -exchange      EXHF   =       538.82912704
  -V(xc)+E(xc)   XCENC  =       592.29561740
  PAW double counting   =     26292.75362829   -26319.11484947
  entropy T*S    EENTRO =        -0.00000000
  eigenvalues    EBANDS =     -3124.21713344
  atomic energy  EATOM  =      9374.32688621
  ---------------------------------------------------
  free energy    TOTEN  =      -609.72695114 eV

  energy without entropy =     -609.72695114  energy(sigma->0) =     -609.72695114
  exchange ACFDT corr.  =        -0.00000000  see jH, gK, PRB 81, 115126


--------------------------------------------------------------------------------------------------------




--------------------------------------- Iteration      1(  16)  ---------------------------------------


    POTLOK:  cpu time    1.3691: real time    1.3691
    SETDIJ:  cpu time    2.1058: real time    2.1059
    TRIAL :  cpu time  506.2325: real time  506.2662
    CORREC:  cpu time    0.0010: real time    0.0012
    CHARGE:  cpu time    1.6484: real time    1.6485
    --------------------------------------------
      LOOP:  cpu time  511.3597: real time  511.3936

 eigenvalue-minimisations  :     0
 total energy-change (2. order) :-0.7934514E-02  (-0.7006506E-02)
 number of electron     240.9999994 magnetization       5.0000003
 augmentation part       12.6173794 magnetization       3.9866606

 DIPCOR: dipole corrections for dipol
 direction  3 min pos     1,
 dipolmoment           0.000001     -0.000001      0.002972 electrons x Angstroem
 Tr[quadrupol]     -6558.895841

 energy correction for charged system         0.000000 eV
 dipol+quadrupol energy correction            0.000000 eV
 added-field ion interaction          0.000000 eV  (added to PSCEN)


 Free energy of the ion-electron system (eV)
  ---------------------------------------------------
  alpha Z        PSCENC =        99.93393474
  Ewald energy   TEWEN  =     37644.21784352
  -Hartree energ DENC   =    -45708.73130994
  -exchange      EXHF   =       538.86666721
  -V(xc)+E(xc)   XCENC  =       592.32061649
  PAW double counting   =     26295.54361794   -26321.93099041
  entropy T*S    EENTRO =        -0.00000000
  eigenvalues    EBANDS =     -3124.28215142
  atomic energy  EATOM  =      9374.32688621
  ---------------------------------------------------
  free energy    TOTEN  =      -609.73488566 eV

  energy without entropy =     -609.73488566  energy(sigma->0) =     -609.73488566
  exchange ACFDT corr.  =        -0.00000000  see jH, gK, PRB 81, 115126


--------------------------------------------------------------------------------------------------------




--------------------------------------- Iteration      1(  17)  ---------------------------------------


    POTLOK:  cpu time    1.3640: real time    1.3641
    SETDIJ:  cpu time    2.0798: real time    2.0800
    TRIAL :  cpu time  506.1616: real time  506.1988
    CORREC:  cpu time    0.0010: real time    0.0012
    CHARGE:  cpu time    1.6527: real time    1.6528
    --------------------------------------------
      LOOP:  cpu time  511.2618: real time  511.2997

 eigenvalue-minimisations  :     0
 total energy-change (2. order) :-0.6695780E-02  (-0.5938906E-02)
 number of electron     240.9999994 magnetization       5.0000003
 augmentation part       12.6180277 magnetization       4.0002841

 DIPCOR: dipole corrections for dipol
 direction  3 min pos     1,
 dipolmoment           0.000001     -0.000001      0.002984 electrons x Angstroem
 Tr[quadrupol]     -6558.895225

 energy correction for charged system         0.000000 eV
 dipol+quadrupol energy correction            0.000000 eV
 added-field ion interaction          0.000000 eV  (added to PSCEN)


 Free energy of the ion-electron system (eV)
  ---------------------------------------------------
  alpha Z        PSCENC =        99.93393474
  Ewald energy   TEWEN  =     37644.21784352
  -Hartree energ DENC   =    -45708.70096805
  -exchange      EXHF   =       538.90054618
  -V(xc)+E(xc)   XCENC  =       592.34321879
  PAW double counting   =     26298.27860035   -26324.68719605
  entropy T*S    EENTRO =        -0.00000000
  eigenvalues    EBANDS =     -3124.35444712
  atomic energy  EATOM  =      9374.32688621
  ---------------------------------------------------
  free energy    TOTEN  =      -609.74158144 eV

  energy without entropy =     -609.74158144  energy(sigma->0) =     -609.74158144
  exchange ACFDT corr.  =        -0.00000000  see jH, gK, PRB 81, 115126


--------------------------------------------------------------------------------------------------------




--------------------------------------- Iteration      1(  18)  ---------------------------------------


    POTLOK:  cpu time    1.3680: real time    1.3681
    SETDIJ:  cpu time    2.1079: real time    2.1080
    TRIAL :  cpu time  505.7941: real time  505.8176
    CORREC:  cpu time    0.0011: real time    0.0014
    CHARGE:  cpu time    1.6453: real time    1.6455
    --------------------------------------------
      LOOP:  cpu time  510.9187: real time  510.9430

 eigenvalue-minimisations  :     0
 total energy-change (2. order) :-0.5690104E-02  (-0.5067354E-02)
 number of electron     240.9999994 magnetization       5.0000003
 augmentation part       12.6186461 magnetization       4.0127253

 DIPCOR: dipole corrections for dipol
 direction  3 min pos     1,
 dipolmoment           0.000001     -0.000001      0.002995 electrons x Angstroem
 Tr[quadrupol]     -6558.894473

 energy correction for charged system         0.000000 eV
 dipol+quadrupol energy correction            0.000000 eV
 added-field ion interaction          0.000000 eV  (added to PSCEN)


 Free energy of the ion-electron system (eV)
  ---------------------------------------------------
  alpha Z        PSCENC =        99.93393474
  Ewald energy   TEWEN  =     37644.21784352
  -Hartree energ DENC   =    -45708.66277997
  -exchange      EXHF   =       538.93111912
  -V(xc)+E(xc)   XCENC  =       592.36371718
  PAW double counting   =     26300.82067785   -26327.24787220
  entropy T*S    EENTRO =        -0.00000000
[...]
  augment    45.59665    46.07633    40.62734     0.09136    -0.01281     0.00702
  Kinetic  3516.03258  3550.63563  3985.06124    -3.03787     0.01251     0.05393
  Fock     -310.52026  -311.40673  -286.58316     0.04814     0.02217    -0.00263
  -------------------------------------------------------------------------------------
  Total     -43.88754   -41.01632    -0.31408     0.20187     0.00778     0.00183
  in kB     -22.13351   -20.68548    -0.15840     0.10181     0.00392     0.00092
  external pressure =      -14.33 kB  Pullay stress =        0.00 kB


 VOLUME and BASIS-vectors are now :
 -----------------------------------------------------------------------------
  energy-cutoff  :      500.00
  volume of cell :     3176.89
      direct lattice vectors                 reciprocal lattice vectors
    12.784787180 -0.004412647  0.000205607     0.078217974  0.000034023 -0.000017962
    -0.005449232 12.527482530 -0.000026625     0.000027551  0.079824510  0.000022255
     0.004557411 -0.005531691 19.835554494    -0.000000811  0.000000107  0.050414522

  length of vectors
    12.784787943 12.527483715 19.835555789     0.078217984  0.079824518  0.050414522


 FORCES acting on ions:
    Electron-Ion                     Ewald-Force                    Non-Local-Force
 -----------------------------------------------------------------------------------------------
   0.178E+01 -.248E+01 -.201E+00   -.209E+01 0.295E+01 0.203E+00   0.200E+00 -.468E+00 -.994E-03
   -.104E+01 -.216E+01 -.140E+00   0.922E+00 0.240E+01 0.140E+00   0.957E-01 -.161E+00 -.369E-03
   0.959E+01 -.138E+01 -.635E-01   -.965E+01 0.147E+01 0.631E-01   0.191E+00 -.772E-01 0.909E-03
   0.739E+01 -.268E+01 -.256E+00   -.732E+01 0.318E+01 0.254E+00   -.165E-01 -.376E+00 0.933E-03
   0.290E+01 -.628E+01 -.213E+00   -.256E+01 0.682E+01 0.214E+00   -.285E+00 -.605E+00 -.156E-02
   -.126E+01 -.406E+01 -.317E+00   0.106E+01 0.400E+01 0.317E+00   0.599E-01 0.164E-01 -.706E-03
   0.493E+01 -.340E+01 -.233E+00   -.479E+01 0.346E+01 0.233E+00   -.161E+00 -.819E-01 -.313E-03
   0.825E+01 -.534E+01 0.501E-01   -.651E+01 0.532E+01 -.541E-01   -.139E+01 -.396E-01 0.324E-02
   0.405E+01 0.615E+01 0.158E-01   -.368E+01 -.675E+01 -.198E-01   -.498E+00 0.828E+00 0.425E-02
   0.198E+01 -.191E+00 -.344E+00   -.202E+01 0.137E+00 0.343E+00   0.740E-01 0.878E-01 0.767E-03
   0.865E+01 -.208E+00 -.308E+00   -.839E+01 0.305E+00 0.309E+00   -.141E+00 0.570E-02 -.210E-02
   0.485E+02 0.819E+00 0.104E+00   -.521E+02 -.132E+01 -.898E-01   0.337E+01 0.343E+00 -.151E-01
   0.757E+01 -.156E+01 -.283E+00   -.775E+01 0.970E+00 0.285E+00   0.123E+00 0.394E+00 -.447E-02
   0.178E+01 0.517E+01 -.269E+00   -.206E+01 -.522E+01 0.269E+00   0.180E+00 0.962E-01 -.925E-03
   0.679E+01 0.282E+01 -.358E+00   -.690E+01 -.301E+01 0.358E+00   0.947E-01 0.719E-01 -.980E-03
   0.362E+02 0.135E+02 -.261E+00   -.398E+02 -.139E+02 0.259E+00   0.375E+01 0.443E+00 0.109E-02
   0.117E+02 0.346E+01 -.207E+00   -.122E+02 -.331E+01 0.208E+00   0.560E+00 -.124E+00 -.229E-03
   0.164E+00 0.121E+01 -.696E-03   -.336E+00 -.129E+01 0.134E-02   0.144E+00 -.196E-02 0.500E-03
   0.704E+01 0.237E+01 -.106E+00   -.751E+01 -.246E+01 0.106E+00   0.407E+00 0.107E+00 0.111E-02
   0.102E+02 -.517E+01 -.210E+00   -.105E+02 0.546E+01 0.210E+00   0.289E+00 -.318E+00 0.142E-02
   -.403E+01 -.158E+01 -.426E+00   0.422E+01 0.173E+01 0.426E+00   -.284E+00 -.158E+00 -.781E-03
   0.410E+01 0.758E+00 -.303E+00   -.395E+01 -.166E+00 0.305E+00   -.174E+00 -.478E+00 -.193E-02
   -.216E+01 -.224E+01 -.422E+00   0.264E+01 0.273E+01 0.421E+00   -.328E+00 -.464E+00 -.121E-03
   -.570E+01 0.376E+00 -.332E+00   0.562E+01 0.167E+00 0.333E+00   0.109E+00 -.434E+00 -.252E-02
   -.473E+01 -.224E+01 -.836E-02   0.515E+01 0.375E+01 0.919E-02   -.305E+00 -.136E+01 -.151E-02
   -.262E+01 0.104E+01 -.262E-01   0.243E+01 0.397E+00 0.278E-01   0.130E+00 -.130E+01 -.192E-02
   -.930E+01 0.222E+01 -.387E+00   0.110E+02 -.366E+01 0.389E+00   -.152E+01 0.133E+01 -.210E-02
   0.221E+01 -.110E+02 -.388E+00   -.206E+01 0.116E+02 0.390E+00   -.105E+00 -.642E+00 -.172E-02
   -.235E+02 -.221E+02 -.419E+00   0.261E+02 0.252E+02 0.424E+00   -.260E+01 -.307E+01 -.523E-02
   -.746E+01 0.131E+01 -.380E+00   0.740E+01 -.151E+01 0.383E+00   0.735E-01 0.173E+00 -.178E-02
   -.627E+01 -.123E+00 -.608E-01   0.613E+01 0.173E+00 0.606E-01   -.830E-02 -.407E-01 0.866E-03
   -.825E+01 -.241E+01 -.278E+00   0.824E+01 0.276E+01 0.276E+00   -.548E-01 -.260E+00 0.753E-03
   0.833E+00 0.608E+00 -.199E+00   -.729E+00 -.561E+00 0.200E+00   0.176E-01 -.464E-01 -.823E-03
   0.415E+01 -.190E+01 -.143E+00   -.426E+01 0.209E+01 0.143E+00   0.115E+00 -.113E+00 -.334E-03
   -.179E+01 -.431E+01 -.245E+00   0.155E+01 0.434E+01 0.246E+00   0.262E+00 -.586E-01 -.185E-03
   -.449E+01 -.126E+02 0.275E-01   0.275E+01 0.125E+02 -.305E-01   0.149E+01 0.764E-02 0.147E-02
   -.445E+00 -.829E+01 -.246E+00   0.937E-01 0.880E+01 0.247E+00   0.316E+00 -.581E+00 -.169E-02
   0.505E+01 -.400E+01 -.318E+00   -.497E+01 0.392E+01 0.318E+00   0.546E-01 0.132E-01 -.586E-03
   -.178E+01 -.221E+01 -.312E+00   0.142E+01 0.218E+01 0.313E+00   0.207E+00 0.979E-01 -.188E-02
   -.293E+01 -.349E+00 0.120E+00   0.289E+01 0.211E+00 -.113E+00   -.431E-02 0.144E-01 -.752E-02
   0.678E+01 0.152E+01 0.279E-01   -.729E+01 -.189E+01 -.340E-01   0.660E+00 0.421E+00 0.638E-02
   0.353E+01 0.750E+00 -.344E+00   -.358E+01 -.770E+00 0.342E+00   0.364E-01 0.136E-01 0.667E-03
   -.591E+00 0.235E+01 -.347E+00   0.252E+00 -.242E+01 0.347E+00   0.234E+00 -.147E-01 -.120E-02
   -.253E+01 0.137E+02 -.248E+00   0.869E+00 -.137E+02 0.246E+00   0.141E+01 0.478E-01 0.872E-03
   0.773E+01 -.147E+01 -.213E+00   -.833E+01 0.184E+01 0.214E+00   0.652E+00 -.419E+00 -.312E-02
   0.483E+01 0.383E+01 -.264E+00   -.487E+01 -.382E+01 0.264E+00   0.139E+00 0.510E-01 -.931E-03
   -.551E+00 0.450E+01 -.107E+00   0.344E+00 -.448E+01 0.107E+00   0.219E+00 0.218E-01 0.101E-02
   -.721E+01 0.219E+01 -.204E+00   0.724E+01 -.245E+01 0.202E+00   -.803E-01 0.163E+00 0.261E-02
   -.106E+01 0.747E+01 -.218E+00   0.685E+00 -.801E+01 0.220E+00   0.349E+00 0.582E+00 -.121E-02
   0.438E+01 0.115E+01 0.324E-02   -.453E+01 -.127E+01 -.243E-02   0.156E+00 0.352E-01 0.525E-03
   -.511E+00 -.247E+02 0.268E+00   0.375E+01 0.302E+02 -.278E+00   -.365E+01 -.557E+01 0.118E-01
   -.367E+01 -.360E+02 0.388E+00   0.328E+00 0.416E+02 -.401E+00   0.369E+01 -.576E+01 0.146E-01
   -.291E+02 -.524E+01 0.122E+01   0.242E+02 0.652E+01 -.125E+01   0.538E+01 -.854E+00 0.341E-01
   -.953E+00 0.430E+02 -.242E+00   -.247E+01 -.497E+02 0.235E+00   0.372E+01 0.692E+01 0.589E-02
   0.166E+02 -.415E+01 0.206E+01   -.307E+01 0.539E+01 -.214E+01   -.127E+02 -.101E+01 0.832E-01
   -.161E+02 0.482E+02 -.481E+00   0.264E+02 -.654E+02 0.483E+00   -.991E+01 0.164E+02 -.159E-02
   -.411E+02 0.647E+02 0.531E+01   0.413E+02 -.716E+02 -.521E+01   -.568E+00 0.494E+01 -.112E+00
   -.400E+02 -.606E+02 0.176E+01   0.415E+02 0.641E+02 -.172E+01   -.225E+01 -.217E+01 -.364E-01
 -----------------------------------------------------------------------------------------------
   0.877E+01 -.756E+01 0.324E-01   0.171E-12 -.284E-13 0.444E-15   -.805E+01 0.654E+01 -.384E-01
 
 
 POSITION                                       TOTAL-FORCE (eV/Angst)
 -----------------------------------------------------------------------------------
      2.81487     -0.00190      9.91819        -0.116168     -0.028394     -0.000003
      0.70097      1.25317      9.91804        -0.028935      0.073530      0.000129
      1.39400     12.52229      9.91789         0.154013      0.011780      0.000602
      3.53094      1.23916      9.91797         0.059051      0.101814     -0.000864
      2.84554      2.49599      9.91749         0.046770     -0.095545     -0.000541
      0.70721      3.75445      9.91824        -0.146367     -0.044228     -0.000559
      1.41643      2.50103      9.91804        -0.018970     -0.020587     -0.000300
      3.59411      3.73583      9.91573         0.288950     -0.066765     -0.000522
      2.85992      4.99355      9.91593        -0.162286      0.285711      0.000397
      0.72021      6.26570      9.91827         0.029299      0.037583     -0.000680
      1.43487      5.00707      9.91779         0.119020      0.104166     -0.001019
      3.57976      6.25347      9.91438        -0.048774     -0.139104     -0.001748
      2.88425      7.52954      9.91709        -0.053860     -0.186969     -0.002389
      0.70979      8.76393      9.91832        -0.099506      0.052598     -0.000155
      1.44679      7.52108      9.91818        -0.009057     -0.114366     -0.000926
      3.60535      8.80109      9.91754         0.370005      0.096130     -0.001430
      2.84305     10.02820      9.91806         0.032386      0.029775      0.000250
      0.69936     11.26395      9.91774        -0.027624     -0.081846      0.001188
      1.41369     10.01570      9.91797        -0.046006      0.017558      0.000702
      3.52192     11.28490      9.91828         0.030285     -0.052703      0.000699
      7.09267     12.51672      9.91872        -0.105821     -0.022790     -0.000878
      4.95371      1.21247      9.91783        -0.023759      0.096980     -0.000578
      5.67025     12.51708      9.91866         0.134561      0.008666     -0.001078
      7.81831      1.21811      9.91798         0.026309      0.093630     -0.001158
      7.10779      2.44009      9.91600         0.106830      0.076013     -0.000765
      5.66553      2.42918      9.91600        -0.058457      0.082472     -0.000448
      7.08835     10.05643      9.91824         0.093154     -0.047655     -0.000392
      4.94366     11.29639      9.91866         0.043380     -0.100267      0.000025
      5.64030     10.07482      9.91827        -0.189377     -0.139947     -0.000520
      7.80138     11.28572      9.91871         0.009856     -0.027240      0.000419
     11.35932     12.51683      9.91807        -0.161467      0.006725      0.000740
      9.23943      1.23661      9.91819        -0.076464      0.082751     -0.001131
      9.94280     12.51634      9.91833         0.130346     -0.000904      0.000134
     12.06221      1.24928      9.91825         0.023287      0.080338      0.000228
     11.35159      2.49979      9.91829         0.029231     -0.033231     -0.000136
      9.17428      3.73889      9.91601        -0.175220     -0.069403     -0.001443
      9.92185      2.49795      9.91778        -0.015803     -0.096663     -0.000982
     12.06695      3.75020      9.91847         0.145490     -0.065083     -0.000575
     11.34545      5.00266      9.91807        -0.152459      0.077572     -0.001109
      9.20943      6.25487      9.91509        -0.062645     -0.123487     -0.000707
      9.91741      4.99751      9.91629         0.198455      0.073047      0.000618
     12.06778      6.25919      9.91850        -0.017571     -0.005088     -0.000983
     11.34285      7.51081      9.91839        -0.098647     -0.081804     -0.001149
      9.17395      8.77499      9.91765        -0.194144      0.083601     -0.001735
      9.91429      7.51511      9.91728         0.098038     -0.072192     -0.001861
     12.06582      8.75979      9.91852         0.104577      0.062624     -0.000262
     11.35062     10.01039      9.91816         0.019825      0.042446      0.000803
      9.22722     11.26967      9.91839        -0.058394     -0.085105      0.000962
      9.91835     10.01309      9.91823        -0.010945      0.080652      0.000143
     12.06025     11.25938      9.91793         0.015665     -0.079272      0.001375
      5.01221      3.67755      9.91404        -0.595818     -0.390504      0.002907
      7.75143      3.70515      9.91393         0.545972     -0.500359      0.002872
      7.80820      6.26770      9.91070         0.754821      0.383622      0.006283
      7.75063      8.80592      9.91703         0.479560      0.540334     -0.000496
      4.91568      6.24055      9.90961        -0.224745      0.125822      0.003811
      4.98491      8.86973      9.91735        -0.478185      0.573280      0.000078
      6.34713      5.10241      9.90631        -0.365265     -1.090158      0.000524
      6.35181      7.39327      9.91137        -0.266399      0.480444      0.003630
 -----------------------------------------------------------------------------------
    total drift:                               -0.009177     -0.005962     -0.000009


--------------------------------------------------------------------------------------------------------



  FREE ENERGIE OF THE ION-ELECTRON SYSTEM (eV)
  ---------------------------------------------------
  free  energy   TOTEN  =      -609.79254655 eV

  energy  without entropy=     -609.79254655  energy(sigma->0) =     -609.79254655
 


--------------------------------------------------------------------------------------------------------


    POTLOK:  cpu time    3.4071: real time    3.4073


--------------------------------------------------------------------------------------------------------


 stress matrix after NEB project (eV)
    -43.88754      0.20182      0.00183
      0.20187    -41.01632      0.00780
      0.00183      0.00778     -0.31408
  FORCES: max atom, RMS     1.149724    0.310942
  FORCE total and by dimension    2.368061    1.090158
  Stress total and by dimension   60.071915   43.887542
 writing wavefunctions
     LOOP+:  cpu time32837.1218: real time32842.2921
    4ORBIT:  cpu time    0.0000: real time    0.0000
 


 total charge     
 
# of ion       s       p       d       tot
------------------------------------------
    1        0.867   1.777   0.000   2.644
    2        0.863   1.760   0.000   2.623
    3        0.866   1.761   0.000   2.627
    4        0.867   1.765   0.000   2.632
    5        0.863   1.752   0.000   2.616
    6        0.861   1.753   0.000   2.613
    7        0.864   1.749   0.000   2.613
    8        0.860   1.733   0.000   2.593
    9        0.861   1.744   0.000   2.605
   10        0.856   1.742   0.000   2.598
   11        0.862   1.737   0.000   2.598
   12        0.862   1.726   0.000   2.588
   13        0.853   1.741   0.000   2.594
   14        0.861   1.755   0.000   2.616
   15        0.859   1.729   0.000   2.588
   16        0.853   1.696   0.000   2.549
   17        0.863   1.766   0.000   2.629
   18        0.863   1.760   0.000   2.624
   19        0.863   1.755   0.000   2.617
   20        0.870   1.762   0.000   2.631
   21        0.869   1.783   0.000   2.652
   22        0.873   1.793   0.000   2.666
   23        0.871   1.781   0.000   2.652
   24        0.873   1.785   0.000   2.659
   25        0.879   1.764   0.000   2.643
   26        0.882   1.770   0.000   2.652
   27        0.873   1.770   0.000   2.643
   28        0.873   1.804   0.000   2.677
   29        0.872   1.740   0.000   2.612
   30        0.872   1.777   0.000   2.649
   31        0.864   1.764   0.000   2.628
   32        0.866   1.766   0.000   2.631
   33        0.867   1.763   0.000   2.629
   34        0.864   1.755   0.000   2.619
   35        0.862   1.754   0.000   2.616
   36        0.859   1.732   0.000   2.591
   37        0.863   1.748   0.000   2.611
   38        0.863   1.748   0.000   2.610
   39        0.860   1.747   0.000   2.606
   40        0.864   1.767   0.000   2.630
   41        0.865   1.723   0.000   2.587
   42        0.860   1.730   0.000   2.590
   43        0.860   1.750   0.000   2.610
   44        0.859   1.735   0.000   2.594
   45        0.865   1.722   0.000   2.586
   46        0.863   1.746   0.000   2.608
   47        0.862   1.754   0.000   2.616
   48        0.864   1.762   0.000   2.626
   49        0.864   1.747   0.000   2.611
   50        0.864   1.756   0.000   2.620
   51        0.873   1.680   0.000   2.553
   52        0.870   1.657   0.000   2.527
   53        0.912   1.545   0.000   2.457
   54        0.872   1.668   0.000   2.540
   55        1.255   2.600   0.000   3.855
   56        1.233   2.666   0.000   3.899
   57        0.545   0.830   6.172   7.546
   58        0.399   0.569   5.079   6.047
--------------------------------------------------
tot         50.188 100.909  11.251 162.347
 


 magnetization (x)
 
# of ion       s       p       d       tot
------------------------------------------
    1        0.000   0.005   0.000   0.005
    2        0.001   0.008   0.000   0.008
    3       -0.000  -0.003   0.000  -0.004
    4        0.000   0.005   0.000   0.005
    5       -0.001   0.000   0.000  -0.000
    6        0.001   0.013   0.000   0.014
    7       -0.001  -0.008   0.000  -0.008
    8       -0.000  -0.001   0.000  -0.001
    9        0.001   0.012   0.000   0.013
   10        0.002   0.019   0.000   0.020
   11       -0.001  -0.015   0.000  -0.016
   12       -0.001  -0.022   0.000  -0.023
   13        0.000   0.011   0.000   0.011
   14        0.001   0.013   0.000   0.014
   15       -0.002  -0.020   0.000  -0.022
   16       -0.000  -0.002   0.000  -0.002
   17        0.000   0.004   0.000   0.004
   18        0.001   0.008   0.000   0.009
   19       -0.001  -0.009   0.000  -0.010
   20        0.000   0.004   0.000   0.004
   21        0.001   0.015   0.000   0.017
   22       -0.000  -0.000   0.000  -0.001
   23       -0.001  -0.018   0.000  -0.019
   24       -0.002  -0.019   0.000  -0.021
   25        0.001   0.027   0.000   0.028
   26       -0.001   0.000   0.000  -0.000
   27        0.001   0.027   0.000   0.028
   28        0.000   0.003   0.000   0.003
   29       -0.001  -0.006   0.000  -0.007
   30       -0.002  -0.021   0.000  -0.023
   31        0.001   0.014   0.000   0.015
   32        0.002   0.020   0.000   0.022
   33       -0.001  -0.014   0.000  -0.015
   34       -0.001  -0.011   0.000  -0.012
   35        0.001   0.013   0.000   0.014
   36        0.002   0.026   0.000   0.028
   37       -0.002  -0.016   0.000  -0.017
   38       -0.001  -0.011   0.000  -0.012
   39        0.002   0.025   0.000   0.027
   40        0.005   0.051   0.000   0.056
   41       -0.005  -0.052   0.000  -0.058
   42       -0.003  -0.039   0.000  -0.042
   43        0.002   0.024   0.000   0.026
   44        0.003   0.033   0.000   0.036
   45       -0.006  -0.060   0.000  -0.066
   46       -0.001  -0.014   0.000  -0.015
   47        0.001   0.014   0.000   0.015
   48        0.002   0.022   0.000   0.024
   49       -0.002  -0.017   0.000  -0.019
   50       -0.001  -0.012   0.000  -0.013
   51       -0.016  -0.057   0.000  -0.073
   52       -0.015  -0.076   0.000  -0.091
   53       -0.031  -0.303   0.000  -0.334
   54       -0.017  -0.089   0.000  -0.105
   55       -0.011  -0.135   0.000  -0.146
   56       -0.006  -0.013   0.000  -0.019
   57        0.058  -0.002   2.606   2.662
   58        0.050   0.016   2.938   3.005
--------------------------------------------------
tot          0.006  -0.633   5.544   4.916
 

 total amount of memory used by VASP MPI-rank0   178466. kBytes
=======================================================================

   base      :      30000. kBytes
   nonl-proj :       5324. kBytes
   fftplans  :      14250. kBytes
   grid      :      36827. kBytes
   one-center:         62. kBytes
   HF        :         23. kBytes
   nonlr-proj:      15519. kBytes
   wavefun   :      76461. kBytes
 
  
  
 General timing and accounting informations for this job:
 ========================================================
  
                  Total CPU time used (sec):    32930.633
                            User time (sec):    32881.650
                          System time (sec):       48.981
                         Elapsed time (sec):    32937.351
  
                   Maximum memory used (kb):      428196.
                   Average memory used (kb):           0.
  
                          Minor page faults:       284948
                          Major page faults:            0
                 Voluntary context switches:         1182
