 vasp.5.4.4.18Apr17-6-g9f103f2a35 (build Feb 25 2019 10:51:38) complex          
  
 executed on             LinuxIFC date 2021.06.15  23:04:26
 running on   48 total cores
 distrk:  each k-point on   16 cores,    3 groups
 distr:  one band on NCORES_PER_BAND=  16 cores,    1 groups


--------------------------------------------------------------------------------------------------------


 INCAR:
 POTCAR:    PAW_PBE C 08Apr2002                   
 POTCAR:    PAW_PBE N 08Apr2002                   
 POTCAR:    PAW_PBE Fe 06Sep2000                  
 POTCAR:    PAW_PBE Cr 06Sep2000                  

 ----------------------------------------------------------------------------- 
|                                                                             |
|           W    W    AA    RRRRR   N    N  II  N    N   GGGG   !!!           |
|           W    W   A  A   R    R  NN   N  II  NN   N  G    G  !!!           |
|           W    W  A    A  R    R  N N  N  II  N N  N  G       !!!           |
|           W WW W  AAAAAA  RRRRR   N  N N  II  N  N N  G  GGG   !            |
|           WW  WW  A    A  R   R   N   NN  II  N   NN  G    G                |
|           W    W  A    A  R    R  N    N  II  N    N   GGGG   !!!           |
|                                                                             |
|      For optimal performance we recommend to set                            |
|        NCORE= 4 - approx SQRT( number of cores)                             |
|      NCORE specifies how many cores store one orbital (NPAR=cpu/NCORE).     |
|      This setting can  greatly improve the performance of VASP for DFT.     |
|      The default,   NCORE=1            might be grossly inefficient         |
|      on modern multi-core architectures or massively parallel machines.     |
|      Do your own testing !!!!                                               |
|      Unfortunately you need to use the default for GW and RPA calculations. |
|      (for HF NCORE is supported but not extensively tested yet)             |
|                                                                             |
 ----------------------------------------------------------------------------- 


 ----------------------------------------------------------------------------- 
|                                                                             |
|           W    W    AA    RRRRR   N    N  II  N    N   GGGG   !!!           |
|           W    W   A  A   R    R  NN   N  II  NN   N  G    G  !!!           |
|           W    W  A    A  R    R  N N  N  II  N N  N  G       !!!           |
|           W WW W  AAAAAA  RRRRR   N  N N  II  N  N N  G  GGG   !            |
|           WW  WW  A    A  R   R   N   NN  II  N   NN  G    G                |
|           W    W  A    A  R    R  N    N  II  N    N   GGGG   !!!           |
|                                                                             |
|      You have enabled k-point parallelism (KPAR>1).                         |
|      This developmental code was originally  written by Paul Kent at ORNL,  |
|      and carefully double checked in Vienna.                                |
|      GW as well as linear response parallelism added by Martijn Marsman     |
|      and Georg Kresse.                                                      |
|      Carefully verify results versus KPAR=1.                                |
|      Report problems to Paul Kent and Vienna.                               |
|                                                                             |
 ----------------------------------------------------------------------------- 

 POTCAR:    PAW_PBE C 08Apr2002                   
   VRHFIN =C: s2p2                                                              
   LEXCH  = PE                                                                  
   EATOM  =   147.1560 eV,   10.8157 Ry                                         
                                                                                
   TITEL  = PAW_PBE C 08Apr2002                                                 
   LULTRA =        F    use ultrasoft PP ?                                      
   IUNSCR =        1    unscreen: 0-lin 1-nonlin 2-no                           
   RPACOR =    1.200    partial core radius                                     
   POMASS =   12.011; ZVAL   =    4.000    mass and valenz                      
   RCORE  =    1.500    outmost cutoff radius                                   
   RWIGS  =    1.630; RWIGS  =    0.863    wigner-seitz radius (au A)           
   ENMAX  =  400.000; ENMIN  =  300.000 eV                                      
   ICORE  =        2    local potential                                         
   LCOR   =        T    correct aug charges                                     
   LPAW   =        T    paw PP                                                  
   EAUG   =  644.873                                                            
   DEXC   =    0.000                                                            
   RMAX   =    1.529    core radius for proj-oper                               
   RAUG   =    1.300    factor for augmentation sphere                          
   RDEP   =    1.501    radius for radial grids                                 
   RDEPT  =    1.300    core radius for aug-charge                              
                                                                                
   Atomic configuration                                                         
    4 entries                                                                   
     n  l   j            E        occ.                                          
     1  0  0.50      -273.3789   2.0000                                         
     2  0  0.50       -13.7508   2.0000                                         
     2  1  0.50        -5.2854   2.0000                                         
     3  2  1.50        -5.4423   0.0000                                         
   Description                                                                  
     l       E           TYP  RCUT    TYP  RCUT                                 
     0    -13.7508458     23  1.200                                             
     0     -8.2022199     23  1.200                                             
     1     -5.2854383     23  1.500                                             
     1     34.0145650     23  1.500                                             
     2     -5.4423304      7  1.500                                             
  local pseudopotential read in
  partial core-charges read in
  partial kinetic energy density read in
  atomic valenz-charges read in
  non local Contribution for L=           0  read in
    real space projection operators read in
  non local Contribution for L=           0  read in
    real space projection operators read in
  non local Contribution for L=           1  read in
    real space projection operators read in
  non local Contribution for L=           1  read in
    real space projection operators read in
    PAW grid and wavefunctions read in
 
   number of l-projection  operators is LMAX  =           4
   number of lm-projection operators is LMMAX =           8
 
 POTCAR:    PAW_PBE N 08Apr2002                   
   VRHFIN =N: s2p3                                                              
   LEXCH  = PE                                                                  
   EATOM  =   264.5486 eV,   19.4438 Ry                                         
                                                                                
   TITEL  = PAW_PBE N 08Apr2002                                                 
   LULTRA =        F    use ultrasoft PP ?                                      
   IUNSCR =        1    unscreen: 0-lin 1-nonlin 2-no                           
   RPACOR =    1.200    partial core radius                                     
   POMASS =   14.001; ZVAL   =    5.000    mass and valenz                      
   RCORE  =    1.500    outmost cutoff radius                                   
   RWIGS  =    1.400; RWIGS  =    0.741    wigner-seitz radius (au A)           
   ENMAX  =  400.000; ENMIN  =  300.000 eV                                      
   ICORE  =        2    local potential                                         
   LCOR   =        T    correct aug charges                                     
   LPAW   =        T    paw PP                                                  
   EAUG   =  627.112                                                            
   DEXC   =    0.000                                                            
   RMAX   =    1.529    core radius for proj-oper                               
   RAUG   =    1.300    factor for augmentation sphere                          
   RDEP   =    1.514    radius for radial grids                                 
   RDEPT  =    1.338    core radius for aug-charge                              
                                                                                
   Atomic configuration                                                         
    4 entries                                                                   
     n  l   j            E        occ.                                          
     1  0  0.50      -384.7179   2.0000                                         
     2  0  0.50       -18.5828   2.0000                                         
     2  1  0.50        -7.0898   3.0000                                         
     3  2  1.50        -6.8029   0.0000                                         
   Description                                                                  
     l       E           TYP  RCUT    TYP  RCUT                                 
     0    -18.5828119     23  1.200                                             
     0    -13.5018863     23  1.200                                             
     1     -7.0897853     23  1.500                                             
     1      9.5240782     23  1.500                                             
     2     -6.8029130      7  1.500                                             
  local pseudopotential read in
  partial core-charges read in
  partial kinetic energy density read in
  atomic valenz-charges read in
  non local Contribution for L=           0  read in
    real space projection operators read in
  non local Contribution for L=           0  read in
    real space projection operators read in
  non local Contribution for L=           1  read in
    real space projection operators read in
  non local Contribution for L=           1  read in
    real space projection operators read in
    PAW grid and wavefunctions read in
 
   number of l-projection  operators is LMAX  =           4
   number of lm-projection operators is LMMAX =           8
 
 POTCAR:    PAW_PBE Fe 06Sep2000                  
   VRHFIN =Fe:  d7 s1                                                           
   LEXCH  = PE                                                                  
   EATOM  =   594.3153 eV,   43.6809 Ry                                         
                                                                                
   TITEL  = PAW_PBE Fe 06Sep2000                                                
   LULTRA =        F    use ultrasoft PP ?                                      
   IUNSCR =        1    unscreen: 0-lin 1-nonlin 2-no                           
   RPACOR =    2.000    partial core radius                                     
   POMASS =   55.847; ZVAL   =    8.000    mass and valenz                      
   RCORE  =    2.300    outmost cutoff radius                                   
   RWIGS  =    2.460; RWIGS  =    1.302    wigner-seitz radius (au A)           
   ENMAX  =  267.882; ENMIN  =  200.911 eV                                      
   RCLOC  =    1.701    cutoff for local pot                                    
   LCOR   =        T    correct aug charges                                     
   LPAW   =        T    paw PP                                                  
   EAUG   =  511.368                                                            
   DEXC   =    0.000                                                            
   RMAX   =    2.356    core radius for proj-oper                               
   RAUG   =    1.300    factor for augmentation sphere                          
   RDEP   =    2.442    radius for radial grids                                 
   RDEPT  =    1.890    core radius for aug-charge                              
                                                                                
   Atomic configuration                                                         
    9 entries                                                                   
     n  l   j            E        occ.                                          
     1  0  0.50     -6993.8440   2.0000                                         
     2  0  0.50      -814.6047   2.0000                                         
     2  1  1.50      -693.3689   6.0000                                         
     3  0  0.50       -89.4732   2.0000                                         
     3  1  1.50       -55.6373   6.0000                                         
     3  2  2.50        -3.8151   7.0000                                         
     4  0  0.50        -4.2551   1.0000                                         
     4  1  1.50        -3.4015   0.0000                                         
     4  3  2.50        -1.3606   0.0000                                         
   Description                                                                  
     l       E           TYP  RCUT    TYP  RCUT                                 
     2     -3.8151135     23  2.300                                             
     2     -5.1756961     23  2.300                                             
     0     -4.2550963     23  2.300                                             
     0      7.2035603     23  2.300                                             
     1     -2.7211652     23  2.300                                             
     1     18.4316424     23  2.300                                             
  local pseudopotential read in
  partial core-charges read in
  partial kinetic energy density read in
  atomic valenz-charges read in
  non local Contribution for L=           2  read in
    real space projection operators read in
  non local Contribution for L=           2  read in
    real space projection operators read in
  non local Contribution for L=           0  read in
    real space projection operators read in
  non local Contribution for L=           0  read in
    real space projection operators read in
  non local Contribution for L=           1  read in
    real space projection operators read in
  non local Contribution for L=           1  read in
    real space projection operators read in
    PAW grid and wavefunctions read in
 
   number of l-projection  operators is LMAX  =           6
   number of lm-projection operators is LMMAX =          18
 
 POTCAR:    PAW_PBE Cr 06Sep2000                  
   VRHFIN =Cr : d5 s1                                                           
   LEXCH  = PE                                                                  
   EATOM  =   276.8859 eV,   20.3505 Ry                                         
                                                                                
   TITEL  = PAW_PBE Cr 06Sep2000                                                
   LULTRA =        F    use ultrasoft PP ?                                      
   IUNSCR =        1    unscreen: 0-lin 1-nonlin 2-no                           
   RPACOR =    2.080    partial core radius                                     
   POMASS =   51.996; ZVAL   =    6.000    mass and valenz                      
   RCORE  =    2.500    outmost cutoff radius                                   
   RWIGS  =    2.500; RWIGS  =    1.323    wigner-seitz radius (au A)           
   ENMAX  =  227.080; ENMIN  =  170.310 eV                                      
   RCLOC  =    1.721    cutoff for local pot                                    
   LCOR   =        T    correct aug charges                                     
   LPAW   =        T    paw PP                                                  
   EAUG   =  402.108                                                            
   DEXC   =    0.000                                                            
   RMAX   =    2.552    core radius for proj-oper                               
   RAUG   =    1.300    factor for augmentation sphere                          
   RDEP   =    2.609    radius for radial grids                                 
   RDEPT  =    2.065    core radius for aug-charge                              
                                                                                
   Atomic configuration                                                         
    9 entries                                                                   
     n  l   j            E        occ.                                          
     1  0  0.50     -5880.4963   2.0000                                         
     2  0  0.50      -667.0865   2.0000                                         
     2  1  1.50      -560.6250   6.0000                                         
     3  0  0.50       -73.9860   2.0000                                         
     3  1  1.50       -45.4378   6.0000                                         
     3  2  2.50        -2.9137   5.0000                                         
     4  0  0.50        -4.0071   1.0000                                         
     4  1  0.50        -1.2789   0.0000                                         
     4  3  2.50        -1.3606   0.0000                                         
   Description                                                                  
     l       E           TYP  RCUT    TYP  RCUT                                 
     2     -2.9136677     23  2.500                                             
     2     -4.2742503     23  2.500                                             
     0     -4.0071322     23  2.500                                             
     0      9.4498801     23  2.500                                             
     1     -5.4423304     23  2.500                                             
     1     27.2116520     23  2.500                                             
  local pseudopotential read in
  partial core-charges read in
  partial kinetic energy density read in
  atomic valenz-charges read in
  non local Contribution for L=           2  read in
    real space projection operators read in
  non local Contribution for L=           2  read in
    real space projection operators read in
  non local Contribution for L=           0  read in
    real space projection operators read in
  non local Contribution for L=           0  read in
    real space projection operators read in
  non local Contribution for L=           1  read in
    real space projection operators read in
  non local Contribution for L=           1  read in
    real space projection operators read in
    PAW grid and wavefunctions read in
 
   number of l-projection  operators is LMAX  =           6
   number of lm-projection operators is LMMAX =          18
 

 ----------------------------------------------------------------------------- 
|                                                                             |
|  ADVICE TO THIS USER RUNNING 'VASP/VAMP'   (HEAR YOUR MASTER'S VOICE ...):  |
|                                                                             |
|      You have a (more or less) 'large supercell' and for larger cells       |
|      it might be more efficient to use real space projection opertators     |
|      So try LREAL= Auto  in the INCAR   file.                               |
|      Mind:          For very  accurate calculation you might also keep the  |
|      reciprocal projection scheme          (i.e. LREAL=.FALSE.)             |
|                                                                             |
 ----------------------------------------------------------------------------- 

  PAW_PBE C 08Apr2002                   :
 energy of atom  1       EATOM= -147.1560
 kinetic energy error for atom=    0.0076 (will be added to EATOM!!)
  PAW_PBE N 08Apr2002                   :
 energy of atom  2       EATOM= -264.5486
 kinetic energy error for atom=    0.0138 (will be added to EATOM!!)
  PAW_PBE Fe 06Sep2000                  :
 energy of atom  3       EATOM= -594.3153
 kinetic energy error for atom=    0.0026 (will be added to EATOM!!)
  PAW_PBE Cr 06Sep2000                  :
 energy of atom  4       EATOM= -276.8859
 kinetic energy error for atom=    0.0012 (will be added to EATOM!!)
 
 
 POSCAR:  C  N Fe Cr                             
  positions in cartesian coordinates
  No initial velocities read in
 exchange correlation table for  LEXCH =        8
   RHO(1)=    0.500       N(1)  =     2000
   RHO(2)=  100.500       N(2)  =     4000

 VTST: version 3.2, (02/03/18)

 CHAIN: initializing optimizer
 
 OPT: Using VASP Conjugate-Gradient optimizer
 CHAIN: Read ICHAIN            0
 
 POSCAR:  C  N Fe Cr                             
  positions in cartesian coordinates
  No initial velocities read in
 


--------------------------------------------------------------------------------------------------------


 ion  position               nearest neighbor table
   1  0.221  0.003  0.496-  19 1.43   3 1.43   4 1.43
   2  0.056  0.102  0.492-   3 1.42   7 1.44  38 1.44
   3  0.110  0.002  0.493-   2 1.42  17 1.43   1 1.43
   4  0.278  0.104  0.498-  21 1.43   1 1.43   5 1.44
   5  0.224  0.205  0.500-   4 1.44   7 1.44   8 1.45
   6  0.056  0.302  0.494-   7 1.43  11 1.43  42 1.43
   7  0.112  0.203  0.495-   6 1.43   2 1.44   5 1.44
   8  0.280  0.307  0.506-   5 1.45  25 1.46   9 1.46
   9  0.220  0.407  0.507-  55 1.39  11 1.43   8 1.46
  10  0.054  0.502  0.496-  46 1.42  14 1.43  11 1.43
  11  0.110  0.403  0.498-   6 1.43   9 1.43  10 1.43
  12  0.218  0.603  0.508-  55 1.38  14 1.42  15 1.44
  13  0.053  0.702  0.493-  18 1.42  50 1.43  14 1.43
  14  0.108  0.603  0.498-  12 1.42  13 1.43  10 1.43
  15  0.273  0.705  0.509-  58 1.38  16 1.42  12 1.44
  16  0.219  0.803  0.499-  15 1.42  18 1.43  19 1.43
  17  0.054  0.902  0.492-  18 1.43   3 1.43  54 1.43
  18  0.108  0.802  0.493-  13 1.42  17 1.43  16 1.43
  19  0.275  0.903  0.498-   1 1.43  16 1.43  32 1.43
  20  0.554  0.998  0.498-  22 1.43  23 1.43  34 1.44
  21  0.388  0.101  0.498-  26 1.43   4 1.43  22 1.43
  22  0.443  0.001  0.498-  32 1.43  20 1.43  21 1.43
  23  0.611  0.098  0.496-  24 1.43  36 1.43  20 1.43
  24  0.556  0.199  0.499-  23 1.43  27 1.43  26 1.43
  25  0.394  0.302  0.509-  56 1.39  26 1.43   8 1.46
  26  0.445  0.200  0.501-  21 1.43  25 1.43  24 1.43
  27  0.613  0.299  0.499-  40 1.43  28 1.43  24 1.43
  28  0.558  0.397  0.509-  56 1.38  27 1.43  29 1.44
  29  0.614  0.499  0.509-  57 1.38  44 1.42  28 1.44
  30  0.612  0.696  0.508-  57 1.39  48 1.43  31 1.46
  31  0.551  0.795  0.507-  34 1.45  33 1.46  30 1.46
  32  0.386  0.901  0.501-  22 1.43  33 1.43  19 1.43
  33  0.438  0.801  0.509-  58 1.39  32 1.43  31 1.46
  34  0.608  0.897  0.500-  20 1.44  52 1.44  31 1.45
  35  0.888  0.000  0.491-  54 1.43  38 1.43  37 1.44
  36  0.722  0.099  0.494-  37 1.43  41 1.43  23 1.43
  37  0.776  0.999  0.493-  36 1.43  52 1.44  35 1.44
  38  0.944  0.101  0.491-  39 1.42  35 1.43   2 1.44
  39  0.889  0.200  0.491-  38 1.42  42 1.43  41 1.43
  40  0.723  0.299  0.494-  45 1.42  41 1.43  27 1.43
  41  0.778  0.199  0.492-  40 1.43  36 1.43  39 1.43
  42  0.945  0.301  0.491-  43 1.43  39 1.43   6 1.43
  43  0.889  0.400  0.492-  46 1.43  45 1.43  42 1.43
  44  0.723  0.498  0.498-  29 1.42  45 1.43  49 1.43
  45  0.779  0.399  0.493-  40 1.42  43 1.43  44 1.43
  46  0.944  0.501  0.493-  10 1.42  43 1.43  47 1.43
  47  0.888  0.600  0.493-  49 1.42  50 1.43  46 1.43
  48  0.721  0.699  0.498-  53 1.43  30 1.43  49 1.43
  49  0.778  0.599  0.496-  47 1.42  44 1.43  48 1.43
  50  0.942  0.701  0.492-  47 1.43  13 1.43  51 1.43
  51  0.887  0.800  0.491-  50 1.43  54 1.43  53 1.43
  52  0.720  0.899  0.496-  53 1.43  37 1.44  34 1.44
  53  0.776  0.800  0.494-  52 1.43  48 1.43  51 1.43
  54  0.943  0.901  0.491-  35 1.43  51 1.43  17 1.43
  55  0.268  0.507  0.520-  12 1.38   9 1.39  59 1.92
  56  0.453  0.395  0.521-  28 1.38  25 1.39  59 1.92
  57  0.565  0.597  0.520-  29 1.38  30 1.39  60 1.91
  58  0.379  0.709  0.521-  15 1.38  33 1.39  60 1.91
  59  0.373  0.477  0.585-  56 1.92  55 1.92  60 2.00
  60  0.452  0.617  0.581-  58 1.91  57 1.91  59 2.00
 
  LATTYP: Found a triclinic cell.
 ALAT       =    12.3584000000
 B/A-ratio  =     1.9179839765
 C/A-ratio  =     1.0431932936
 COS(alpha) =     0.0013627126
 COS(beta)  =     0.0094106764
 COS(gamma) =     0.5406433419
  
  Lattice vectors:
  
 A1 = (  -0.1163009034,  12.3578527528,   0.0000000000)
 A2 = (  -0.0323006665,  12.8152478904, -19.9401778580)
 A3 = ( -12.8922000000,   0.0000000000,   0.0000000000)


Analysis of symmetry for initial positions (statically):
=====================================================================
 Subroutine PRICEL returns:
 Original cell was already a primitive cell.
 

 Routine SETGRP: Setting up the symmetry group for a 
 triclinic supercell.


 Subroutine GETGRP returns: Found  1 space group operations
 (whereof  1 operations were pure point group operations)
 out of a pool of  2 trial point group operations.


The static configuration has the point symmetry C_1 .


Analysis of symmetry for dynamics (positions and initial velocities):
=====================================================================
 Subroutine PRICEL returns:
 Original cell was already a primitive cell.
 

 Routine SETGRP: Setting up the symmetry group for a 
 triclinic supercell.


 Subroutine GETGRP returns: Found  1 space group operations
 (whereof  1 operations were pure point group operations)
 out of a pool of  2 trial point group operations.


The dynamic configuration has the point symmetry C_1 .


Analysis of structural, dynamic, and magnetic symmetry:
=====================================================================
 Subroutine PRICEL returns:
 Original cell was already a primitive cell.
 

 Routine SETGRP: Setting up the symmetry group for a 
 triclinic supercell.


 Subroutine GETGRP returns: Found  1 space group operations
 (whereof  1 operations were pure point group operations)
 out of a pool of  2 trial point group operations.


The magnetic configuration has the point symmetry C_1 .


 Subroutine INISYM returns: Found  1 space group operations
 (whereof  1 operations are pure point group operations),
 and found     1 'primitive' translations

 
 
 KPOINTS: KPOINTS created by Atomic Simulation Env

Automatic generation of k-mesh.
Space group operators:
 irot       det(A)        alpha          n_x          n_y          n_z        tau_x        tau_y        tau_z
    1     1.000000     0.000001     1.000000     0.000000     0.000000     0.000000     0.000000     0.000000
 
 Subroutine IBZKPT returns following result:
 ===========================================
 
 Found      2 irreducible k-points:
 
 Following reciprocal coordinates:
            Coordinates               Weight
  0.250000  0.250000 -0.000000      2.000000
 -0.250000  0.250000 -0.000000      2.000000
 
 Following cartesian coordinates:
            Coordinates               Weight
  0.019392  0.020413  0.000550      2.000000
 -0.019392  0.020048  0.000378      2.000000
 
 
 Subroutine IBZKPT_HF returns following result:
 ==============================================
 
 Found      4 k-points in 1st BZ
 the following      4 k-points will be used (e.g. in the exchange kernel)
 Following reciprocal coordinates:   # in IRBZ
  0.250000  0.250000 -0.000000    0.25000000   1 t-inv F
 -0.250000  0.250000 -0.000000    0.25000000   2 t-inv F
 -0.250000 -0.250000  0.000000    0.25000000   1 t-inv T
  0.250000 -0.250000  0.000000    0.25000000   2 t-inv T


--------------------------------------------------------------------------------------------------------




 Dimension of arrays:
   k-points           NKPTS =      2   k-points in BZ     NKDIM =      4   number of bands    NBANDS=    160
   number of dos      NEDOS =    301   number of ions     NIONS =     60
   non local maximal  LDIM  =      6   non local SUM 2l+1 LMDIM =     18
   total plane-waves  NPLWV = ******
   max r-space proj   IRMAX =      1   max aug-charges    IRDMAX=  21038
   dimension x,y,z NGX =    96 NGY =   90 NGZ =  150
   dimension x,y,z NGXF=   192 NGYF=  180 NGZF=  300
   support grid    NGXF=   192 NGYF=  180 NGZF=  300
   ions per type =              54   4   1   1
   NGX,Y,Z   is equivalent  to a cutoff of  12.38, 12.11, 12.50 a.u.
   NGXF,Y,Z  is equivalent  to a cutoff of  24.76, 24.21, 25.00 a.u.

 SYSTEM =  unknown system                          
 POSCAR =   C  N Fe Cr                             

 Startparameter for this run:
   NWRITE =      2    write-flag & timer
   PREC   = accura    normal or accurate (medium, high low for compatibility)
   ISTART =      1    job   : 0-new  1-cont  2-samecut
   ICHARG =      0    charge: 1-file 2-atom 10-const
   ISPIN  =      2    spin polarized calculation?
   LNONCOLLINEAR =      F non collinear calculations
   LSORBIT =      F    spin-orbit coupling
   INIWAV =      1    electr: 0-lowe 1-rand  2-diag
   LASPH  =      T    aspherical Exc in radial PAW
   METAGGA=      F    non-selfconsistent MetaGGA calc.

 Electronic Relaxation 1
   ENCUT  =  500.0 eV  36.75 Ry    6.06 a.u.  23.51 22.53 36.37*2*pi/ulx,y,z
   ENINI  =  500.0     initial cutoff
   ENAUG  =  644.9 eV  augmentation charge cutoff
   NELM   =    250;   NELMIN=  2; NELMDL=  0     # of ELM steps 
   EDIFF  = 0.1E-03   stopping-criterion for ELM
   LREAL  =      F    real-space projection
   NLSPLINE    = F    spline interpolate recip. space projectors
   LCOMPAT=      F    compatible to vasp.4.4
   GGA_COMPAT  = T    GGA compatible to vasp.4.4-vasp.4.6
   LMAXPAW     = -100 max onsite density
   LMAXMIX     =    2 max onsite mixed and CHGCAR
   VOSKOWN=      0    Vosko Wilk Nusair interpolation
   ROPT   =    0.00000   0.00000   0.00000   0.00000
 Ionic relaxation
   EDIFFG = -.3E-01   stopping-criterion for IOM
   NSW    =      0    number of steps for IOM
   NBLOCK =      1;   KBLOCK =      1    inner block; outer block 
   IBRION =     -1    ionic relax: 0-MD 1-quasi-New 2-CG
   NFREE  =      1    steps in history (QN), initial steepest desc. (CG)
   ISIF   =      2    stress and relaxation
   IWAVPR =     10    prediction:  0-non 1-charg 2-wave 3-comb
   ISYM   =      3    0-nonsym 1-usesym 2-fastsym
   LCORR  =      T    Harris-Foulkes like correction to forces

   POTIM  = 0.5000    time-step for ionic-motion
   TEIN   =    0.0    initial temperature
   TEBEG  =    0.0;   TEEND  =   0.0 temperature during run
   SMASS  =  -3.00    Nose mass-parameter (am)
   estimated Nose-frequenzy (Omega)   =  0.10E-29 period in steps =****** mass=  -0.380E-26a.u.
   SCALEE = 1.0000    scale energy and forces
   NPACO  =    256;   APACO  = 16.0  distance and # of slots for P.C.
   PSTRESS=    0.0 pullay stress

  Mass of Ions in am
   POMASS =  12.01 14.00 55.85 52.00
  Ionic Valenz
   ZVAL   =   4.00  5.00  8.00  6.00
  Atomic Wigner-Seitz radii
   RWIGS  =  -1.00 -1.00 -1.00 -1.00
  virtual crystal weights 
   VCA    =   1.00  1.00  1.00  1.00
   NELECT =     250.0000    total number of electrons
   NUPDOWN=      -1.0000    fix difference up-down

 DOS related values:
   EMIN   =  10.00;   EMAX   =-10.00  energy-range for DOS
   EFERMI =   0.00
   ISMEAR =     0;   SIGMA  =   0.10  broadening in eV -4-tet -1-fermi 0-gaus

 Electronic relaxation 2 (details)
   IALGO  =     53    algorithm
   LDIAG  =      T    sub-space diagonalisation (order eigenvalues)
   LSUBROT=      F    optimize rotation matrix (better conditioning)
   TURBO    =      0    0=normal 1=particle mesh
   IRESTART =      0    0=no restart 2=restart with 2 vectors
   NREBOOT  =      0    no. of reboots
   NMIN     =      0    reboot dimension
   EREF     =   0.00    reference energy to select bands
   IMIX   =      4    mixing-type and parameters
     AMIX     =   0.40;   BMIX     =  1.00
     AMIX_MAG =   1.60;   BMIX_MAG =  1.00
     AMIN     =   0.10
     WC   =   100.;   INIMIX=   1;  MIXPRE=   1;  MAXMIX= -45

 Intra band minimization:
   WEIMIN = 0.0000     energy-eigenvalue tresh-hold
   EBREAK =  0.16E-06  absolut break condition
   DEPER  =   0.30     relativ break condition  

   TIME   =   0.20     timestep for ELM

  volume/ion in A,a.u.               =      52.95       357.31
  Fermi-wavevector in a.u.,A,eV,Ry     =   0.701544  1.325727  6.696305  0.492164
  Thomas-Fermi vector in A             =   1.786000
 
 Write flags
   LWAVE        =      T    write WAVECAR
   LDOWNSAMPLE  =      F    k-point downsampling of WAVECAR
   LCHARG       =      T    write CHGCAR
   LVTOT        =      F    write LOCPOT, total local potential
   LVHAR        =      F    write LOCPOT, Hartree potential only
   LELF         =      F    write electronic localiz. function (ELF)
   LORBIT       =     11    0 simple, 1 ext, 2 COOP (PROOUT), +10 PAW based schemes


 Dipole corrections
   LMONO  =      F    monopole corrections only (constant potential shift)
   LDIPOL =      T    correct potential (dipole corrections)
   IDIPOL =      3    1-x, 2-y, 3-z, 4-all directions 
   EPSILON=  1.0000000 bulk dielectric constant

 Exchange correlation treatment:
   GGA     =    PE    GGA type
   LEXCH   =     8    internal setting for exchange type
   VOSKOWN=      0    Vosko Wilk Nusair interpolation
   EXXOEP  =     0    0=HF, 1=EXX-LHF (local Hartree Fock) 2=EXX OEP
   LHFCALC =     T    Hartree Fock is set to
   LSYMGRAD=     F    symmetrize gradient (conserves proper symmetry)
   PRECFOCK=normal    Normal, Fast or Accurate (Low or Medium for compatibility)
   LRHFCALC=     F    long range Hartree Fock
   LRSCOR  =     F    long range correlation only (use DFT for short range part)
   LTHOMAS =     F    Thomas Fermi screening in HF
   LMODELHF=     F    short range full HF, long range fraction AEXX
   ENCUT4O =  -1.0   cutoff for four orbital integrals eV
   LMAXFOCK=     4    L truncation for augmentation on plane wave grid
   LMAXFOCKAE=  -1    L truncation for all-electron charge restoration on plane wave grid
   NMAXFOCKAE=   1    number of basis functions for all-electron charge restoration
   LFOCKAEDFT=     F  apply the AE augmentation even for DFT
   NKREDX  =     1    reduce k-point grid by
   NKREDY  =     1    reduce k-point grid by
   NKREDZ  =     1    reduce k-point grid by
   SHIFTRED=     F    shift reduced grid of Gamma
   HFKIDENT=     F    idential grid for each k-point
   ODDONLY =     F    use only odd q-grid points
   EVENONLY=     F    use only even q-grid points
   HFALPHA =   -1.0000 decay constant for conv. correction
   MCALPHA =    0.0000 extent of test-charge in conv. correction in multipole expansion
   AEXX    =    0.2500 exact exchange contribution
   HFSCREEN=    0.2000 screening length (either q_TF or 0.3 A-1)
   HFSCREENC=   0.2000 screening length for correlation (either q_TF or 0.3 A-1)
   HFRCUT  =    0.0000 spherical cutoff for potential kernel
   ALDAX   =    0.7500 LDA exchange part
   AGGAX   =    0.7500 GGA exchange part
   ALDAC   =    1.0000 LDA correlation
   AGGAC   =    1.0000 GGA correlation
   ENCUTFOCK=  -1.0 apply spherical cutoff to Coloumb kernel
   NBANDSGWLOW=     1    first orbital included in HF term
   NBLOCK_FOCK=    64    blocking factor in FOCK_ACC
 Linear response parameters
   LEPSILON=     F    determine dielectric tensor
   LRPA    =     F    only Hartree local field effects (RPA)
   LNABLA  =     F    use nabla operator in PAW spheres
   LVEL    =     F    velocity operator in full k-point grid
   LINTERFAST=   F  fast interpolation
   KINTER  =     0    interpolate to denser k-point grid
   CSHIFT  =0.1000    complex shift for real part using Kramers Kronig
   OMEGAMAX=  -1.0    maximum frequency
   DEG_THRESHOLD= 0.2000000E-02 threshold for treating states as degnerate
   RTIME   =   -0.100 relaxation time in fs
  (WPLASMAI=    0.000 imaginary part of plasma frequency in eV, 0.658/RTIME)
   DFIELD  = 0.0000000 0.0000000 0.0000000 field for delta impulse in time
 
 Orbital magnetization related:
   ORBITALMAG=     F  switch on orbital magnetization
   LCHIMAG   =     F  perturbation theory with respect to B field
   DQ        =  0.001000  dq finite difference perturbation B field
   LLRAUG    =     F  two centre corrections for induced B field



--------------------------------------------------------------------------------------------------------


 Static calculation
 charge density and potential will be updated during run
 spin polarized calculation
 Conjugate gradient for all bands (Freysoldt, et al. PRB 79, 241103 (2009))
 perform sub-space diagonalisation
    before iterative eigenvector-optimisation
 modified Broyden-mixing scheme, WC =      100.0
 initial mixing is a Kerker type mixing with AMIX =  0.4000 and BMIX =      1.0000
 Hartree-type preconditioning will be used
 using additional bands           35
 reciprocal scheme for non local part
 use partial core corrections
 no Harris-corrections to forces 
 use gradient corrections 
 use of overlap-Matrix (Vanderbilt PP)
 Gauss-broadening in eV      SIGMA  =   0.10


--------------------------------------------------------------------------------------------------------


  energy-cutoff  :      500.00
  volume of cell :     3176.87
      direct lattice vectors                 reciprocal lattice vectors
    12.892200000  0.000000000  0.000000000     0.077566280  0.000729983  0.000343501
    -0.116300903 12.357852753  0.000000000     0.000000000  0.080920207  0.001856177
    -0.084000237 -0.457395138 19.940177858     0.000000000  0.000000000  0.050150004

  length of vectors
    12.892200000 12.358400000 19.945600000     0.077570476  0.080941493  0.050150004


 
 old parameters found on file WAVECAR:
  energy-cutoff  :      500.00
  volume of cell :     3176.87
      direct lattice vectors                 reciprocal lattice vectors
    12.892200000  0.000000000  0.000000000     0.077566280  0.000729983  0.000343501
    -0.116300903 12.357852753  0.000000000     0.000000000  0.080920207  0.001856177
    -0.084000237 -0.457395138 19.940177858     0.000000000  0.000000000  0.050150004

  length of vectors

 
 k-points in units of 2pi/SCALE and weight: KPOINTS created by Atomic Simulation Env
   0.01939157  0.02041255  0.00054992       0.500
  -0.01939157  0.02004756  0.00037817       0.500
 
 k-points in reciprocal lattice and weights: KPOINTS created by Atomic Simulation Env
   0.25000000  0.25000000 -0.00000000       0.500
  -0.25000000  0.25000000 -0.00000000       0.500
 
 position of ions in fractional coordinates (direct lattice) 
   0.22100250  0.00290843  0.49576679
   0.05554838  0.10202320  0.49246675
   0.10998836  0.00223312  0.49308382
   0.27752509  0.10352474  0.49778722
   0.22374992  0.20493193  0.49956543
   0.05587535  0.30152786  0.49385105
   0.11211806  0.20275174  0.49522088
   0.28036468  0.30677883  0.50643970
   0.22029983  0.40679321  0.50733836
   0.05402163  0.50190290  0.49579822
   0.11032981  0.40266872  0.49767139
   0.21776247  0.60299603  0.50841767
   0.05312603  0.70214339  0.49310058
   0.10848988  0.60305691  0.49766327
   0.27344828  0.70478111  0.50874282
   0.21882339  0.80274832  0.49850116
   0.05377307  0.90195052  0.49152147
   0.10847132  0.80232771  0.49341834
   0.27530577  0.90292432  0.49835272
   0.55426562  0.99801309  0.49817442
   0.38844312  0.10103556  0.49804220
   0.44332648  0.00056932  0.49814518
   0.61076350  0.09846581  0.49621251
   0.55642793  0.19863332  0.49880034
   0.39358478  0.30170240  0.50884762
   0.44543283  0.20044899  0.50076430
   0.61282015  0.29879470  0.49920592
   0.55793065  0.39745430  0.50936424
   0.61420474  0.49881127  0.50851320
   0.61167592  0.69573122  0.50775819
   0.55146390  0.79543516  0.50698429
   0.38636779  0.90137338  0.50069620
   0.43846374  0.80098813  0.50909408
   0.60806493  0.89681299  0.50002546
   0.88752408  0.00028251  0.49080917
   0.72167612  0.09895683  0.49351498
   0.77611831  0.99912076  0.49273352
   0.94409722  0.10075109  0.49078451
   0.88883812  0.20006924  0.49074590
   0.72311166  0.29883446  0.49396164
   0.77784072  0.19911369  0.49193414
   0.94477441  0.30054393  0.49129664
   0.88912521  0.39990728  0.49168912
   0.72318525  0.49829225  0.49771367
   0.77850712  0.39893681  0.49335985
   0.94377794  0.50077265  0.49266211
   0.88778339  0.60032668  0.49263517
   0.72135907  0.69884688  0.49781105
   0.77758487  0.59940144  0.49582875
   0.94248488  0.70110147  0.49151850
   0.88683542  0.80046804  0.49116076
   0.71958998  0.89861152  0.49551495
   0.77580165  0.79968565  0.49392338
   0.94276221  0.90093767  0.49055786
   0.26777423  0.50658107  0.51977129
   0.45253593  0.39459441  0.52113624
   0.56510731  0.59655204  0.52022933
   0.37897316  0.70945381  0.52132409
   0.37330593  0.47699477  0.58517655
   0.45177592  0.61733039  0.58073103
 
 position of ions in cartesian coordinates  (Angst):
   2.80722564 -0.19081941  9.88567798
   0.66290805  1.03553576  9.81987459
   1.37631302 -0.19793757  9.83217915
   3.52405472  1.05165805  9.92596570
   2.81883129  2.30401982  9.96142354
   0.64380456  3.50035179  9.84747769
   1.38026959  2.27906449  9.87479248
   3.53629787  3.55948461 10.09849764
   2.75022256  4.79503653 10.11641717
   0.59643871  5.97566649  9.88630470
   1.33375873  4.74848831  9.92365603
   2.69460117  7.21918837 10.13793883
   0.56183090  8.45144282  9.83251318
   1.28673339  7.22485971  9.92349408
   3.40064869  8.47688473 10.14442241
   2.68588029  9.69223359  9.94020174
   0.54706759 10.92135218  9.80102562
   1.26367522  9.68936051  9.83884950
   3.40242433 10.93026167  9.93724184
   6.98778660 12.10543620  9.93368644
   4.95430020  1.02078050  9.93105009
   5.67354312 -0.22081361  9.93310357
   7.82095152  0.98986077  9.89456574
   7.10857963  2.22653247  9.94616752
   4.99634215  3.49564938 10.14651204
   5.67723241  2.24807196  9.98532920
   7.82391647  3.46412657  9.95425488
   7.10394247  4.67870104 10.15681356
   7.81772291  5.93164479 10.13984362
   7.76228238  8.36549785 10.12478854
   6.97448631  9.59797845 10.10935701
   4.83424170 10.91002350  9.98397137
   5.51684258  9.66563624 10.15142652
   7.69299230 10.85397370  9.97059653
  11.40087705 -0.22100246  9.78682211
   9.25102870  0.99716260  9.84077656
   9.84828408 12.12161332  9.82519411
  12.11854678  1.02058465  9.78633038
  11.39458781  2.24796143  9.78556043
   9.24625255  3.46701664  9.84968290
   9.96359851  2.23560941  9.80925430
  12.10399803  3.48936098  9.79654247
  11.37496847  4.71709911  9.80436846
   9.22368897  5.93017042  9.92449914
   9.94883042  4.70434197  9.83768326
  12.06774992  5.96313345  9.82377010
  11.33428097  7.19341974  9.82323290
   9.17681268  8.40855050  9.92644080
   9.91341896  7.18052510  9.88691340
  12.02787711  8.43929051  9.80096632
  11.29890686  9.66741162  9.79383281
   9.13096522 10.87826277  9.88065625
   9.86729618  9.65647941  9.84892001
  12.00829207 10.90927625  9.78181092
   3.34962213  6.02251336 10.36433205
   5.74451643  4.63797447 10.39154925
   7.17239756  7.13415191 10.37346539
   4.75949631  8.52887461 10.39529501
   4.70810484  5.62697427 11.66852452
   5.70380784  7.36325445 11.57988002
 


--------------------------------------------------------------------------------------------------------


 k-point  1 :   0.2500 0.2500-0.0000  plane waves:   80656
 k-point  2 :  -0.2500 0.2500-0.0000  plane waves:   80675

 maximum and minimum number of plane-waves per node :      5079     5019

 maximum number of plane-waves:     80675
 maximum index in each direction: 
   IXMAX=   23   IYMAX=   22   IZMAX=   36
   IXMIN=  -23   IYMIN=  -22   IZMIN=  -36


 parallel 3D FFT for wavefunctions:
    minimum data exchange during FFTs selected (reduces bandwidth)
 parallel 3D FFT for charge:
    minimum data exchange during FFTs selected (reduces bandwidth)


 FFT grid for exact exchange (Hartree Fock) 
  NGX = 72; NGY = 70; NGZ =112

 
 Radii for the augmentation spheres in the non-local exchange
 for species   1 augmentation radius   0.874 (default was   0.699)
       energy cutoff for augmentation   2000.0
 for species   2 augmentation radius   0.886 (default was   0.709)
       energy cutoff for augmentation   2000.0
 for species   3 augmentation radius   1.263 (default was   1.010)
       energy cutoff for augmentation   2000.0
 for species   4 augmentation radius   1.424 (default was   1.139)
       energy cutoff for augmentation   2000.0

 real space projection operators:
  total allocation   :       2722.28 KBytes
  max/ min on nodes  :        194.05        139.99

 Maximum index for augmentation-charges in exchange          200
  SETUP_FOCK is finished

 total amount of memory used by VASP MPI-rank0   296562. kBytes
=======================================================================

   base      :      30000. kBytes
   nonl-proj :      10743. kBytes
   fftplans  :      26523. kBytes
   grid      :      69087. kBytes
   one-center:        124. kBytes
   HF        :         23. kBytes
   nonlr-proj:       2502. kBytes
   wavefun   :     157560. kBytes
 
     INWAV:  cpu time    6.3452: real time    8.9965
 Broyden mixing: mesh for mixing (old mesh)
   NGX = 47   NGY = 45   NGZ = 73
  (NGX  =192   NGY  =180   NGZ  =300)
  gives a total of 154395 points

 charge density for first step will be calculated from the start-wavefunctions


--------------------------------------------------------------------------------------------------------


 Maximum index for augmentation-charges         1378 (set IRDMAX)


--------------------------------------------------------------------------------------------------------


 initial charge from wavefunction
 First call to EWALD:  gamma=   0.121
 Maximum number of real-space cells 3x 3x 2
 Maximum number of reciprocal cells 2x 2x 4

    FEWALD:  cpu time    0.0129: real time    0.0129


--------------------------------------- Iteration      1(   1)  ---------------------------------------


    POTLOK:  cpu time    6.3402: real time    6.3495
    SETDIJ:  cpu time    3.1828: real time    3.1854
    TRIAL :  cpu time  606.8540: real time  607.8410
    CORREC:  cpu time    0.0060: real time    0.0060
    CHARGE:  cpu time    1.7871: real time    1.7898
    --------------------------------------------
      LOOP:  cpu time  618.2250: real time  619.2295

 eigenvalue-minimisations  :     0
 total energy-change (2. order) :-0.6294660E+03  (-0.4661406E+00)
 number of electron     249.9999994 magnetization       5.2131865
 augmentation part       12.8051415 magnetization       3.0652416

 DIPCOR: dipole corrections for dipol
 direction  3 min pos     1,
 dipolmoment           0.000427      0.002327     -0.101460 electrons x Angstroem
 Tr[quadrupol]     -6849.573321

 energy correction for charged system         0.000000 eV
 dipol+quadrupol energy correction           -0.000295 eV
 added-field ion interaction          0.120398 eV  (added to PSCEN)


 Free energy of the ion-electron system (eV)
  ---------------------------------------------------
  alpha Z        PSCENC =       106.39250869
  Ewald energy   TEWEN  =     40169.98237315
  -Hartree energ DENC   =    -48582.77852202
  -exchange      EXHF   =       562.49868412
  -V(xc)+E(xc)   XCENC  =       619.42410740
  PAW double counting   =     26868.24752395   -26891.27742752
  entropy T*S    EENTRO =        -0.04092138
  eigenvalues    EBANDS =     -3240.84452967
  atomic energy  EATOM  =      9758.93285476
  ---------------------------------------------------
  free energy    TOTEN  =      -629.46596261 eV

  energy without entropy =     -629.42504123  energy(sigma->0) =     -629.44550192
  exchange ACFDT corr.  =        -0.02660582  see jH, gK, PRB 81, 115126


--------------------------------------------------------------------------------------------------------




--------------------------------------- Iteration      1(   2)  ---------------------------------------


    POTLOK:  cpu time    6.4087: real time    6.4163
    SETDIJ:  cpu time    3.2111: real time    3.2143
    TRIAL :  cpu time  606.2551: real time  607.2805
    CORREC:  cpu time    0.0040: real time    0.0040
    CHARGE:  cpu time    1.6511: real time    1.6535
    --------------------------------------------
      LOOP:  cpu time  617.5405: real time  618.5802

 eigenvalue-minimisations  :     0
 total energy-change (2. order) :-0.3824031E+00  (-0.4087477E+00)
 number of electron     249.9999994 magnetization       5.2644415
 augmentation part       12.7769661 magnetization       3.1602164

 DIPCOR: dipole corrections for dipol
 direction  3 min pos     1,
 dipolmoment           0.000585      0.003187     -0.138950 electrons x Angstroem
 Tr[quadrupol]     -6849.482745

 energy correction for charged system         0.000000 eV
 dipol+quadrupol energy correction           -0.000553 eV
 added-field ion interaction          0.164887 eV  (added to PSCEN)


 Free energy of the ion-electron system (eV)
  ---------------------------------------------------
  alpha Z        PSCENC =       106.43673903
  Ewald energy   TEWEN  =     40169.98237315
  -Hartree energ DENC   =    -48568.64892316
  -exchange      EXHF   =       562.37674612
  -V(xc)+E(xc)   XCENC  =       619.07101592
  PAW double counting   =     27003.34102215   -27025.87064453
  entropy T*S    EENTRO =        -0.03895025
  eigenvalues    EBANDS =     -3255.42862781
  atomic energy  EATOM  =      9758.93285476
  ---------------------------------------------------
  free energy    TOTEN  =      -629.84836574 eV

  energy without entropy =     -629.80941549  energy(sigma->0) =     -629.82889062
  exchange ACFDT corr.  =        -0.02615410  see jH, gK, PRB 81, 115126


--------------------------------------------------------------------------------------------------------




--------------------------------------- Iteration      1(   3)  ---------------------------------------


    POTLOK:  cpu time    6.4718: real time    6.4802
    SETDIJ:  cpu time    3.2177: real time    3.2208
    TRIAL :  cpu time  603.6903: real time  604.7145
    CORREC:  cpu time    0.0057: real time    0.0057
    CHARGE:  cpu time    1.7351: real time    1.7374
    --------------------------------------------
      LOOP:  cpu time  615.1292: real time  616.1706

 eigenvalue-minimisations  :     0
 total energy-change (2. order) :-0.3134106E+00  (-0.2373079E+00)
 number of electron     249.9999994 magnetization       5.3001758
 augmentation part       12.7789503 magnetization       3.2402581

 DIPCOR: dipole corrections for dipol
 direction  3 min pos     1,
 dipolmoment           0.000687      0.003740     -0.163054 electrons x Angstroem
 Tr[quadrupol]     -6849.405758

 energy correction for charged system         0.000000 eV
 dipol+quadrupol energy correction           -0.000761 eV
 added-field ion interaction          0.193490 eV  (added to PSCEN)


 Free energy of the ion-electron system (eV)
  ---------------------------------------------------
  alpha Z        PSCENC =       106.46513391
  Ewald energy   TEWEN  =     40169.98237315
  -Hartree energ DENC   =    -48554.96183534
  -exchange      EXHF   =       562.31599785
  -V(xc)+E(xc)   XCENC  =       618.71658277
  PAW double counting   =     27176.86141554   -27199.13180669
  entropy T*S    EENTRO =        -0.03797447
  eigenvalues    EBANDS =     -3269.30354203
  atomic energy  EATOM  =      9758.93285476
  ---------------------------------------------------
  free energy    TOTEN  =      -630.16177632 eV

  energy without entropy =     -630.12380184  energy(sigma->0) =     -630.14278908
  exchange ACFDT corr.  =        -0.02199751  see jH, gK, PRB 81, 115126


--------------------------------------------------------------------------------------------------------




--------------------------------------- Iteration      1(   4)  ---------------------------------------


    POTLOK:  cpu time    6.4845: real time    6.4921
    SETDIJ:  cpu time    3.2021: real time    3.2056
    TRIAL :  cpu time  603.8677: real time  604.8905
    CORREC:  cpu time    0.0057: real time    0.0057
    CHARGE:  cpu time    1.7517: real time    1.7538
    --------------------------------------------
      LOOP:  cpu time  615.3213: real time  616.3603

 eigenvalue-minimisations  :     0
 total energy-change (2. order) :-0.1812908E+00  (-0.1353480E+00)
 number of electron     249.9999994 magnetization       5.3232621
 augmentation part       12.7890968 magnetization       3.2939664

 DIPCOR: dipole corrections for dipol
 direction  3 min pos     1,
 dipolmoment           0.000762      0.004150     -0.180909 electrons x Angstroem
 Tr[quadrupol]     -6849.430073

 energy correction for charged system         0.000000 eV
 dipol+quadrupol energy correction           -0.000937 eV
 added-field ion interaction          0.214677 eV  (added to PSCEN)


 Free energy of the ion-electron system (eV)
  ---------------------------------------------------
  alpha Z        PSCENC =       106.48614540
  Ewald energy   TEWEN  =     40169.98237315
  -Hartree energ DENC   =    -48550.01619475
  -exchange      EXHF   =       562.44992419
  -V(xc)+E(xc)   XCENC  =       618.58396329
  PAW double counting   =     27324.24006021   -27346.57799336
  entropy T*S    EENTRO =        -0.03744008
  eigenvalues    EBANDS =     -3274.38622559
  atomic energy  EATOM  =      9758.93285476
  ---------------------------------------------------
  free energy    TOTEN  =      -630.34306716 eV

  energy without entropy =     -630.30562708  energy(sigma->0) =     -630.32434712
  exchange ACFDT corr.  =        -0.02125274  see jH, gK, PRB 81, 115126


--------------------------------------------------------------------------------------------------------




--------------------------------------- Iteration      1(   5)  ---------------------------------------


    POTLOK:  cpu time    6.4995: real time    6.5080
    SETDIJ:  cpu time    3.1951: real time    3.1976
    TRIAL :  cpu time  603.4339: real time  604.4653
    CORREC:  cpu time    0.0044: real time    0.0044
    CHARGE:  cpu time    1.6442: real time    1.6473
    --------------------------------------------
      LOOP:  cpu time  614.7908: real time  615.8382

 eigenvalue-minimisations  :     0
 total energy-change (2. order) :-0.1083310E+00  (-0.8764747E-01)
 number of electron     249.9999994 magnetization       5.3401602
 augmentation part       12.7934341 magnetization       3.3278765

 DIPCOR: dipole corrections for dipol
 direction  3 min pos     1,
 dipolmoment           0.000861      0.004686     -0.204300 electrons x Angstroem
 Tr[quadrupol]     -6849.535640

 energy correction for charged system         0.000000 eV
 dipol+quadrupol energy correction           -0.001195 eV
 added-field ion interaction          0.242434 eV  (added to PSCEN)


 Free energy of the ion-electron system (eV)
  ---------------------------------------------------
  alpha Z        PSCENC =       106.51364479
  Ewald energy   TEWEN  =     40169.98237315
  -Hartree energ DENC   =    -48552.55101528
  -exchange      EXHF   =       562.73019131
  -V(xc)+E(xc)   XCENC  =       618.65622801
  PAW double counting   =     27429.19885483   -27451.66484037
  entropy T*S    EENTRO =        -0.03703395
  eigenvalues    EBANDS =     -3272.21224924
  atomic energy  EATOM  =      9758.93285476
  ---------------------------------------------------
  free energy    TOTEN  =      -630.45139811 eV

  energy without entropy =     -630.41436416  energy(sigma->0) =     -630.43288113
  exchange ACFDT corr.  =        -0.02082828  see jH, gK, PRB 81, 115126


--------------------------------------------------------------------------------------------------------




--------------------------------------- Iteration      1(   6)  ---------------------------------------


    POTLOK:  cpu time    6.4646: real time    6.4726
    SETDIJ:  cpu time    3.2143: real time    3.2171
    TRIAL :  cpu time  603.4302: real time  604.9555
    CORREC:  cpu time    0.0062: real time    0.0062
    CHARGE:  cpu time    1.7675: real time    1.7718
    --------------------------------------------
      LOOP:  cpu time  614.8908: real time  616.4338

 eigenvalue-minimisations  :     0
 total energy-change (2. order) :-0.7269814E-01  (-0.5851287E-01)
 number of electron     249.9999995 magnetization       5.3561846
 augmentation part       12.7941742 magnetization       3.3521093

 DIPCOR: dipole corrections for dipol
 direction  3 min pos     1,
 dipolmoment           0.000943      0.005136     -0.223898 electrons x Angstroem
 Tr[quadrupol]     -6849.643368

 energy correction for charged system         0.000000 eV
 dipol+quadrupol energy correction           -0.001435 eV
 added-field ion interaction          0.265691 eV  (added to PSCEN)


 Free energy of the ion-electron system (eV)
  ---------------------------------------------------
  alpha Z        PSCENC =       106.53666123
  Ewald energy   TEWEN  =     40169.98237315
  -Hartree energ DENC   =    -48557.28842974
  -exchange      EXHF   =       563.02793337
  -V(xc)+E(xc)   XCENC  =       618.80340491
  PAW double counting   =     27496.37237388   -27518.86428747
  entropy T*S    EENTRO =        -0.03656902
  eigenvalues    EBANDS =     -3267.98994640
  atomic energy  EATOM  =      9758.93285476
  ---------------------------------------------------
  free energy    TOTEN  =      -630.52409624 eV

  energy without entropy =     -630.48752722  energy(sigma->0) =     -630.50581173
  exchange ACFDT corr.  =        -0.02050636  see jH, gK, PRB 81, 115126


--------------------------------------------------------------------------------------------------------




--------------------------------------- Iteration      1(   7)  ---------------------------------------


    POTLOK:  cpu time    6.4548: real time    6.4624
    SETDIJ:  cpu time    3.2134: real time    3.2158
    TRIAL :  cpu time  602.0134: real time  603.0435
    CORREC:  cpu time    0.0027: real time    0.0027
    CHARGE:  cpu time    1.6355: real time    1.6384
    --------------------------------------------
      LOOP:  cpu time  613.3266: real time  614.3720

 eigenvalue-minimisations  :     0
 total energy-change (2. order) :-0.4963739E-01  (-0.3994104E-01)
 number of electron     249.9999995 magnetization       5.3725793
 augmentation part       12.7971323 magnetization       3.3732954

 DIPCOR: dipole corrections for dipol
 direction  3 min pos     1,
 dipolmoment           0.000964      0.005250     -0.228878 electrons x Angstroem
 Tr[quadrupol]     -6849.701453

 energy correction for charged system         0.000000 eV
 dipol+quadrupol energy correction           -0.001500 eV
 added-field ion interaction          0.271600 eV  (added to PSCEN)


 Free energy of the ion-electron system (eV)
  ---------------------------------------------------
  alpha Z        PSCENC =       106.54250609
  Ewald energy   TEWEN  =     40169.98237315
  -Hartree energ DENC   =    -48560.87047351
  -exchange      EXHF   =       563.26343005
  -V(xc)+E(xc)   XCENC  =       618.93479070
  PAW double counting   =     27535.81135280   -27558.27992007
  entropy T*S    EENTRO =        -0.03598507
  eigenvalues    EBANDS =     -3264.85407859
  atomic energy  EATOM  =      9758.93285476
  ---------------------------------------------------
  free energy    TOTEN  =      -630.57373363 eV

  energy without entropy =     -630.53774856  energy(sigma->0) =     -630.55574109
  exchange ACFDT corr.  =        -0.02016678  see jH, gK, PRB 81, 115126


--------------------------------------------------------------------------------------------------------




--------------------------------------- Iteration      1(   8)  ---------------------------------------


    POTLOK:  cpu time    6.4340: real time    6.4470
    SETDIJ:  cpu time    3.2101: real time    3.2127
    TRIAL :  cpu time  602.2864: real time  603.2561
    CORREC:  cpu time    0.0043: real time    0.0043
    CHARGE:  cpu time    1.7081: real time    1.7106
    --------------------------------------------
      LOOP:  cpu time  613.6534: real time  614.6436

 eigenvalue-minimisations  :     0
 total energy-change (2. order) :-0.3488719E-01  (-0.2872741E-01)
 number of electron     249.9999995 magnetization       5.3877370
 augmentation part       12.8018059 magnetization       3.3930309

 DIPCOR: dipole corrections for dipol
 direction  3 min pos     1,
 dipolmoment           0.000932      0.005073     -0.221178 electrons x Angstroem
 Tr[quadrupol]     -6849.707713

 energy correction for charged system         0.000000 eV
 dipol+quadrupol energy correction           -0.001400 eV
 added-field ion interaction          0.262463 eV  (added to PSCEN)


 Free energy of the ion-electron system (eV)
  ---------------------------------------------------
  alpha Z        PSCENC =       106.53346789
  Ewald energy   TEWEN  =     40169.98237315
  -Hartree energ DENC   =    -48562.62759266
  -exchange      EXHF   =       563.42372035
  -V(xc)+E(xc)   XCENC  =       619.02485258
  PAW double counting   =     27557.15390169   -27579.64656512
  entropy T*S    EENTRO =        -0.03535601
  eigenvalues    EBANDS =     -3263.34964840
  atomic energy  EATOM  =      9758.93285476
  ---------------------------------------------------
  free energy    TOTEN  =      -630.60862083 eV

  energy without entropy =     -630.57326481  energy(sigma->0) =     -630.59094282
  exchange ACFDT corr.  =        -0.01977333  see jH, gK, PRB 81, 115126


--------------------------------------------------------------------------------------------------------




--------------------------------------- Iteration      1(   9)  ---------------------------------------


    POTLOK:  cpu time    6.4101: real time    6.4164
    SETDIJ:  cpu time    3.2027: real time    3.2048
    TRIAL :  cpu time  602.6366: real time  603.6208
    CORREC:  cpu time    0.0067: real time    0.0067
    CHARGE:  cpu time    1.6650: real time    1.6676
    --------------------------------------------
      LOOP:  cpu time  613.9312: real time  614.9285

 eigenvalue-minimisations  :     0
 total energy-change (2. order) :-0.2558017E-01  (-0.2119251E-01)
 number of electron     249.9999995 magnetization       5.4000739
 augmentation part       12.8054182 magnetization       3.4109142

 DIPCOR: dipole corrections for dipol
 direction  3 min pos     1,
 dipolmoment           0.000887      0.004830     -0.210546 electrons x Angstroem
 Tr[quadrupol]     -6849.686415

 energy correction for charged system         0.000000 eV
 dipol+quadrupol energy correction           -0.001269 eV
 added-field ion interaction          0.249847 eV  (added to PSCEN)


 Free energy of the ion-electron system (eV)
  ---------------------------------------------------
  alpha Z        PSCENC =       106.52098305
  Ewald energy   TEWEN  =     40169.98237315
  -Hartree energ DENC   =    -48563.07806191
  -exchange      EXHF   =       563.52607567
  -V(xc)+E(xc)   XCENC  =       619.07933844
  PAW double counting   =     27567.67240329   -27590.23125110
  entropy T*S    EENTRO =        -0.03479104
  eigenvalues    EBANDS =     -3263.00356035
  atomic energy  EATOM  =      9758.93285476
  ---------------------------------------------------
  free energy    TOTEN  =      -630.63420100 eV

  energy without entropy =     -630.59940996  energy(sigma->0) =     -630.61680548
  exchange ACFDT corr.  =        -0.01938347  see jH, gK, PRB 81, 115126


--------------------------------------------------------------------------------------------------------




--------------------------------------- Iteration      1(  10)  ---------------------------------------


    POTLOK:  cpu time    6.4036: real time    6.4101
    SETDIJ:  cpu time    3.2189: real time    3.2215
    TRIAL :  cpu time  602.4666: real time  603.4321
    CORREC:  cpu time    0.0093: real time    0.0093
    CHARGE:  cpu time    1.7475: real time    1.7505
    --------------------------------------------
      LOOP:  cpu time  613.8561: real time  614.8356

 eigenvalue-minimisations  :     0
 total energy-change (2. order) :-0.1914406E-01  (-0.1602816E-01)
 number of electron     249.9999995 magnetization       5.4093841
 augmentation part       12.8069534 magnetization       3.4266670

 DIPCOR: dipole corrections for dipol
 direction  3 min pos     1,
 dipolmoment           0.000862      0.004692     -0.204548 electrons x Angstroem
 Tr[quadrupol]     -6849.661478

 energy correction for charged system         0.000000 eV
 dipol+quadrupol energy correction           -0.001198 eV
 added-field ion interaction          0.242729 eV  (added to PSCEN)


 Free energy of the ion-electron system (eV)
  ---------------------------------------------------
  alpha Z        PSCENC =       106.51393631
  Ewald energy   TEWEN  =     40169.98237315
  -Hartree energ DENC   =    -48562.91735062
  -exchange      EXHF   =       563.59294464
  -V(xc)+E(xc)   XCENC  =       619.11171832
  PAW double counting   =     27572.18108982   -27594.80236357
  entropy T*S    EENTRO =        -0.03433792
  eigenvalues    EBANDS =     -3263.21375684
  atomic energy  EATOM  =      9758.93285476
  ---------------------------------------------------
  free energy    TOTEN  =      -630.65334506 eV

  energy without entropy =     -630.61900714  energy(sigma->0) =     -630.63617610
  exchange ACFDT corr.  =        -0.01907191  see jH, gK, PRB 81, 115126


--------------------------------------------------------------------------------------------------------




--------------------------------------- Iteration      1(  11)  ---------------------------------------


    POTLOK:  cpu time    6.3996: real time    6.4082
    SETDIJ:  cpu time    3.1935: real time    3.1959
    TRIAL :  cpu time  602.6317: real time  603.5994
    CORREC:  cpu time    0.0048: real time    0.0048
    CHARGE:  cpu time    1.6679: real time    1.6709
    --------------------------------------------
      LOOP:  cpu time  613.9071: real time  614.8907

 eigenvalue-minimisations  :     0
 total energy-change (2. order) :-0.1466738E-01  (-0.1240468E-01)
 number of electron     249.9999995 magnetization       5.4164432
 augmentation part       12.8074012 magnetization       3.4402926

 DIPCOR: dipole corrections for dipol
 direction  3 min pos     1,
 dipolmoment           0.000859      0.004675     -0.203827 electrons x Angstroem
 Tr[quadrupol]     -6849.643429

 energy correction for charged system         0.000000 eV
 dipol+quadrupol energy correction           -0.001189 eV
 added-field ion interaction          0.241873 eV  (added to PSCEN)


 Free energy of the ion-electron system (eV)
  ---------------------------------------------------
  alpha Z        PSCENC =       106.51308888
  Ewald energy   TEWEN  =     40169.98237315
  -Hartree energ DENC   =    -48562.60425027
  -exchange      EXHF   =       563.64101342
  -V(xc)+E(xc)   XCENC  =       619.13304781
  PAW double counting   =     27573.66668366   -27596.32527283
  entropy T*S    EENTRO =        -0.03398241
  eigenvalues    EBANDS =     -3263.57321311
  atomic energy  EATOM  =      9758.93285476
  ---------------------------------------------------
  free energy    TOTEN  =      -630.66801244 eV

  energy without entropy =     -630.63403004  energy(sigma->0) =     -630.65102124
  exchange ACFDT corr.  =        -0.01886281  see jH, gK, PRB 81, 115126


--------------------------------------------------------------------------------------------------------




--------------------------------------- Iteration      1(  12)  ---------------------------------------


    POTLOK:  cpu time    6.3787: real time    6.3860
    SETDIJ:  cpu time    3.1983: real time    3.2008
    TRIAL :  cpu time  602.0928: real time  603.5636
    CORREC:  cpu time    0.0078: real time    0.0078
    CHARGE:  cpu time    1.6815: real time    1.6848
    --------------------------------------------
      LOOP:  cpu time  613.3709: real time  614.8566

 eigenvalue-minimisations  :     0
 total energy-change (2. order) :-0.1146303E-01  (-0.9782829E-02)
 number of electron     249.9999995 magnetization       5.4221273
 augmentation part       12.8079490 magnetization       3.4519092

 DIPCOR: dipole corrections for dipol
 direction  3 min pos     1,
 dipolmoment           0.000862      0.004692     -0.204564 electrons x Angstroem
 Tr[quadrupol]     -6849.631332

 energy correction for charged system         0.000000 eV
 dipol+quadrupol energy correction           -0.001198 eV
 added-field ion interaction          0.242748 eV  (added to PSCEN)


 Free energy of the ion-electron system (eV)
  ---------------------------------------------------
  alpha Z        PSCENC =       106.51395547
  Ewald energy   TEWEN  =     40169.98237315
  -Hartree energ DENC   =    -48562.32247659
  -exchange      EXHF   =       563.67923573
  -V(xc)+E(xc)   XCENC  =       619.14945622
  PAW double counting   =     27573.94813102   -27596.62937194
  entropy T*S    EENTRO =        -0.03369506
  eigenvalues    EBANDS =     -3263.89965090
  atomic energy  EATOM  =      9758.93285476
  ---------------------------------------------------
  free energy    TOTEN  =      -630.67947548 eV

  energy without entropy =     -630.64578041  energy(sigma->0) =     -630.66262794
  exchange ACFDT corr.  =        -0.01874042  see jH, gK, PRB 81, 115126


--------------------------------------------------------------------------------------------------------




--------------------------------------- Iteration      1(  13)  ---------------------------------------


    POTLOK:  cpu time    6.3678: real time    6.3748
    SETDIJ:  cpu time    3.2038: real time    3.2071
    TRIAL :  cpu time  601.5568: real time  602.4871
    CORREC:  cpu time    0.0038: real time    0.0038
    CHARGE:  cpu time    1.7129: real time    1.7156
    --------------------------------------------
      LOOP:  cpu time  612.8555: real time  613.8011

 eigenvalue-minimisations  :     0
 total energy-change (2. order) :-0.9125867E-02  (-0.7878861E-02)
 number of electron     249.9999995 magnetization       5.4269328
 augmentation part       12.8088064 magnetization       3.4618266

 DIPCOR: dipole corrections for dipol
 direction  3 min pos     1,
 dipolmoment           0.000857      0.004669     -0.203532 electrons x Angstroem
 Tr[quadrupol]     -6849.621040

 energy correction for charged system         0.000000 eV
 dipol+quadrupol energy correction           -0.001186 eV
 added-field ion interaction          0.241524 eV  (added to PSCEN)


 Free energy of the ion-electron system (eV)
  ---------------------------------------------------
  alpha Z        PSCENC =       106.51274319
  Ewald energy   TEWEN  =     40169.98237315
  -Hartree energ DENC   =    -48562.09923292
  -exchange      EXHF   =       563.71147240
  -V(xc)+E(xc)   XCENC  =       619.16331113
  PAW double counting   =     27574.11667638   -27596.82210943
  entropy T*S    EENTRO =        -0.03345882
  eigenvalues    EBANDS =     -3264.15299495
  atomic energy  EATOM  =      9758.93285476
  ---------------------------------------------------
  free energy    TOTEN  =      -630.68860134 eV

  energy without entropy =     -630.65514252  energy(sigma->0) =     -630.67187193
  exchange ACFDT corr.  =        -0.01868484  see jH, gK, PRB 81, 115126


--------------------------------------------------------------------------------------------------------




--------------------------------------- Iteration      1(  14)  ---------------------------------------


    POTLOK:  cpu time    6.3421: real time    6.3495
    SETDIJ:  cpu time    3.2250: real time    3.2275
    TRIAL :  cpu time  601.4127: real time  602.3366
    CORREC:  cpu time    0.0062: real time    0.0062
    CHARGE:  cpu time    1.6449: real time    1.6472
    --------------------------------------------
      LOOP:  cpu time  612.6433: real time  613.5812

 eigenvalue-minimisations  :     0
 total energy-change (2. order) :-0.7408605E-02  (-0.6455176E-02)
 number of electron     249.9999995 magnetization       5.4310138
 augmentation part       12.8095082 magnetization       3.4704982

 DIPCOR: dipole corrections for dipol
 direction  3 min pos     1,
 dipolmoment           0.000845      0.004602     -0.200608 electrons x Angstroem
 Tr[quadrupol]     -6849.610541

 energy correction for charged system         0.000000 eV
 dipol+quadrupol energy correction           -0.001152 eV
 added-field ion interaction          0.238054 eV  (added to PSCEN)


 Free energy of the ion-electron system (eV)
  ---------------------------------------------------
  alpha Z        PSCENC =       106.50930711
  Ewald energy   TEWEN  =     40169.98237315
  -Hartree energ DENC   =    -48561.91230198
  -exchange      EXHF   =       563.73945099
  -V(xc)+E(xc)   XCENC  =       619.17522224
  PAW double counting   =     27574.75597368   -27597.49012781
  entropy T*S    EENTRO =        -0.03326785
  eigenvalues    EBANDS =     -3264.35530327
  atomic energy  EATOM  =      9758.93285476
  ---------------------------------------------------
  free energy    TOTEN  =      -630.69600995 eV

  energy without entropy =     -630.66274210  energy(sigma->0) =     -630.67937602
  exchange ACFDT corr.  =        -0.01868476  see jH, gK, PRB 81, 115126


--------------------------------------------------------------------------------------------------------




--------------------------------------- Iteration      1(  15)  ---------------------------------------


    POTLOK:  cpu time    6.3501: real time    6.3578
    SETDIJ:  cpu time    3.1998: real time    3.2022
    TRIAL :  cpu time  601.2407: real time  602.1765
    CORREC:  cpu time    0.0061: real time    0.0061
    CHARGE:  cpu time    1.6422: real time    1.6446
    --------------------------------------------
      LOOP:  cpu time  612.4532: real time  613.4031

 eigenvalue-minimisations  :     0
 total energy-change (2. order) :-0.6111976E-02  (-0.5376958E-02)
 number of electron     249.9999995 magnetization       5.4344196
 augmentation part       12.8097918 magnetization       3.4782685

 DIPCOR: dipole corrections for dipol
 direction  3 min pos     1,
 dipolmoment           0.000832      0.004531     -0.197522 electrons x Angstroem
 Tr[quadrupol]     -6849.600185

 energy correction for charged system         0.000000 eV
 dipol+quadrupol energy correction           -0.001117 eV
 added-field ion interaction          0.234391 eV  (added to PSCEN)


 Free energy of the ion-electron system (eV)
  ---------------------------------------------------
  alpha Z        PSCENC =       106.50567948
  Ewald energy   TEWEN  =     40169.98237315
  -Hartree energ DENC   =    -48561.74175005
  -exchange      EXHF   =       563.76432222
  -V(xc)+E(xc)   XCENC  =       619.18545370
  PAW double counting   =     27576.03641757   -27598.79688386
  entropy T*S    EENTRO =        -0.03311763
  eigenvalues    EBANDS =     -3264.53732106
  atomic energy  EATOM  =      9758.93285476
  ---------------------------------------------------
  free energy    TOTEN  =      -630.70212192 eV

  energy without entropy =     -630.66900430  energy(sigma->0) =     -630.68556311
  exchange ACFDT corr.  =        -0.01873250  see jH, gK, PRB 81, 115126


--------------------------------------------------------------------------------------------------------




--------------------------------------- Iteration      1(  16)  ---------------------------------------


    POTLOK:  cpu time    6.3589: real time    6.3660
    SETDIJ:  cpu time    3.1900: real time    3.1930
    TRIAL :  cpu time  600.9517: real time  601.8735
    CORREC:  cpu time    0.0059: real time    0.0059
    CHARGE:  cpu time    1.7170: real time    1.7193
    --------------------------------------------
      LOOP:  cpu time  612.2327: real time  613.1686

 eigenvalue-minimisations  :     0
 total energy-change (2. order) :-0.5122762E-02  (-0.4549441E-02)
 number of electron     249.9999995 magnetization       5.4372284
 augmentation part       12.8098261 magnetization       3.4852794

 DIPCOR: dipole corrections for dipol
 direction  3 min pos     1,
 dipolmoment           0.000823      0.004480     -0.195326 electrons x Angstroem
 Tr[quadrupol]     -6849.590724

 energy correction for charged system         0.000000 eV
 dipol+quadrupol energy correction           -0.001092 eV
 added-field ion interaction          0.231785 eV  (added to PSCEN)


 Free energy of the ion-electron system (eV)
  ---------------------------------------------------
  alpha Z        PSCENC =       106.50309821
  Ewald energy   TEWEN  =     40169.98237315
  -Hartree energ DENC   =    -48561.58246032
  -exchange      EXHF   =       563.78687970
  -V(xc)+E(xc)   XCENC  =       619.19439816
  PAW double counting   =     27577.76984145   -27600.55010295
  entropy T*S    EENTRO =        -0.03300132
  eigenvalues    EBANDS =     -3264.71100922
  atomic energy  EATOM  =      9758.93285476
  ---------------------------------------------------
  free energy    TOTEN  =      -630.70724469 eV

  energy without entropy =     -630.67424336  energy(sigma->0) =     -630.69074402
  exchange ACFDT corr.  =        -0.01881895  see jH, gK, PRB 81, 115126


--------------------------------------------------------------------------------------------------------




--------------------------------------- Iteration      1(  17)  ---------------------------------------


    POTLOK:  cpu time    6.3516: real time    6.3592
    SETDIJ:  cpu time    3.1779: real time    3.1806
    TRIAL :  cpu time  600.8885: real time  601.8272
    CORREC:  cpu time    0.0069: real time    0.0069
    CHARGE:  cpu time    1.6827: real time    1.6853
    --------------------------------------------
      LOOP:  cpu time  612.1188: real time  613.0727

 eigenvalue-minimisations  :     0
 total energy-change (2. order) :-0.4357137E-02  (-0.3906981E-02)
 number of electron     249.9999995 magnetization       5.4395401
 augmentation part       12.8098626 magnetization       3.4915630

 DIPCOR: dipole corrections for dipol
 direction  3 min pos     1,
 dipolmoment           0.000816      0.004446     -0.193807 electrons x Angstroem
 Tr[quadrupol]     -6849.582242

 energy correction for charged system         0.000000 eV
 dipol+quadrupol energy correction           -0.001075 eV
 added-field ion interaction          0.229983 eV  (added to PSCEN)


 Free energy of the ion-electron system (eV)
  ---------------------------------------------------
  alpha Z        PSCENC =       106.50131319
  Ewald energy   TEWEN  =     40169.98237315
  -Hartree energ DENC   =    -48561.43561715
  -exchange      EXHF   =       563.80747729
  -V(xc)+E(xc)   XCENC  =       619.20240381
  PAW double counting   =     27579.62906093   -27602.42470358
  entropy T*S    EENTRO =        -0.03291167
  eigenvalues    EBANDS =     -3264.87376290
  atomic energy  EATOM  =      9758.93285476
  ---------------------------------------------------
  free energy    TOTEN  =      -630.71160182 eV

  energy without entropy =     -630.67869016  energy(sigma->0) =     -630.69514599
[...]


 VOLUME and BASIS-vectors are now :
 -----------------------------------------------------------------------------
  energy-cutoff  :      500.00
  volume of cell :     3176.87
      direct lattice vectors                 reciprocal lattice vectors
    12.892200000  0.000000000  0.000000000     0.077566280  0.000729983  0.000343501
    -0.116300903 12.357852753  0.000000000     0.000000000  0.080920207  0.001856177
    -0.084000237 -0.457395138 19.940177858     0.000000000  0.000000000  0.050150004

  length of vectors
    12.892200000 12.358400000 19.945600000     0.077570476  0.080941493  0.050150004


 FORCES acting on ions:
    Electron-Ion                     Ewald-Force                    Non-Local-Force
 -----------------------------------------------------------------------------------------------
   0.440E+01 -.459E+01 0.238E+02   -.469E+01 0.489E+01 -.239E+02   0.268E+00 -.233E+00 0.103E+00
   0.390E+01 -.535E+00 0.266E+02   -.393E+01 0.499E+00 -.267E+02   0.211E-01 0.267E-01 0.637E-01
   0.311E+01 -.173E+01 0.255E+02   -.325E+01 0.176E+01 -.254E+02   0.113E+00 -.428E-01 -.755E-01
   0.650E+01 0.286E+01 0.191E+02   -.669E+01 -.289E+01 -.190E+02   0.176E+00 -.351E-01 -.111E+00
   0.698E+01 0.844E+01 0.155E+02   -.712E+01 -.843E+01 -.155E+02   0.937E-01 0.179E-01 0.958E-01
   0.733E+01 0.844E+01 0.331E+02   -.744E+01 -.876E+01 -.333E+02   0.812E-01 0.381E+00 0.149E+00
   0.262E+01 0.881E+01 0.221E+02   -.263E+01 -.900E+01 -.220E+02   0.530E-01 0.119E+00 -.896E-01
   0.148E+02 0.233E+02 0.126E+02   -.149E+02 -.235E+02 -.133E+02   0.112E+00 0.150E+00 0.660E+00
   0.266E+02 0.462E+02 0.278E+02   -.283E+02 -.488E+02 -.290E+02   0.170E+01 0.292E+01 0.125E+01
   0.140E+02 0.267E+01 0.309E+02   -.143E+02 -.272E+01 -.307E+02   0.290E+00 0.511E-01 -.143E+00
   0.171E+02 0.127E+02 0.356E+02   -.176E+02 -.131E+02 -.357E+02   0.416E+00 0.290E+00 0.142E+00
   0.208E+02 -.351E+02 0.170E+02   -.225E+02 0.376E+02 -.178E+02   0.156E+01 -.265E+01 0.862E+00
   0.859E+01 -.502E+01 0.398E+02   -.874E+01 0.538E+01 -.399E+02   0.131E+00 -.259E+00 0.478E-01
   0.183E+02 -.914E+01 0.367E+02   -.186E+02 0.953E+01 -.368E+02   0.365E+00 -.311E+00 0.170E+00
   0.330E+02 -.525E+01 0.155E+02   -.367E+02 0.515E+01 -.165E+02   0.371E+01 0.192E+00 0.106E+01
   0.129E+02 -.133E+02 0.351E+02   -.136E+02 0.136E+02 -.352E+02   0.563E+00 -.248E+00 0.228E+00
   0.505E+01 -.561E+01 0.338E+02   -.512E+01 0.574E+01 -.339E+02   0.279E-01 -.868E-01 0.706E-01
   0.725E+01 -.837E+01 0.381E+02   -.771E+01 0.838E+01 -.381E+02   0.390E+00 -.750E-01 0.242E-01
   0.579E+01 -.131E+02 0.227E+02   -.605E+01 0.135E+02 -.225E+02   0.293E+00 -.367E+00 -.176E+00
   -.640E+01 0.143E+01 0.165E+02   0.661E+01 -.135E+01 -.164E+02   -.178E+00 -.497E-02 -.117E+00
   0.200E+01 0.888E+01 0.271E+02   -.228E+01 -.906E+01 -.272E+02   0.285E+00 0.164E+00 0.143E+00
   -.319E+01 -.406E+01 0.257E+02   0.347E+01 0.432E+01 -.259E+02   -.291E+00 -.250E+00 0.125E+00
   -.500E+01 0.729E+01 0.224E+02   0.529E+01 -.755E+01 -.225E+02   -.263E+00 0.195E+00 0.107E+00
   -.858E+01 0.163E+02 0.222E+02   0.879E+01 -.166E+02 -.220E+02   -.250E+00 0.328E+00 -.161E+00
   0.255E+02 0.473E+02 0.238E+02   -.270E+02 -.500E+02 -.251E+02   0.173E+01 0.292E+01 0.128E+01
   -.135E+00 0.206E+02 0.283E+02   0.144E+00 -.211E+02 -.284E+02   0.154E-01 0.409E+00 0.122E+00
   -.168E+02 0.132E+02 0.326E+02   0.173E+02 -.133E+02 -.328E+02   -.462E+00 0.135E+00 0.215E+00
   -.426E+02 0.155E+01 0.143E+02   0.457E+02 -.172E+01 -.152E+02   -.315E+01 -.226E-01 0.917E+00
   -.197E+02 0.251E+02 0.150E+02   0.215E+02 -.283E+02 -.160E+02   -.170E+01 0.325E+01 0.980E+00
   -.142E+02 -.444E+02 0.138E+02   0.161E+02 0.474E+02 -.150E+02   -.186E+01 -.327E+01 0.127E+01
   -.979E+01 -.134E+02 -.453E+00   0.100E+02 0.138E+02 -.176E+00   -.165E+00 -.265E+00 0.637E+00
   -.239E+01 -.149E+02 0.257E+02   0.229E+01 0.155E+02 -.258E+02   0.662E-01 -.566E+00 0.121E+00
   -.303E+02 -.348E+02 0.104E+02   0.321E+02 0.378E+02 -.116E+02   -.193E+01 -.324E+01 0.128E+01
   -.484E+01 -.315E+01 0.108E+02   0.502E+01 0.324E+01 -.108E+02   -.122E+00 -.921E-01 0.822E-01
   0.195E+01 -.225E+01 0.297E+02   -.192E+01 0.234E+01 -.297E+02   -.258E-01 -.330E-01 0.276E-01
   -.324E+01 0.346E+01 0.239E+02   0.335E+01 -.346E+01 -.238E+02   -.110E+00 0.218E-01 -.837E-01
   -.298E+01 0.228E+01 0.253E+02   0.301E+01 -.221E+01 -.254E+02   -.328E-01 -.520E-01 0.648E-01
   -.106E+01 0.341E+01 0.300E+02   0.106E+01 -.349E+01 -.300E+02   0.116E-01 0.126E-01 0.298E-01
   -.269E+00 0.349E+01 0.326E+02   0.257E+00 -.357E+01 -.326E+02   -.289E-01 0.975E-01 0.115E-01
   -.793E+01 0.796E+01 0.361E+02   0.833E+01 -.799E+01 -.361E+02   -.331E+00 0.803E-01 0.151E-01
   -.507E+01 0.625E+01 0.326E+02   0.515E+01 -.635E+01 -.327E+02   -.268E-01 0.771E-01 0.765E-01
   0.274E+00 0.551E+01 0.353E+02   -.307E+00 -.563E+01 -.353E+02   0.394E-01 0.103E+00 0.533E-01
   -.123E+01 0.441E+01 0.366E+02   0.127E+01 -.445E+01 -.366E+02   -.455E-01 0.694E-01 0.523E-02
   -.166E+02 0.523E+01 0.363E+02   0.170E+02 -.563E+01 -.364E+02   -.511E+00 0.355E+00 0.175E+00
   -.806E+01 0.360E+01 0.391E+02   0.825E+01 -.403E+01 -.391E+02   -.171E+00 0.315E+00 0.556E-01
   0.445E+01 -.206E+00 0.342E+02   -.457E+01 0.153E+00 -.342E+02   0.185E+00 -.174E-01 0.372E-01
   -.209E+01 -.115E+01 0.340E+02   0.226E+01 0.119E+01 -.340E+02   -.231E+00 0.270E-01 0.303E-01
   -.119E+02 -.127E+02 0.323E+02   0.126E+02 0.131E+02 -.325E+02   -.577E+00 -.296E+00 0.149E+00
   -.104E+02 -.453E+01 0.298E+02   0.108E+02 0.455E+01 -.296E+02   -.349E+00 -.297E-01 -.152E+00
   0.295E+01 -.517E+01 0.370E+02   -.297E+01 0.522E+01 -.370E+02   0.710E-02 -.694E-01 0.134E-01
   0.140E+01 -.523E+01 0.355E+02   -.134E+01 0.536E+01 -.355E+02   -.747E-01 -.103E+00 0.567E-01
   -.580E+00 -.614E+01 0.198E+02   0.600E+00 0.635E+01 -.197E+02   -.805E-01 -.137E+00 -.925E-01
   -.419E+01 -.729E+01 0.318E+02   0.436E+01 0.765E+01 -.319E+02   -.130E+00 -.417E+00 0.144E+00
   0.126E+01 -.273E+01 0.330E+02   -.125E+01 0.283E+01 -.330E+02   0.231E-01 -.108E+00 0.137E-01
   -.112E+02 -.192E+02 -.130E+02   0.323E+02 0.206E+02 0.160E+02   -.201E+02 -.133E+01 -.327E+01
   -.117E+02 -.181E+02 -.211E+02   0.222E+01 0.370E+02 0.239E+02   0.914E+01 -.180E+02 -.323E+01
   0.268E+02 -.298E+01 -.432E+02   -.454E+02 0.183E+01 0.465E+02   0.176E+02 0.124E+01 -.358E+01
   -.156E+02 0.214E+02 -.505E+02   0.240E+02 -.380E+02 0.540E+02   -.792E+01 0.159E+02 -.379E+01
   0.461E+02 0.725E+02 -.777E+03   -.459E+02 -.723E+02 0.773E+03   -.129E+01 -.200E+01 0.430E+01
   -.516E+02 -.867E+02 -.545E+03   0.517E+02 0.869E+02 0.541E+03   0.599E+00 0.950E+00 0.500E+01
 -----------------------------------------------------------------------------------------------
   0.210E+01 0.367E+01 -.723E+01   -.234E-12 -.995E-13 0.114E-12   -.226E+01 -.391E+01 0.740E+01
 
 
 POSITION                                       TOTAL-FORCE (eV/Angst)
 -----------------------------------------------------------------------------------
      2.80723     -0.19082      9.88568        -0.008781      0.052600      0.006302
      0.66291      1.03554      9.81987         0.001377     -0.013268      0.010432
      1.37631     -0.19794      9.83218        -0.021065     -0.022829      0.004472
      3.52405      1.05166      9.92597        -0.005318     -0.077961     -0.000200
      2.81883      2.30402      9.96142        -0.047503      0.021383      0.027263
      0.64380      3.50035      9.84748        -0.019871      0.079892      0.027314
      1.38027      2.27906      9.87479         0.048151     -0.065541     -0.001006
      3.53630      3.55948     10.09850        -0.057039     -0.096657      0.019130
      2.75022      4.79504     10.11642         0.082387      0.430613      0.067713
      0.59644      5.97567      9.88630        -0.069881      0.010066      0.001859
      1.33376      4.74849      9.92366        -0.015668     -0.086994      0.019481
      2.69460      7.21919     10.13794        -0.141949     -0.260808      0.052393
      0.56183      8.45144      9.83251        -0.006467      0.094184      0.019330
      1.28673      7.22486      9.92349         0.146315      0.062795      0.075077
      3.40065      8.47688     10.14442         0.222742      0.108015      0.143708
      2.68588      9.69223      9.94020        -0.034969     -0.057169      0.078545
      0.54707     10.92135      9.80103        -0.040845      0.035495      0.012550
      1.26368      9.68936      9.83885        -0.053705     -0.071157      0.013477
      3.40242     10.93026      9.93724         0.045500     -0.023570      0.011703
      6.98779     12.10544      9.93369         0.015443      0.076768     -0.004912
      4.95430      1.02078      9.93105         0.018202     -0.003228      0.025291
      5.67354     -0.22081      9.93310        -0.024459     -0.005476      0.025690
      7.82095      0.98986      9.89457         0.012985     -0.061679      0.007344
      7.10858      2.22653      9.94617        -0.053230      0.040287      0.009373
      4.99634      3.49565     10.14651         0.324716      0.336656      0.080351
      5.67723      2.24807      9.98533         0.024479     -0.081610      0.016494
      7.82392      3.46413      9.95425         0.052672      0.061226      0.061866
      7.10394      4.67870     10.15681        -0.230310     -0.203290      0.082966
      7.81772      5.93164     10.13984         0.080453      0.226298      0.095893
      7.76228      8.36550     10.12479        -0.111317     -0.418177      0.073948
      6.97449      9.59798     10.10936         0.067624      0.109387      0.035947
      4.83424     10.91002      9.98397        -0.030917      0.089484      0.020127
      5.51684      9.66564     10.15143        -0.304279     -0.384038      0.083114
      7.69299     10.85397      9.97060         0.055691     -0.005106      0.019529
     11.40088     -0.22100      9.78682         0.003868      0.044135      0.014291
      9.25103      0.99716      9.84078         0.005194      0.012530      0.005366
      9.84828     12.12161      9.82519        -0.006326      0.009857      0.008887
     12.11855      1.02058      9.78633         0.004748     -0.057368      0.015220
     11.39459      2.24796      9.78556        -0.041498      0.021677      0.018270
      9.24625      3.46702      9.84968         0.056720      0.057191      0.017681
      9.96360      2.23561      9.80925         0.048436     -0.016251      0.014711
     12.10400      3.48936      9.79654         0.006496     -0.020831      0.023069
     11.37497      4.71710      9.80437        -0.005997      0.031703      0.011791
      9.22369      5.93017      9.92450        -0.134112     -0.029134      0.087335
      9.94883      4.70434      9.83768         0.009461     -0.107323      0.011350
     12.06775      5.96313      9.82377         0.070850     -0.075078      0.009233
     11.33428      7.19342      9.82323        -0.068563      0.072161      0.008684
      9.17681      8.40855      9.92644         0.034964      0.087044      0.030147
      9.91342      7.18053      9.88691         0.070008     -0.009772      0.004857
     12.02788      8.43929      9.80097        -0.012717     -0.028331      0.017400
     11.29891      9.66741      9.79383        -0.016183      0.014898      0.023223
      9.13097     10.87826      9.88066        -0.060878      0.068377      0.000809
      9.86730      9.65648      9.84892         0.024473     -0.079762      0.029553
     12.00829     10.90928      9.78181         0.034953     -0.020819      0.018216
      3.34962      6.02251     10.36433        -0.770590     -0.033488     -0.553893
      5.74452      4.63797     10.39155         0.432911     -0.744950     -0.641948
      7.17240      7.13415     10.37347         0.587993      0.200432     -0.535795
      4.75950      8.52887     10.39530        -0.187486      0.684192     -0.604332
      4.70810      5.62697     11.66852        -0.364490     -0.542314      0.440685
      5.70381      7.36325     11.57988         0.356600      0.564630      0.302631
 -----------------------------------------------------------------------------------
    total drift:                                0.012626      0.060975      0.023655


--------------------------------------------------------------------------------------------------------



  FREE ENERGIE OF THE ION-ELECTRON SYSTEM (eV)
  ---------------------------------------------------
  free  energy   TOTEN  =      -630.75812384 eV

  energy  without entropy=     -630.72579918  energy(sigma->0) =     -630.74196151
 


--------------------------------------------------------------------------------------------------------


    POTLOK:  cpu time    9.5408: real time    9.5495


--------------------------------------------------------------------------------------------------------


 stress matrix after NEB project (eV)
    -42.43470     -0.87534     -0.01548
     -0.87538    -42.98650      0.01113
     -0.01638      0.00964     -0.05999
  FORCES: max atom, RMS     1.074458    0.322961
  FORCE total and by dimension    2.501645    0.770590
  Stress total and by dimension   60.415885   42.986496
 writing wavefunctions
     LOOP+:  cpu time45470.3212: real time45551.1296
    4ORBIT:  cpu time    0.0000: real time    0.0000
 


 total charge     
 
# of ion       s       p       d       tot
------------------------------------------
    1        0.863   1.765   0.000   2.628
    2        0.864   1.759   0.000   2.622
    3        0.865   1.771   0.000   2.635
    4        0.862   1.758   0.000   2.620
    5        0.858   1.734   0.000   2.592
    6        0.865   1.766   0.000   2.631
    7        0.861   1.759   0.000   2.620
    8        0.846   1.732   0.000   2.578
    9        0.855   1.701   0.000   2.555
   10        0.867   1.767   0.000   2.634
   11        0.865   1.773   0.000   2.638
   12        0.856   1.736   0.000   2.593
   13        0.865   1.778   0.000   2.644
   14        0.868   1.776   0.000   2.644
   15        0.857   1.737   0.000   2.594
   16        0.867   1.776   0.000   2.642
   17        0.865   1.767   0.000   2.633
   18        0.866   1.779   0.000   2.645
   19        0.866   1.761   0.000   2.627
   20        0.862   1.759   0.000   2.621
   21        0.865   1.764   0.000   2.629
   22        0.865   1.764   0.000   2.629
   23        0.863   1.765   0.000   2.629
   24        0.866   1.761   0.000   2.627
   25        0.855   1.704   0.000   2.560
   26        0.866   1.774   0.000   2.640
   27        0.867   1.776   0.000   2.642
   28        0.857   1.736   0.000   2.593
   29        0.856   1.739   0.000   2.595
   30        0.854   1.704   0.000   2.558
   31        0.845   1.734   0.000   2.579
   32        0.866   1.774   0.000   2.640
   33        0.855   1.708   0.000   2.562
   34        0.858   1.735   0.000   2.592
   35        0.864   1.763   0.000   2.627
   36        0.865   1.771   0.000   2.636
   37        0.864   1.759   0.000   2.623
   38        0.864   1.763   0.000   2.627
   39        0.866   1.768   0.000   2.634
   40        0.866   1.779   0.000   2.645
   41        0.865   1.768   0.000   2.633
   42        0.865   1.766   0.000   2.631
   43        0.867   1.769   0.000   2.637
   44        0.868   1.777   0.000   2.644
   45        0.865   1.779   0.000   2.645
   46        0.865   1.776   0.000   2.642
   47        0.865   1.776   0.000   2.641
   48        0.865   1.773   0.000   2.638
   49        0.867   1.767   0.000   2.634
   50        0.867   1.769   0.000   2.636
   51        0.865   1.766   0.000   2.630
   52        0.861   1.759   0.000   2.620
   53        0.865   1.767   0.000   2.631
   54        0.866   1.768   0.000   2.634
   55        1.231   2.672   0.000   3.903
   56        1.232   2.673   0.000   3.906
   57        1.230   2.686   0.000   3.916
   58        1.231   2.687   0.000   3.918
   59        0.484   0.421   6.458   7.363
   60        0.503   0.504   4.562   5.569
--------------------------------------------------
tot         52.496 106.618  11.020 170.133
 


 magnetization (x)
 
# of ion       s       p       d       tot
------------------------------------------
    1       -0.000  -0.002   0.000  -0.002
    2       -0.000  -0.001   0.000  -0.001
    3        0.000   0.004   0.000   0.005
    4        0.000  -0.000   0.000  -0.000
    5       -0.000  -0.002   0.000  -0.002
    6       -0.000  -0.003   0.000  -0.003
    7        0.000   0.004   0.000   0.004
    8        0.001   0.003   0.000   0.004
    9       -0.000   0.000   0.000  -0.000
   10        0.000   0.001   0.000   0.001
   11        0.000   0.000   0.000   0.001
   12        0.000  -0.001   0.000  -0.001
   13       -0.000  -0.002   0.000  -0.002
   14        0.001   0.003   0.000   0.003
   15        0.002   0.010   0.000   0.012
   16       -0.000  -0.002   0.000  -0.002
   17       -0.000  -0.000   0.000  -0.000
   18        0.000   0.002   0.000   0.002
   19        0.000   0.002   0.000   0.002
   20       -0.000  -0.001   0.000  -0.001
   21        0.000   0.001   0.000   0.001
   22        0.000   0.001   0.000   0.001
   23       -0.000  -0.001   0.000  -0.001
   24       -0.000  -0.001   0.000  -0.002
   25        0.000   0.001   0.000   0.001
   26        0.000   0.001   0.000   0.001
   27        0.001   0.001   0.000   0.001
   28        0.001   0.003   0.000   0.003
   29        0.001   0.006   0.000   0.008
   30        0.001   0.008   0.000   0.009
   31       -0.000   0.001   0.000   0.000
   32       -0.000  -0.002   0.000  -0.002
   33        0.002   0.008   0.000   0.009
   34       -0.000  -0.002   0.000  -0.002
   35       -0.000  -0.001   0.000  -0.001
   36        0.000   0.003   0.000   0.003
   37       -0.000   0.000   0.000   0.000
   38        0.000   0.000   0.000   0.000
   39       -0.000   0.000   0.000   0.000
   40        0.000   0.001   0.000   0.001
   41        0.000   0.001   0.000   0.001
   42        0.000   0.002   0.000   0.002
   43       -0.000   0.000   0.000   0.000
   44       -0.000  -0.001   0.000  -0.001
   45       -0.000  -0.001   0.000  -0.001
   46        0.000   0.003   0.000   0.003
   47       -0.000  -0.001   0.000  -0.001
   48       -0.000  -0.003   0.000  -0.003
   49        0.000   0.005   0.000   0.005
   50        0.000   0.002   0.000   0.003
   51        0.000   0.001   0.000   0.001
   52        0.000   0.001   0.000   0.002
   53       -0.000  -0.001   0.000  -0.001
   54        0.000   0.001   0.000   0.001
   55        0.006   0.018   0.000   0.024
   56        0.005   0.005   0.000   0.010
   57       -0.004  -0.033   0.000  -0.037
   58       -0.005  -0.043   0.000  -0.048
   59        0.034   0.040   2.584   2.658
   60        0.034   0.030   2.027   2.091
--------------------------------------------------
tot          0.080   0.071   4.610   4.761
 

 total amount of memory used by VASP MPI-rank0   317010. kBytes
=======================================================================

   base      :      30000. kBytes
   nonl-proj :      10743. kBytes
   fftplans  :      26523. kBytes
   grid      :      69087. kBytes
   one-center:        124. kBytes
   HF        :         23. kBytes
   nonlr-proj:      22950. kBytes
   wavefun   :     157560. kBytes
 
  
  
 General timing and accounting informations for this job:
 ========================================================
  
                  Total CPU time used (sec):    45530.793
                            User time (sec):    45508.432
                          System time (sec):       22.361
                         Elapsed time (sec):    45618.491
  
                   Maximum memory used (kb):      550612.
                   Average memory used (kb):           0.
  
                          Minor page faults:      1870761
                          Major page faults:          233
                 Voluntary context switches:        51339
