 vasp.5.4.4.18Apr17-6-g9f103f2a35 (build Feb 25 2019 10:51:38) complex          
  
 executed on             LinuxIFC date 2021.08.09  16:17:23
 running on   32 total cores
 distrk:  each k-point on   32 cores,    1 groups
 distr:  one band on NCORES_PER_BAND=  32 cores,    1 groups


--------------------------------------------------------------------------------------------------------


 INCAR:
 POTCAR:    PAW_PBE C 08Apr2002                   
 POTCAR:    PAW_PBE N 08Apr2002                   
 POTCAR:    PAW_PBE Fe 06Sep2000                  
 POTCAR:    PAW_PBE Ti 08Apr2002                  

 ----------------------------------------------------------------------------- 
|                                                                             |
|           W    W    AA    RRRRR   N    N  II  N    N   GGGG   !!!           |
|           W    W   A  A   R    R  NN   N  II  NN   N  G    G  !!!           |
|           W    W  A    A  R    R  N N  N  II  N N  N  G       !!!           |
|           W WW W  AAAAAA  RRRRR   N  N N  II  N  N N  G  GGG   !            |
|           WW  WW  A    A  R   R   N   NN  II  N   NN  G    G                |
|           W    W  A    A  R    R  N    N  II  N    N   GGGG   !!!           |
|                                                                             |
|      For optimal performance we recommend to set                            |
|        NCORE= 4 - approx SQRT( number of cores)                             |
|      NCORE specifies how many cores store one orbital (NPAR=cpu/NCORE).     |
|      This setting can  greatly improve the performance of VASP for DFT.     |
|      The default,   NCORE=1            might be grossly inefficient         |
|      on modern multi-core architectures or massively parallel machines.     |
|      Do your own testing !!!!                                               |
|      Unfortunately you need to use the default for GW and RPA calculations. |
|      (for HF NCORE is supported but not extensively tested yet)             |
|                                                                             |
 ----------------------------------------------------------------------------- 

 POTCAR:    PAW_PBE C 08Apr2002                   
   VRHFIN =C: s2p2                                                              
   LEXCH  = PE                                                                  
   EATOM  =   147.1560 eV,   10.8157 Ry                                         
                                                                                
   TITEL  = PAW_PBE C 08Apr2002                                                 
   LULTRA =        F    use ultrasoft PP ?                                      
   IUNSCR =        1    unscreen: 0-lin 1-nonlin 2-no                           
   RPACOR =    1.200    partial core radius                                     
   POMASS =   12.011; ZVAL   =    4.000    mass and valenz                      
   RCORE  =    1.500    outmost cutoff radius                                   
   RWIGS  =    1.630; RWIGS  =    0.863    wigner-seitz radius (au A)           
   ENMAX  =  400.000; ENMIN  =  300.000 eV                                      
   ICORE  =        2    local potential                                         
   LCOR   =        T    correct aug charges                                     
   LPAW   =        T    paw PP                                                  
   EAUG   =  644.873                                                            
   DEXC   =    0.000                                                            
   RMAX   =    1.529    core radius for proj-oper                               
   RAUG   =    1.300    factor for augmentation sphere                          
   RDEP   =    1.501    radius for radial grids                                 
   RDEPT  =    1.300    core radius for aug-charge                              
                                                                                
   Atomic configuration                                                         
    4 entries                                                                   
     n  l   j            E        occ.                                          
     1  0  0.50      -273.3789   2.0000                                         
     2  0  0.50       -13.7508   2.0000                                         
     2  1  0.50        -5.2854   2.0000                                         
     3  2  1.50        -5.4423   0.0000                                         
   Description                                                                  
     l       E           TYP  RCUT    TYP  RCUT                                 
     0    -13.7508458     23  1.200                                             
     0     -8.2022199     23  1.200                                             
     1     -5.2854383     23  1.500                                             
     1     34.0145650     23  1.500                                             
     2     -5.4423304      7  1.500                                             
  local pseudopotential read in
  partial core-charges read in
  partial kinetic energy density read in
  atomic valenz-charges read in
  non local Contribution for L=           0  read in
    real space projection operators read in
  non local Contribution for L=           0  read in
    real space projection operators read in
  non local Contribution for L=           1  read in
    real space projection operators read in
  non local Contribution for L=           1  read in
    real space projection operators read in
    PAW grid and wavefunctions read in
 
   number of l-projection  operators is LMAX  =           4
   number of lm-projection operators is LMMAX =           8
 
 POTCAR:    PAW_PBE N 08Apr2002                   
   VRHFIN =N: s2p3                                                              
   LEXCH  = PE                                                                  
   EATOM  =   264.5486 eV,   19.4438 Ry                                         
                                                                                
   TITEL  = PAW_PBE N 08Apr2002                                                 
   LULTRA =        F    use ultrasoft PP ?                                      
   IUNSCR =        1    unscreen: 0-lin 1-nonlin 2-no                           
   RPACOR =    1.200    partial core radius                                     
   POMASS =   14.001; ZVAL   =    5.000    mass and valenz                      
   RCORE  =    1.500    outmost cutoff radius                                   
   RWIGS  =    1.400; RWIGS  =    0.741    wigner-seitz radius (au A)           
   ENMAX  =  400.000; ENMIN  =  300.000 eV                                      
   ICORE  =        2    local potential                                         
   LCOR   =        T    correct aug charges                                     
   LPAW   =        T    paw PP                                                  
   EAUG   =  627.112                                                            
   DEXC   =    0.000                                                            
   RMAX   =    1.529    core radius for proj-oper                               
   RAUG   =    1.300    factor for augmentation sphere                          
   RDEP   =    1.514    radius for radial grids                                 
   RDEPT  =    1.338    core radius for aug-charge                              
                                                                                
   Atomic configuration                                                         
    4 entries                                                                   
     n  l   j            E        occ.                                          
     1  0  0.50      -384.7179   2.0000                                         
     2  0  0.50       -18.5828   2.0000                                         
     2  1  0.50        -7.0898   3.0000                                         
     3  2  1.50        -6.8029   0.0000                                         
   Description                                                                  
     l       E           TYP  RCUT    TYP  RCUT                                 
     0    -18.5828119     23  1.200                                             
     0    -13.5018863     23  1.200                                             
     1     -7.0897853     23  1.500                                             
     1      9.5240782     23  1.500                                             
     2     -6.8029130      7  1.500                                             
  local pseudopotential read in
  partial core-charges read in
  partial kinetic energy density read in
  atomic valenz-charges read in
  non local Contribution for L=           0  read in
    real space projection operators read in
  non local Contribution for L=           0  read in
    real space projection operators read in
  non local Contribution for L=           1  read in
    real space projection operators read in
  non local Contribution for L=           1  read in
    real space projection operators read in
    PAW grid and wavefunctions read in
 
   number of l-projection  operators is LMAX  =           4
   number of lm-projection operators is LMMAX =           8
 
 POTCAR:    PAW_PBE Fe 06Sep2000                  
   VRHFIN =Fe:  d7 s1                                                           
   LEXCH  = PE                                                                  
   EATOM  =   594.3153 eV,   43.6809 Ry                                         
                                                                                
   TITEL  = PAW_PBE Fe 06Sep2000                                                
   LULTRA =        F    use ultrasoft PP ?                                      
   IUNSCR =        1    unscreen: 0-lin 1-nonlin 2-no                           
   RPACOR =    2.000    partial core radius                                     
   POMASS =   55.847; ZVAL   =    8.000    mass and valenz                      
   RCORE  =    2.300    outmost cutoff radius                                   
   RWIGS  =    2.460; RWIGS  =    1.302    wigner-seitz radius (au A)           
   ENMAX  =  267.882; ENMIN  =  200.911 eV                                      
   RCLOC  =    1.701    cutoff for local pot                                    
   LCOR   =        T    correct aug charges                                     
   LPAW   =        T    paw PP                                                  
   EAUG   =  511.368                                                            
   DEXC   =    0.000                                                            
   RMAX   =    2.356    core radius for proj-oper                               
   RAUG   =    1.300    factor for augmentation sphere                          
   RDEP   =    2.442    radius for radial grids                                 
   RDEPT  =    1.890    core radius for aug-charge                              
                                                                                
   Atomic configuration                                                         
    9 entries                                                                   
     n  l   j            E        occ.                                          
     1  0  0.50     -6993.8440   2.0000                                         
     2  0  0.50      -814.6047   2.0000                                         
     2  1  1.50      -693.3689   6.0000                                         
     3  0  0.50       -89.4732   2.0000                                         
     3  1  1.50       -55.6373   6.0000                                         
     3  2  2.50        -3.8151   7.0000                                         
     4  0  0.50        -4.2551   1.0000                                         
     4  1  1.50        -3.4015   0.0000                                         
     4  3  2.50        -1.3606   0.0000                                         
   Description                                                                  
     l       E           TYP  RCUT    TYP  RCUT                                 
     2     -3.8151135     23  2.300                                             
     2     -5.1756961     23  2.300                                             
     0     -4.2550963     23  2.300                                             
     0      7.2035603     23  2.300                                             
     1     -2.7211652     23  2.300                                             
     1     18.4316424     23  2.300                                             
  local pseudopotential read in
  partial core-charges read in
  partial kinetic energy density read in
  atomic valenz-charges read in
  non local Contribution for L=           2  read in
    real space projection operators read in
  non local Contribution for L=           2  read in
    real space projection operators read in
  non local Contribution for L=           0  read in
    real space projection operators read in
  non local Contribution for L=           0  read in
    real space projection operators read in
  non local Contribution for L=           1  read in
    real space projection operators read in
  non local Contribution for L=           1  read in
    real space projection operators read in
    PAW grid and wavefunctions read in
 
   number of l-projection  operators is LMAX  =           6
   number of lm-projection operators is LMMAX =          18
 
 POTCAR:    PAW_PBE Ti 08Apr2002                  
   VRHFIN =Ti: d3 s1                                                            
   LEXCH  = PE                                                                  
   EATOM  =    94.7928 eV,    6.9671 Ry                                         
                                                                                
   TITEL  = PAW_PBE Ti 08Apr2002                                                
   LULTRA =        F    use ultrasoft PP ?                                      
   IUNSCR =        1    unscreen: 0-lin 1-nonlin 2-no                           
   RPACOR =    2.200    partial core radius                                     
   POMASS =   47.880; ZVAL   =    4.000    mass and valenz                      
   RCORE  =    2.800    outmost cutoff radius                                   
   RWIGS  =    2.500; RWIGS  =    1.323    wigner-seitz radius (au A)           
   ENMAX  =  178.330; ENMIN  =  133.747 eV                                      
   RCLOC  =    2.215    cutoff for local pot                                    
   LCOR   =        T    correct aug charges                                     
   LPAW   =        T    paw PP                                                  
   EAUG   =  328.883                                                            
   DEXC   =    0.000                                                            
   RMAX   =    2.868    core radius for proj-oper                               
   RAUG   =    1.300    factor for augmentation sphere                          
   RDEP   =    2.885    radius for radial grids                                 
   RDEPT  =    2.320    core radius for aug-charge                              
                                                                                
   Atomic configuration                                                         
    9 entries                                                                   
     n  l   j            E        occ.                                          
     1  0  0.50     -4865.3608   2.0000                                         
     2  0  0.50      -533.1367   2.0000                                         
     2  1  1.50      -440.5031   6.0000                                         
     3  0  0.50       -59.3186   2.0000                                         
     3  1  1.50       -35.7012   6.0000                                         
     3  2  2.50        -1.9157   3.0000                                         
     4  0  0.50        -3.7291   1.0000                                         
     4  1  1.50        -4.0817   0.0000                                         
     4  3  2.50        -1.3606   0.0000                                         
   Description                                                                  
     l       E           TYP  RCUT    TYP  RCUT                                 
     2     -1.9156924     23  2.800                                             
     2     -0.4062961     23  2.800                                             
     0     -3.7290832     23  2.800                                             
     0     20.4087390     23  2.800                                             
     1     -5.4423304     23  2.800                                             
  local pseudopotential read in
  partial core-charges read in
  partial kinetic energy density read in
  atomic valenz-charges read in
  non local Contribution for L=           2  read in
    real space projection operators read in
  non local Contribution for L=           2  read in
    real space projection operators read in
  non local Contribution for L=           0  read in
    real space projection operators read in
  non local Contribution for L=           0  read in
    real space projection operators read in
  non local Contribution for L=           1  read in
    real space projection operators read in
    PAW grid and wavefunctions read in
 
   number of l-projection  operators is LMAX  =           5
   number of lm-projection operators is LMMAX =          15
 

 ----------------------------------------------------------------------------- 
|                                                                             |
|  ADVICE TO THIS USER RUNNING 'VASP/VAMP'   (HEAR YOUR MASTER'S VOICE ...):  |
|                                                                             |
|      You have a (more or less) 'large supercell' and for larger cells       |
|      it might be more efficient to use real space projection opertators     |
|      So try LREAL= Auto  in the INCAR   file.                               |
|      Mind:          For very  accurate calculation you might also keep the  |
|      reciprocal projection scheme          (i.e. LREAL=.FALSE.)             |
|                                                                             |
 ----------------------------------------------------------------------------- 

  PAW_PBE C 08Apr2002                   :
 energy of atom  1       EATOM= -147.1560
 kinetic energy error for atom=    0.0076 (will be added to EATOM!!)
  PAW_PBE N 08Apr2002                   :
 energy of atom  2       EATOM= -264.5486
 kinetic energy error for atom=    0.0138 (will be added to EATOM!!)
  PAW_PBE Fe 06Sep2000                  :
 energy of atom  3       EATOM= -594.3153
 kinetic energy error for atom=    0.0026 (will be added to EATOM!!)
  PAW_PBE Ti 08Apr2002                  :
 energy of atom  4       EATOM=  -94.7928
 kinetic energy error for atom=    0.0002 (will be added to EATOM!!)
 
 
 POSCAR:  C  N Fe Ti                             
  positions in cartesian coordinates
  No initial velocities read in
 exchange correlation table for  LEXCH =        8
   RHO(1)=    0.500       N(1)  =     2000
   RHO(2)=  100.500       N(2)  =     4000

 VTST: version 3.2, (02/03/18)

 CHAIN: initializing optimizer
 
 OPT: Using VASP Conjugate-Gradient optimizer
 CHAIN: Read ICHAIN            0
 
 POSCAR:  C  N Fe Ti                             
  positions in cartesian coordinates
  No initial velocities read in
 


--------------------------------------------------------------------------------------------------------


 ion  position               nearest neighbor table
   1  0.224  0.000  0.498-  18 1.44   4 1.44   3 1.46
   2  0.057  0.100  0.505-   7 1.43   3 1.43  33 1.44
   3  0.113  0.000  0.502-   2 1.43  16 1.43   1 1.46
   4  0.280  0.102  0.497-   1 1.44   5 1.45  20 1.46
   5  0.222  0.202  0.496-  50 1.42   4 1.45   7 1.45
   6  0.053  0.299  0.507-  10 1.42  37 1.43   7 1.44
   7  0.111  0.200  0.503-   2 1.43   6 1.44   5 1.45
   8  0.212  0.400  0.492-  10 1.42  50 1.42  11 1.43
   9  0.051  0.500  0.507-  41 1.42  14 1.42  10 1.43
  10  0.105  0.400  0.504-   6 1.42   8 1.42   9 1.43
  11  0.264  0.500  0.479-  56 1.35   8 1.43  12 1.44
  12  0.212  0.601  0.489-  51 1.41  14 1.42  11 1.44
  13  0.053  0.701  0.504-  14 1.42  17 1.43  45 1.44
  14  0.105  0.600  0.502-  13 1.42  12 1.42   9 1.42
  15  0.222  0.798  0.492-  51 1.43  18 1.45  17 1.45
  16  0.056  0.900  0.503-   3 1.43  17 1.43  49 1.44
  17  0.111  0.800  0.500-  16 1.43  13 1.43  15 1.45
  18  0.279  0.899  0.494-   1 1.44  15 1.45  28 1.46
  19  0.557  0.001  0.500-  22 1.43  29 1.43  21 1.44
  20  0.391  0.104  0.497-  52 1.44  21 1.45   4 1.46
  21  0.446  0.002  0.498-  19 1.44  20 1.45  28 1.45
  22  0.613  0.100  0.503-  23 1.43  19 1.43  31 1.44
  23  0.559  0.200  0.502-  22 1.43  52 1.43  24 1.45
  24  0.616  0.301  0.504-  55 1.37  35 1.42  23 1.45
  25  0.611  0.496  0.504-  55 1.40  53 1.43  39 1.45
  26  0.613  0.697  0.502-  53 1.42  43 1.44  27 1.48
  27  0.557  0.801  0.498-  54 1.42  29 1.43  26 1.48
  28  0.391  0.900  0.494-  54 1.43  21 1.45  18 1.46
  29  0.613  0.901  0.501-  27 1.43  19 1.43  47 1.44
  30  0.890  1.000  0.507-  33 1.43  49 1.43  32 1.44
  31  0.724  0.099  0.506-  36 1.42  32 1.43  22 1.44
  32  0.779  1.000  0.506-  47 1.42  31 1.43  30 1.44
  33  0.946  0.099  0.507-  30 1.43  34 1.43   2 1.44
  34  0.889  0.199  0.509-  37 1.42  36 1.43  33 1.43
  35  0.725  0.299  0.508-  40 1.42  24 1.42  36 1.43
  36  0.779  0.199  0.508-  31 1.42  35 1.43  34 1.43
  37  0.943  0.299  0.510-  34 1.42   6 1.43  38 1.43
  38  0.888  0.399  0.512-  41 1.42  40 1.42  37 1.43
  39  0.722  0.499  0.509-  40 1.43  44 1.43  25 1.45
  40  0.779  0.399  0.510-  35 1.42  38 1.42  39 1.43
  41  0.942  0.500  0.511-   9 1.42  38 1.42  42 1.43
  42  0.887  0.600  0.510-  41 1.43  45 1.43  44 1.43
  43  0.723  0.700  0.506-  44 1.42  48 1.43  26 1.44
  44  0.777  0.599  0.509-  43 1.42  39 1.43  42 1.43
  45  0.943  0.700  0.508-  46 1.42  42 1.43  13 1.44
  46  0.888  0.801  0.507-  45 1.42  49 1.43  48 1.43
  47  0.723  0.900  0.504-  32 1.42  48 1.43  29 1.44
  48  0.778  0.800  0.506-  47 1.43  43 1.43  46 1.43
  49  0.945  0.900  0.506-  30 1.43  46 1.43  16 1.44
  50  0.272  0.304  0.489-   8 1.42   5 1.42  57 1.91
  51  0.271  0.696  0.482-  12 1.41  15 1.43  58 2.16
  52  0.449  0.204  0.497-  23 1.43  20 1.44  57 1.93
  53  0.557  0.597  0.500-  26 1.42  25 1.43  58 2.09
  54  0.448  0.801  0.492-  27 1.42  28 1.43  58 2.08
  55  0.561  0.396  0.501-  24 1.37  25 1.40  57 2.05
  56  0.361  0.500  0.457-  11 1.35  58 2.00  57 2.00
  57  0.410  0.354  0.486-  50 1.91  52 1.93  56 2.00  55 2.05
  58  0.423  0.648  0.451-  56 2.00  54 2.08  53 2.09  51 2.16
 
  LATTYP: Found a triclinic cell.
 ALAT       =    13.0087120852
 B/A-ratio  =     1.8137043709
 C/A-ratio  =     0.9483874259
 COS(alpha) =     0.0007088365
 COS(beta)  =     0.0022198247
 COS(gamma) =     0.5441711106
  
  Lattice vectors:
  
 A1 = (  13.0082303461,   0.0256005630,  -0.1089861887)
 A2 = (  13.0045016044,   0.0316350959,  19.6864620966)
 A3 = (   0.0516357261, -12.3371903255,  -0.0038034514)


Analysis of symmetry for initial positions (statically):
=====================================================================
 Subroutine PRICEL returns:
 Original cell was already a primitive cell.
 

 Routine SETGRP: Setting up the symmetry group for a 
 triclinic supercell.


 Subroutine GETGRP returns: Found  1 space group operations
 (whereof  1 operations were pure point group operations)
 out of a pool of  2 trial point group operations.


The static configuration has the point symmetry C_1 .


Analysis of symmetry for dynamics (positions and initial velocities):
=====================================================================
 Subroutine PRICEL returns:
 Original cell was already a primitive cell.
 

 Routine SETGRP: Setting up the symmetry group for a 
 triclinic supercell.


 Subroutine GETGRP returns: Found  1 space group operations
 (whereof  1 operations were pure point group operations)
 out of a pool of  2 trial point group operations.


The dynamic configuration has the point symmetry C_1 .


Analysis of structural, dynamic, and magnetic symmetry:
=====================================================================
 Subroutine PRICEL returns:
 Original cell was already a primitive cell.
 

 Routine SETGRP: Setting up the symmetry group for a 
 triclinic supercell.


 Subroutine GETGRP returns: Found  1 space group operations
 (whereof  1 operations were pure point group operations)
 out of a pool of  2 trial point group operations.


The magnetic configuration has the point symmetry C_1 .


 Subroutine INISYM returns: Found  1 space group operations
 (whereof  1 operations are pure point group operations),
 and found     1 'primitive' translations

 
 
 KPOINTS: KPOINTS created by Atomic Simulation Env

Automatic generation of k-mesh.
Space group operators:
 irot       det(A)        alpha          n_x          n_y          n_z        tau_x        tau_y        tau_z
    1     1.000000     0.000000     1.000000     0.000000     0.000000     0.000000     0.000000     0.000000
 
 Subroutine IBZKPT returns following result:
 ===========================================
 
 Found      2 irreducible k-points:
 
 Following reciprocal coordinates:
            Coordinates               Weight
  0.250000  0.250000  0.000000      2.000000
 -0.250000  0.250000  0.000000      2.000000
 
 Following cartesian coordinates:
            Coordinates               Weight
  0.019179  0.020344 -0.000003      2.000000
 -0.019258  0.020183 -0.000010      2.000000
 
 
 Subroutine IBZKPT_HF returns following result:
 ==============================================
 
 Found      4 k-points in 1st BZ
 the following      4 k-points will be used (e.g. in the exchange kernel)
 Following reciprocal coordinates:   # in IRBZ
  0.250000  0.250000  0.000000    0.25000000   1 t-inv F
 -0.250000  0.250000  0.000000    0.25000000   2 t-inv F
 -0.250000 -0.250000 -0.000000    0.25000000   1 t-inv T
  0.250000 -0.250000  0.000000    0.25000000   2 t-inv T


--------------------------------------------------------------------------------------------------------




 Dimension of arrays:
   k-points           NKPTS =      2   k-points in BZ     NKDIM =      4   number of bands    NBANDS=    153
   number of dos      NEDOS =    301   number of ions     NIONS =     58
   non local maximal  LDIM  =      6   non local SUM 2l+1 LMDIM =     18
   total plane-waves  NPLWV = ******
   max r-space proj   IRMAX =      1   max aug-charges    IRDMAX=  27244
   dimension x,y,z NGX =    96 NGY =   90 NGZ =  144
   dimension x,y,z NGXF=   192 NGYF=  180 NGZF=  288
   support grid    NGXF=   192 NGYF=  180 NGZF=  288
   ions per type =              54   2   1   1
   NGX,Y,Z   is equivalent  to a cutoff of  12.27, 12.13, 12.09 a.u.
   NGXF,Y,Z  is equivalent  to a cutoff of  24.54, 24.26, 24.19 a.u.

 SYSTEM =  unknown system                          
 POSCAR =   C  N Fe Ti                             

 Startparameter for this run:
   NWRITE =      2    write-flag & timer
   PREC   = accura    normal or accurate (medium, high low for compatibility)
   ISTART =      1    job   : 0-new  1-cont  2-samecut
   ICHARG =      0    charge: 1-file 2-atom 10-const
   ISPIN  =      2    spin polarized calculation?
   LNONCOLLINEAR =      F non collinear calculations
   LSORBIT =      F    spin-orbit coupling
   INIWAV =      1    electr: 0-lowe 1-rand  2-diag
   LASPH  =      T    aspherical Exc in radial PAW
   METAGGA=      F    non-selfconsistent MetaGGA calc.

 Electronic Relaxation 1
   ENCUT  =  500.0 eV  36.75 Ry    6.06 a.u.  23.72 22.49 36.09*2*pi/ulx,y,z
   ENINI  =  500.0     initial cutoff
   ENAUG  =  644.9 eV  augmentation charge cutoff
   NELM   =    250;   NELMIN=  2; NELMDL=  0     # of ELM steps 
   EDIFF  = 0.1E-03   stopping-criterion for ELM
   LREAL  =      F    real-space projection
   NLSPLINE    = F    spline interpolate recip. space projectors
   LCOMPAT=      F    compatible to vasp.4.4
   GGA_COMPAT  = T    GGA compatible to vasp.4.4-vasp.4.6
   LMAXPAW     = -100 max onsite density
   LMAXMIX     =    2 max onsite mixed and CHGCAR
   VOSKOWN=      0    Vosko Wilk Nusair interpolation
   ROPT   =    0.00000   0.00000   0.00000   0.00000
 Ionic relaxation
   EDIFFG = -.3E-01   stopping-criterion for IOM
   NSW    =      0    number of steps for IOM
   NBLOCK =      1;   KBLOCK =      1    inner block; outer block 
   IBRION =     -1    ionic relax: 0-MD 1-quasi-New 2-CG
   NFREE  =      1    steps in history (QN), initial steepest desc. (CG)
   ISIF   =      2    stress and relaxation
   IWAVPR =     10    prediction:  0-non 1-charg 2-wave 3-comb
   ISYM   =      3    0-nonsym 1-usesym 2-fastsym
   LCORR  =      T    Harris-Foulkes like correction to forces

   POTIM  = 0.5000    time-step for ionic-motion
   TEIN   =    0.0    initial temperature
   TEBEG  =    0.0;   TEEND  =   0.0 temperature during run
   SMASS  =  -3.00    Nose mass-parameter (am)
   estimated Nose-frequenzy (Omega)   =  0.10E-29 period in steps =****** mass=  -0.387E-26a.u.
   SCALEE = 1.0000    scale energy and forces
   NPACO  =    256;   APACO  = 16.0  distance and # of slots for P.C.
   PSTRESS=    0.0 pullay stress

  Mass of Ions in am
   POMASS =  12.01 14.00 55.85 47.88
  Ionic Valenz
   ZVAL   =   4.00  5.00  8.00  4.00
  Atomic Wigner-Seitz radii
   RWIGS  =  -1.00 -1.00 -1.00 -1.00
  virtual crystal weights 
   VCA    =   1.00  1.00  1.00  1.00
   NELECT =     238.0000    total number of electrons
   NUPDOWN=      -1.0000    fix difference up-down

 DOS related values:
   EMIN   =  10.00;   EMAX   =-10.00  energy-range for DOS
   EFERMI =   0.00
   ISMEAR =     0;   SIGMA  =   0.10  broadening in eV -4-tet -1-fermi 0-gaus

 Electronic relaxation 2 (details)
   IALGO  =     53    algorithm
   LDIAG  =      T    sub-space diagonalisation (order eigenvalues)
   LSUBROT=      F    optimize rotation matrix (better conditioning)
   TURBO    =      0    0=normal 1=particle mesh
   IRESTART =      0    0=no restart 2=restart with 2 vectors
   NREBOOT  =      0    no. of reboots
   NMIN     =      0    reboot dimension
   EREF     =   0.00    reference energy to select bands
   IMIX   =      4    mixing-type and parameters
     AMIX     =   0.40;   BMIX     =  1.00
     AMIX_MAG =   1.60;   BMIX_MAG =  1.00
     AMIN     =   0.10
     WC   =   100.;   INIMIX=   1;  MIXPRE=   1;  MAXMIX= -45

 Intra band minimization:
   WEIMIN = 0.0000     energy-eigenvalue tresh-hold
   EBREAK =  0.16E-06  absolut break condition
   DEPER  =   0.30     relativ break condition  

   TIME   =   0.20     timestep for ELM

  volume/ion in A,a.u.               =      54.77       369.63
  Fermi-wavevector in a.u.,A,eV,Ry     =   0.690133  1.304163  6.480235  0.476284
  Thomas-Fermi vector in A             =   1.771415
 
 Write flags
   LWAVE        =      T    write WAVECAR
   LDOWNSAMPLE  =      F    k-point downsampling of WAVECAR
   LCHARG       =      T    write CHGCAR
   LVTOT        =      F    write LOCPOT, total local potential
   LVHAR        =      F    write LOCPOT, Hartree potential only
   LELF         =      F    write electronic localiz. function (ELF)
   LORBIT       =     11    0 simple, 1 ext, 2 COOP (PROOUT), +10 PAW based schemes


 Dipole corrections
   LMONO  =      F    monopole corrections only (constant potential shift)
   LDIPOL =      T    correct potential (dipole corrections)
   IDIPOL =      3    1-x, 2-y, 3-z, 4-all directions 
   EPSILON=  1.0000000 bulk dielectric constant

 Exchange correlation treatment:
   GGA     =    PE    GGA type
   LEXCH   =     8    internal setting for exchange type
   VOSKOWN=      0    Vosko Wilk Nusair interpolation
   EXXOEP  =     0    0=HF, 1=EXX-LHF (local Hartree Fock) 2=EXX OEP
   LHFCALC =     T    Hartree Fock is set to
   LSYMGRAD=     F    symmetrize gradient (conserves proper symmetry)
   PRECFOCK=normal    Normal, Fast or Accurate (Low or Medium for compatibility)
   LRHFCALC=     F    long range Hartree Fock
   LRSCOR  =     F    long range correlation only (use DFT for short range part)
   LTHOMAS =     F    Thomas Fermi screening in HF
   LMODELHF=     F    short range full HF, long range fraction AEXX
   ENCUT4O =  -1.0   cutoff for four orbital integrals eV
   LMAXFOCK=     4    L truncation for augmentation on plane wave grid
   LMAXFOCKAE=  -1    L truncation for all-electron charge restoration on plane wave grid
   NMAXFOCKAE=   1    number of basis functions for all-electron charge restoration
   LFOCKAEDFT=     F  apply the AE augmentation even for DFT
   NKREDX  =     1    reduce k-point grid by
   NKREDY  =     1    reduce k-point grid by
   NKREDZ  =     1    reduce k-point grid by
   SHIFTRED=     F    shift reduced grid of Gamma
   HFKIDENT=     F    idential grid for each k-point
   ODDONLY =     F    use only odd q-grid points
   EVENONLY=     F    use only even q-grid points
   HFALPHA =   -1.0000 decay constant for conv. correction
   MCALPHA =    0.0000 extent of test-charge in conv. correction in multipole expansion
   AEXX    =    0.2500 exact exchange contribution
   HFSCREEN=    0.2000 screening length (either q_TF or 0.3 A-1)
   HFSCREENC=   0.2000 screening length for correlation (either q_TF or 0.3 A-1)
   HFRCUT  =    0.0000 spherical cutoff for potential kernel
   ALDAX   =    0.7500 LDA exchange part
   AGGAX   =    0.7500 GGA exchange part
   ALDAC   =    1.0000 LDA correlation
   AGGAC   =    1.0000 GGA correlation
   ENCUTFOCK=  -1.0 apply spherical cutoff to Coloumb kernel
   NBANDSGWLOW=     1    first orbital included in HF term
   NBLOCK_FOCK=    64    blocking factor in FOCK_ACC
 Linear response parameters
   LEPSILON=     F    determine dielectric tensor
   LRPA    =     F    only Hartree local field effects (RPA)
   LNABLA  =     F    use nabla operator in PAW spheres
   LVEL    =     F    velocity operator in full k-point grid
   LINTERFAST=   F  fast interpolation
   KINTER  =     0    interpolate to denser k-point grid
   CSHIFT  =0.1000    complex shift for real part using Kramers Kronig
   OMEGAMAX=  -1.0    maximum frequency
   DEG_THRESHOLD= 0.2000000E-02 threshold for treating states as degnerate
   RTIME   =   -0.100 relaxation time in fs
  (WPLASMAI=    0.000 imaginary part of plasma frequency in eV, 0.658/RTIME)
   DFIELD  = 0.0000000 0.0000000 0.0000000 field for delta impulse in time
 
 Orbital magnetization related:
   ORBITALMAG=     F  switch on orbital magnetization
   LCHIMAG   =     F  perturbation theory with respect to B field
   DQ        =  0.001000  dq finite difference perturbation B field
   LLRAUG    =     F  two centre corrections for induced B field



--------------------------------------------------------------------------------------------------------


 Static calculation
 charge density and potential will be updated during run
 spin polarized calculation
 Conjugate gradient for all bands (Freysoldt, et al. PRB 79, 241103 (2009))
 perform sub-space diagonalisation
    before iterative eigenvector-optimisation
 modified Broyden-mixing scheme, WC =      100.0
 initial mixing is a Kerker type mixing with AMIX =  0.4000 and BMIX =      1.0000
 Hartree-type preconditioning will be used
 using additional bands           34
 reciprocal scheme for non local part
 use partial core corrections
 no Harris-corrections to forces 
 use gradient corrections 
 use of overlap-Matrix (Vanderbilt PP)
 Gauss-broadening in eV      SIGMA  =   0.10


--------------------------------------------------------------------------------------------------------


  energy-cutoff  :      500.00
  volume of cell :     3176.89
      direct lattice vectors                 reciprocal lattice vectors
    13.008230346  0.025600563 -0.108986189     0.076873895  0.000321741  0.000014382
    -0.051635726 12.337190325  0.003803451    -0.000159726  0.081055072 -0.000024739
    -0.003728742  0.006034533 19.795448285     0.000423269 -0.000013802  0.050516747

  length of vectors
    13.008712085 12.337298969 19.795449556     0.076874569  0.081055233  0.050518523


 
 old parameters found on file WAVECAR:
  energy-cutoff  :      500.00
  volume of cell :     3176.89
      direct lattice vectors                 reciprocal lattice vectors
    12.977100000  0.000000000  0.000000000     0.077058819  0.000493865 -0.000249520
    -0.078537984 12.254448330  0.000000000     0.000000000  0.081603021 -0.000183424
     0.064398852  0.044903631 19.977045735     0.000000000  0.000000000  0.050057452

  length of vectors

 
 k-points in units of 2pi/SCALE and weight: KPOINTS created by Atomic Simulation Env
   0.01917854  0.02034420 -0.00000259       0.500
  -0.01925841  0.02018333 -0.00000978       0.500
 
 k-points in reciprocal lattice and weights: KPOINTS created by Atomic Simulation Env
   0.25000000  0.25000000  0.00000000       0.500
  -0.25000000  0.25000000  0.00000000       0.500
 
 position of ions in fractional coordinates (direct lattice) 
   0.22449508  0.00022769  0.49789252
   0.05652770  0.09951734  0.50450849
   0.11258396  0.00000249  0.50156621
   0.27950658  0.10190659  0.49683276
   0.22187451  0.20198748  0.49646403
   0.05320669  0.29897293  0.50667708
   0.11106673  0.20015704  0.50274790
   0.21200371  0.39999985  0.49193644
   0.05052765  0.50021232  0.50705573
   0.10472024  0.40010763  0.50369703
   0.26371772  0.50001632  0.47880676
   0.21163839  0.60132064  0.48880622
   0.05276967  0.70102683  0.50438430
   0.10475489  0.60036511  0.50223816
   0.22194202  0.79787245  0.49214888
   0.05639131  0.90020707  0.50314486
   0.11093593  0.79972657  0.50020534
   0.27901325  0.89928069  0.49390355
   0.55664931  0.00051858  0.50023738
   0.39139941  0.10402001  0.49673933
   0.44579792  0.00179099  0.49754745
   0.61334912  0.10016875  0.50297359
   0.55861587  0.20024018  0.50151224
   0.61581488  0.30135621  0.50398072
   0.61149696  0.49617814  0.50383309
   0.61276639  0.69686419  0.50187151
   0.55688307  0.80078652  0.49794782
   0.39096546  0.89951539  0.49427118
   0.61285279  0.90060677  0.50083035
   0.89014477  0.99961740  0.50678776
   0.72372869  0.09918317  0.50593206
   0.77924022  0.99957354  0.50599115
   0.94578298  0.09927125  0.50733139
   0.88928231  0.19865762  0.50928027
   0.72491467  0.29927779  0.50826795
   0.77931305  0.19867362  0.50840226
   0.94343513  0.29896154  0.51018529
   0.88840791  0.39923571  0.51151888
   0.72249993  0.49854126  0.50880007
   0.77887213  0.39942832  0.51032209
   0.94194603  0.50003038  0.51091550
   0.88734656  0.60025134  0.51028081
   0.72302250  0.69957750  0.50583529
   0.77715545  0.59947962  0.50912615
   0.94260153  0.70049031  0.50813142
   0.88845779  0.80055951  0.50713014
   0.72323437  0.90023825  0.50425355
   0.77823500  0.80013585  0.50592737
   0.94547040  0.90002005  0.50603700
   0.27163437  0.30393690  0.48877539
   0.27113595  0.69598310  0.48159817
   0.44896934  0.20362782  0.49722689
   0.55745640  0.59716009  0.50024023
   0.44801842  0.80106373  0.49216651
   0.56121457  0.39610093  0.50064002
   0.36131835  0.49954324  0.45651503
   0.41031890  0.35375841  0.48639321
   0.42295506  0.64753901  0.45117723
 
 position of ions in cartesian coordinates  (Angst):
   2.91841545  0.01156085  9.83153973
   0.72830557  1.23225595  9.98118944
   1.46264768  0.00593959  9.91645793
   3.62877146  1.26739470  9.80495240
   2.87391377  2.50063401  9.80431501
   0.67479794  3.69290563 10.02523825
   1.43257172  2.47525267  9.94077665
   2.73530453  4.94327026  9.71651830
   0.62955583  6.17556798 10.03379114
   1.33968699  4.94192447  9.96101715
   3.40289686  6.17843715  9.45135468
   2.72016861  7.42697500  9.65535978
   0.64836126  8.65309603  9.98142852
   1.32980276  7.41253116  9.93289608
   2.84403916  9.85215603  9.72115382
   0.68519221 11.11050588  9.95725604
   1.39992055  9.87223743  9.89274022
   3.58119195 11.10472035  9.75005396
   7.23913044  0.02366705  9.84175804
   5.08419031  1.29633233  9.79091619
   5.79709438  0.03651098  9.80059585
   7.97153889  1.25453817  9.89012219
   7.25439430  2.48772851  9.86753985
   7.99322179  3.73669545  9.91055511
   7.92699414  6.14013918  9.90884437
   7.93315196  8.61606192  9.87063894
   7.20085735  9.89671715  9.79945361
   5.03747858 11.11048417  9.74513109
   7.92375932 11.12966872  9.85079429
  11.52570255 12.35831649  9.93887933
   9.40742164  1.24522261  9.93665274
  10.08303588 12.35493143  9.93519704
  12.29594525  1.25200239  9.94015250
  11.55583235  2.47671622  9.98526739
   9.41250832  3.71387246  9.98352444
  10.12532934  2.47409305  9.97987184
  12.25508202  3.71557658  9.99766222
  11.53409255  4.95127741 10.03043978
   9.37080581  6.17216516  9.99507923
  10.10922038  4.95084227 10.01868735
  12.22532643  6.19616741 10.01304409
  11.50991134  7.43121090 10.00681191
   9.36723387  8.65238302  9.93709764
  10.07656415  7.41886209  9.99596129
  12.22351284  8.66927968  9.95862293
  11.51403516  9.90246041  9.94508370
   9.35963466 11.12796877  9.90652658
  10.08025801  9.89440452  9.93328559
  12.25053662 11.13097695  9.91760916
   3.51596591  3.75963092  9.64707957
   3.48926555  8.59632346  9.50654863
   5.82792810  2.52668951  9.79467217
   7.21882124  7.38456760  9.84399591
   5.78472813  9.89731527  9.69687563
   7.27808863  4.90416105  9.85073559
   4.67261586  6.17496489  8.99944088
   5.31744257  4.37782440  9.58499799
   5.46677843  8.00236254  8.88762214
 


--------------------------------------------------------------------------------------------------------


 k-point  1 :   0.2500 0.2500 0.0000  plane waves:   80654
 k-point  2 :  -0.2500 0.2500 0.0000  plane waves:   80664

 maximum and minimum number of plane-waves per node :      2552     2486

 maximum number of plane-waves:     80664
 maximum index in each direction: 
   IXMAX=   23   IYMAX=   22   IZMAX=   36
   IXMIN=  -23   IYMIN=  -22   IZMIN=  -36


 parallel 3D FFT for wavefunctions:
    minimum data exchange during FFTs selected (reduces bandwidth)
 parallel 3D FFT for charge:
    minimum data exchange during FFTs selected (reduces bandwidth)


 FFT grid for exact exchange (Hartree Fock) 
  NGX = 72; NGY = 70; NGZ =112

 
 Radii for the augmentation spheres in the non-local exchange
 for species   1 augmentation radius   0.874 (default was   0.699)
       energy cutoff for augmentation   2000.0
 for species   2 augmentation radius   0.886 (default was   0.709)
       energy cutoff for augmentation   2000.0
 for species   3 augmentation radius   1.263 (default was   1.010)
       energy cutoff for augmentation   2000.0
 for species   4 augmentation radius   1.575 (default was   1.260)
       energy cutoff for augmentation   2000.0

 real space projection operators:
  total allocation   :       2802.18 KBytes
  max/ min on nodes  :        148.52         45.00

 Maximum index for augmentation-charges in exchange          246
  SETUP_FOCK is finished

 total amount of memory used by VASP MPI-rank0   160694. kBytes
=======================================================================

   base      :      30000. kBytes
   nonl-proj :       5324. kBytes
   fftplans  :      12974. kBytes
   grid      :      33177. kBytes
   one-center:         62. kBytes
   HF        :         23. kBytes
   nonlr-proj:       3168. kBytes
   wavefun   :      75966. kBytes
 
     INWAV:  cpu time    3.4535: real time    3.4548
 Broyden mixing: mesh for mixing (old mesh)
   NGX = 47   NGY = 45   NGZ = 73
  (NGX  =192   NGY  =180   NGZ  =288)
  gives a total of 154395 points

 charge density for first step will be calculated from the start-wavefunctions


--------------------------------------------------------------------------------------------------------


 Maximum index for augmentation-charges          546 (set IRDMAX)


--------------------------------------------------------------------------------------------------------


 initial charge from wavefunction
 First call to EWALD:  gamma=   0.121
 Maximum number of real-space cells 3x 3x 2
 Maximum number of reciprocal cells 2x 2x 4

    FEWALD:  cpu time    0.0034: real time    0.0034


--------------------------------------- Iteration      1(   1)  ---------------------------------------


    POTLOK:  cpu time    1.2427: real time    1.2481
    SETDIJ:  cpu time    2.0881: real time    2.0893
    TRIAL :  cpu time  510.0643: real time  510.1600
    CORREC:  cpu time    0.0022: real time    0.0024
    CHARGE:  cpu time    1.5822: real time    1.5822
    --------------------------------------------
      LOOP:  cpu time  514.9944: real time  515.1009

 eigenvalue-minimisations  :     0
 total energy-change (2. order) :-0.6044929E+03  (-0.4787029E+00)
 number of electron     238.0000024 magnetization       2.0819656
 augmentation part       10.5710765 magnetization       1.8403066

 DIPCOR: dipole corrections for dipol
 direction  3 min pos     1,
 dipolmoment          -0.000086      0.000139      0.455025 electrons x Angstroem
 Tr[quadrupol]     -6282.704753

 energy correction for charged system         0.000000 eV
 dipol+quadrupol energy correction            0.005923 eV
 added-field ion interaction          0.000000 eV  (added to PSCEN)


 Free energy of the ion-electron system (eV)
  ---------------------------------------------------
  alpha Z        PSCENC =        99.38773301
  Ewald energy   TEWEN  =     36324.59650055
  -Hartree energ DENC   =    -44164.45999054
  -exchange      EXHF   =       529.45671773
  -V(xc)+E(xc)   XCENC  =       572.71889155
  PAW double counting   =     25234.22659147   -25238.16442025
  entropy T*S    EENTRO =        -0.01702333
  eigenvalues    EBANDS =     -3017.23057432
  atomic energy  EATOM  =      9054.99806466
  ---------------------------------------------------
  free energy    TOTEN  =      -604.49293884 eV

  energy without entropy =     -604.47591551  energy(sigma->0) =     -604.48442718
  exchange ACFDT corr.  =        -0.03142079  see jH, gK, PRB 81, 115126


--------------------------------------------------------------------------------------------------------




--------------------------------------- Iteration      1(   2)  ---------------------------------------


    POTLOK:  cpu time    1.2654: real time    1.2655
    SETDIJ:  cpu time    2.0851: real time    2.0852
    TRIAL :  cpu time  506.5074: real time  506.6161
    CORREC:  cpu time    0.0022: real time    0.0025
    CHARGE:  cpu time    1.5907: real time    1.5908
    --------------------------------------------
      LOOP:  cpu time  511.4532: real time  511.5625

 eigenvalue-minimisations  :     0
 total energy-change (2. order) :-0.3740026E+00  (-0.3803227E+00)
 number of electron     238.0000024 magnetization       2.0598669
 augmentation part       10.5098717 magnetization       1.8809527

 DIPCOR: dipole corrections for dipol
 direction  3 min pos     1,
 dipolmoment          -0.000094      0.000152      0.497994 electrons x Angstroem
 Tr[quadrupol]     -6282.556626

 energy correction for charged system         0.000000 eV
 dipol+quadrupol energy correction            0.007094 eV
 added-field ion interaction          0.000000 eV  (added to PSCEN)


 Free energy of the ion-electron system (eV)
  ---------------------------------------------------
  alpha Z        PSCENC =        99.38890443
  Ewald energy   TEWEN  =     36324.59650055
  -Hartree energ DENC   =    -44152.35557863
  -exchange      EXHF   =       529.40008646
  -V(xc)+E(xc)   XCENC  =       572.46275983
  PAW double counting   =     25359.25878372   -25362.84475540
  entropy T*S    EENTRO =        -0.01238814
  eigenvalues    EBANDS =     -3029.75468370
  atomic energy  EATOM  =      9054.99806466
  ---------------------------------------------------
  free energy    TOTEN  =      -604.86694141 eV

  energy without entropy =     -604.85455327  energy(sigma->0) =     -604.86074734
  exchange ACFDT corr.  =        -0.02249153  see jH, gK, PRB 81, 115126


--------------------------------------------------------------------------------------------------------




--------------------------------------- Iteration      1(   3)  ---------------------------------------


    POTLOK:  cpu time    1.2674: real time    1.2674
    SETDIJ:  cpu time    2.0812: real time    2.0815
    TRIAL :  cpu time  505.3410: real time  505.4366
    CORREC:  cpu time    0.0022: real time    0.0024
    CHARGE:  cpu time    1.5827: real time    1.5827
    --------------------------------------------
      LOOP:  cpu time  510.2772: real time  510.3734

 eigenvalue-minimisations  :     0
 total energy-change (2. order) :-0.2862296E+00  (-0.2177654E+00)
 number of electron     238.0000024 magnetization       2.0399892
 augmentation part       10.4964715 magnetization       1.9157920

 DIPCOR: dipole corrections for dipol
 direction  3 min pos     1,
 dipolmoment          -0.000095      0.000153      0.503006 electrons x Angstroem
 Tr[quadrupol]     -6282.355641

 energy correction for charged system         0.000000 eV
 dipol+quadrupol energy correction            0.007238 eV
 added-field ion interaction          0.000000 eV  (added to PSCEN)


 Free energy of the ion-electron system (eV)
  ---------------------------------------------------
  alpha Z        PSCENC =        99.38904793
  Ewald energy   TEWEN  =     36324.59650055
  -Hartree energ DENC   =    -44135.05783699
  -exchange      EXHF   =       529.29086138
  -V(xc)+E(xc)   XCENC  =       572.09203824
  PAW double counting   =     25515.33956680   -25518.50286186
  entropy T*S    EENTRO =        -0.00852410
  eigenvalues    EBANDS =     -3047.28616354
  atomic energy  EATOM  =      9054.99806466
  ---------------------------------------------------
  free energy    TOTEN  =      -605.15317097 eV

  energy without entropy =     -605.14464687  energy(sigma->0) =     -605.14890892
  exchange ACFDT corr.  =        -0.01088200  see jH, gK, PRB 81, 115126


--------------------------------------------------------------------------------------------------------




--------------------------------------- Iteration      1(   4)  ---------------------------------------


    POTLOK:  cpu time    1.2688: real time    1.2690
    SETDIJ:  cpu time    2.0846: real time    2.0859
    TRIAL :  cpu time  505.3146: real time  505.4262
    CORREC:  cpu time    0.0021: real time    0.0023
    CHARGE:  cpu time    1.5837: real time    1.5838
    --------------------------------------------
      LOOP:  cpu time  510.2561: real time  510.3695

 eigenvalue-minimisations  :     0
 total energy-change (2. order) :-0.1641551E+00  (-0.1180316E+00)
 number of electron     238.0000024 magnetization       2.0253182
 augmentation part       10.5030430 magnetization       1.9414587

 DIPCOR: dipole corrections for dipol
 direction  3 min pos     1,
 dipolmoment          -0.000091      0.000147      0.482218 electrons x Angstroem
 Tr[quadrupol]     -6282.247382

 energy correction for charged system         0.000000 eV
 dipol+quadrupol energy correction            0.006652 eV
 added-field ion interaction          0.000000 eV  (added to PSCEN)


 Free energy of the ion-electron system (eV)
  ---------------------------------------------------
  alpha Z        PSCENC =        99.38846206
  Ewald energy   TEWEN  =     36324.59650055
  -Hartree energ DENC   =    -44124.99394460
  -exchange      EXHF   =       529.31517854
  -V(xc)+E(xc)   XCENC  =       571.87252932
  PAW double counting   =     25648.30897839   -25651.47735255
  entropy T*S    EENTRO =        -0.00567480
  eigenvalues    EBANDS =     -3057.31721830
  atomic energy  EATOM  =      9054.99806466
  ---------------------------------------------------
  free energy    TOTEN  =      -605.31732602 eV

  energy without entropy =     -605.31165122  energy(sigma->0) =     -605.31448862
  exchange ACFDT corr.  =        -0.00620818  see jH, gK, PRB 81, 115126


--------------------------------------------------------------------------------------------------------




--------------------------------------- Iteration      1(   5)  ---------------------------------------


    POTLOK:  cpu time    1.2720: real time    1.2725
    SETDIJ:  cpu time    2.1187: real time    2.1188
    TRIAL :  cpu time  503.6868: real time  503.7999
    CORREC:  cpu time    0.0021: real time    0.0024
    CHARGE:  cpu time    1.5805: real time    1.5806
    --------------------------------------------
      LOOP:  cpu time  508.6628: real time  508.7767

 eigenvalue-minimisations  :     0
 total energy-change (2. order) :-0.9169346E-01  (-0.7443734E-01)
 number of electron     238.0000024 magnetization       2.0159685
 augmentation part       10.5053674 magnetization       1.9603901

 DIPCOR: dipole corrections for dipol
 direction  3 min pos     1,
 dipolmoment          -0.000089      0.000144      0.472218 electrons x Angstroem
 Tr[quadrupol]     -6282.252366

 energy correction for charged system         0.000000 eV
 dipol+quadrupol energy correction            0.006379 eV
 added-field ion interaction          0.000000 eV  (added to PSCEN)


 Free energy of the ion-electron system (eV)
  ---------------------------------------------------
  alpha Z        PSCENC =        99.38818905
  Ewald energy   TEWEN  =     36324.59650055
  -Hartree energ DENC   =    -44124.00749235
  -exchange      EXHF   =       529.50969304
  -V(xc)+E(xc)   XCENC  =       571.87413486
  PAW double counting   =     25743.63667545   -25746.96753485
  entropy T*S    EENTRO =        -0.00378252
  eigenvalues    EBANDS =     -3058.43157509
  atomic energy  EATOM  =      9054.99806466
  ---------------------------------------------------
  free energy    TOTEN  =      -605.40901949 eV

  energy without entropy =     -605.40523697  energy(sigma->0) =     -605.40712823
  exchange ACFDT corr.  =        -0.00355487  see jH, gK, PRB 81, 115126


--------------------------------------------------------------------------------------------------------




--------------------------------------- Iteration      1(   6)  ---------------------------------------


    POTLOK:  cpu time    1.2650: real time    1.2650
    SETDIJ:  cpu time    2.1136: real time    2.1145
    TRIAL :  cpu time  503.7388: real time  503.8544
    CORREC:  cpu time    0.0020: real time    0.0023
    CHARGE:  cpu time    1.5707: real time    1.5708
    --------------------------------------------
      LOOP:  cpu time  508.6926: real time  508.8094

 eigenvalue-minimisations  :     0
 total energy-change (2. order) :-0.6141745E-01  (-0.5236854E-01)
 number of electron     238.0000024 magnetization       2.0101195
 augmentation part       10.5034911 magnetization       1.9748472

 DIPCOR: dipole corrections for dipol
 direction  3 min pos     1,
 dipolmoment          -0.000091      0.000147      0.480623 electrons x Angstroem
 Tr[quadrupol]     -6282.311779

 energy correction for charged system         0.000000 eV
 dipol+quadrupol energy correction            0.006608 eV
 added-field ion interaction          0.000000 eV  (added to PSCEN)


 Free energy of the ion-electron system (eV)
  ---------------------------------------------------
  alpha Z        PSCENC =        99.38841814
  Ewald energy   TEWEN  =     36324.59650055
  -Hartree energ DENC   =    -44127.60572869
  -exchange      EXHF   =       529.77799269
  -V(xc)+E(xc)   XCENC  =       572.00213525
  PAW double counting   =     25804.68368769   -25808.08460888
  entropy T*S    EENTRO =        -0.00254763
  eigenvalues    EBANDS =     -3055.22311583
  atomic energy  EATOM  =      9054.99806466
  ---------------------------------------------------
  free energy    TOTEN  =      -605.47043694 eV

  energy without entropy =     -605.46788931  energy(sigma->0) =     -605.46916312
  exchange ACFDT corr.  =        -0.00209394  see jH, gK, PRB 81, 115126


--------------------------------------------------------------------------------------------------------




--------------------------------------- Iteration      1(   7)  ---------------------------------------


    POTLOK:  cpu time    1.2693: real time    1.2694
    SETDIJ:  cpu time    2.1151: real time    2.1153
    TRIAL :  cpu time  504.0090: real time  504.1111
    CORREC:  cpu time    0.0019: real time    0.0022
    CHARGE:  cpu time    1.5678: real time    1.5680
    --------------------------------------------
      LOOP:  cpu time  508.9652: real time  509.0680

 eigenvalue-minimisations  :     0
 total energy-change (2. order) :-0.4377874E-01  (-0.3567186E-01)
 number of electron     238.0000024 magnetization       2.0064417
 augmentation part       10.5037154 magnetization       1.9866418

 DIPCOR: dipole corrections for dipol
 direction  3 min pos     1,
 dipolmoment          -0.000093      0.000151      0.493754 electrons x Angstroem
 Tr[quadrupol]     -6282.370126

 energy correction for charged system         0.000000 eV
 dipol+quadrupol energy correction            0.006974 eV
 added-field ion interaction          0.000000 eV  (added to PSCEN)


 Free energy of the ion-electron system (eV)
  ---------------------------------------------------
  alpha Z        PSCENC =        99.38878413
  Ewald energy   TEWEN  =     36324.59650055
  -Hartree energ DENC   =    -44131.62681814
  -exchange      EXHF   =       530.01917058
  -V(xc)+E(xc)   XCENC  =       572.14668947
  PAW double counting   =     25840.28937634   -25843.68938539
  entropy T*S    EENTRO =        -0.00173570
  eigenvalues    EBANDS =     -3051.63405025
  atomic energy  EATOM  =      9054.99806466
  ---------------------------------------------------
  free energy    TOTEN  =      -605.51421568 eV

  energy without entropy =     -605.51247997  energy(sigma->0) =     -605.51334783
  exchange ACFDT corr.  =        -0.00127468  see jH, gK, PRB 81, 115126


--------------------------------------------------------------------------------------------------------




--------------------------------------- Iteration      1(   8)  ---------------------------------------


    POTLOK:  cpu time    1.2664: real time    1.2665
    SETDIJ:  cpu time    2.0812: real time    2.0813
    TRIAL :  cpu time  504.2538: real time  504.3539
    CORREC:  cpu time    0.0020: real time    0.0022
    CHARGE:  cpu time    1.5687: real time    1.5689
    --------------------------------------------
      LOOP:  cpu time  509.1744: real time  509.2751

 eigenvalue-minimisations  :     0
 total energy-change (2. order) :-0.3069542E-01  (-0.2594206E-01)
 number of electron     238.0000024 magnetization       2.0041565
 augmentation part       10.5073635 magnetization       1.9969504

 DIPCOR: dipole corrections for dipol
 direction  3 min pos     1,
 dipolmoment          -0.000094      0.000152      0.500171 electrons x Angstroem
 Tr[quadrupol]     -6282.402502

 energy correction for charged system         0.000000 eV
 dipol+quadrupol energy correction            0.007156 eV
 added-field ion interaction          0.000000 eV  (added to PSCEN)


 Free energy of the ion-electron system (eV)
  ---------------------------------------------------
  alpha Z        PSCENC =        99.38896659
  Ewald energy   TEWEN  =     36324.59650055
  -Hartree energ DENC   =    -44134.11344040
  -exchange      EXHF   =       530.18616766
  -V(xc)+E(xc)   XCENC  =       572.24943367
  PAW double counting   =     25858.62445925   -25862.03617707
  entropy T*S    EENTRO =        -0.00120356
  eigenvalues    EBANDS =     -3049.43715030
  atomic energy  EATOM  =      9054.99806466
  ---------------------------------------------------
  free energy    TOTEN  =      -605.54491110 eV

  energy without entropy =     -605.54370754  energy(sigma->0) =     -605.54430932
  exchange ACFDT corr.  =        -0.00080101  see jH, gK, PRB 81, 115126


--------------------------------------------------------------------------------------------------------




--------------------------------------- Iteration      1(   9)  ---------------------------------------


    POTLOK:  cpu time    1.2621: real time    1.2622
    SETDIJ:  cpu time    2.0800: real time    2.0801
    TRIAL :  cpu time  504.2139: real time  504.3422
    CORREC:  cpu time    0.0020: real time    0.0022
    CHARGE:  cpu time    1.5729: real time    1.5730
    --------------------------------------------
      LOOP:  cpu time  509.1336: real time  509.2624

 eigenvalue-minimisations  :     0
 total energy-change (2. order) :-0.2319035E-01  (-0.2001040E-01)
 number of electron     238.0000024 magnetization       2.0027521
 augmentation part       10.5119293 magnetization       2.0064089

 DIPCOR: dipole corrections for dipol
 direction  3 min pos     1,
 dipolmoment          -0.000094      0.000152      0.498599 electrons x Angstroem
 Tr[quadrupol]     -6282.409792

 energy correction for charged system         0.000000 eV
 dipol+quadrupol energy correction            0.007111 eV
 added-field ion interaction          0.000000 eV  (added to PSCEN)


 Free energy of the ion-electron system (eV)
  ---------------------------------------------------
  alpha Z        PSCENC =        99.38892168
  Ewald energy   TEWEN  =     36324.59650055
  -Hartree energ DENC   =    -44134.90275408
  -exchange      EXHF   =       530.28168737
  -V(xc)+E(xc)   XCENC  =       572.30246417
  PAW double counting   =     25866.52569572   -25869.98089487
  entropy T*S    EENTRO =        -0.00085663
  eigenvalues    EBANDS =     -3048.77658309
  atomic energy  EATOM  =      9054.99806466
  ---------------------------------------------------
  free energy    TOTEN  =      -605.56810145 eV

  energy without entropy =     -605.56724482  energy(sigma->0) =     -605.56767314
  exchange ACFDT corr.  =        -0.00052126  see jH, gK, PRB 81, 115126


--------------------------------------------------------------------------------------------------------




--------------------------------------- Iteration      1(  10)  ---------------------------------------


    POTLOK:  cpu time    1.2629: real time    1.2631
    SETDIJ:  cpu time    2.0815: real time    2.0819
    TRIAL :  cpu time  504.5563: real time  504.6760
    CORREC:  cpu time    0.0020: real time    0.0022
    CHARGE:  cpu time    1.5758: real time    1.5760
    --------------------------------------------
      LOOP:  cpu time  509.4808: real time  509.6016

 eigenvalue-minimisations  :     0
 total energy-change (2. order) :-0.1819746E-01  (-0.1554701E-01)
 number of electron     238.0000024 magnetization       2.0018821
 augmentation part       10.5149391 magnetization       2.0152620

 DIPCOR: dipole corrections for dipol
 direction  3 min pos     1,
 dipolmoment          -0.000093      0.000151      0.493802 electrons x Angstroem
 Tr[quadrupol]     -6282.403874

 energy correction for charged system         0.000000 eV
 dipol+quadrupol energy correction            0.006975 eV
 added-field ion interaction          0.000000 eV  (added to PSCEN)


 Free energy of the ion-electron system (eV)
  ---------------------------------------------------
  alpha Z        PSCENC =        99.38878548
  Ewald energy   TEWEN  =     36324.59650055
  -Hartree energ DENC   =    -44134.68351733
  -exchange      EXHF   =       530.33246549
  -V(xc)+E(xc)   XCENC  =       572.32387228
  PAW double counting   =     25868.93172186   -25872.43908783
  entropy T*S    EENTRO =        -0.00062881
  eigenvalues    EBANDS =     -3049.03424744
  atomic energy  EATOM  =      9054.99806466
  ---------------------------------------------------
  free energy    TOTEN  =      -605.58629891 eV

  energy without entropy =     -605.58567009  energy(sigma->0) =     -605.58598450
  exchange ACFDT corr.  =        -0.00035298  see jH, gK, PRB 81, 115126


--------------------------------------------------------------------------------------------------------




--------------------------------------- Iteration      1(  11)  ---------------------------------------


    POTLOK:  cpu time    1.2564: real time    1.2566
    SETDIJ:  cpu time    2.0811: real time    2.0811
    TRIAL :  cpu time  504.1606: real time  504.2890
    CORREC:  cpu time    0.0019: real time    0.0022
    CHARGE:  cpu time    1.5695: real time    1.5695
    --------------------------------------------
      LOOP:  cpu time  509.0714: real time  509.2004

 eigenvalue-minimisations  :     0
 total energy-change (2. order) :-0.1427209E-01  (-0.1231388E-01)
 number of electron     238.0000024 magnetization       2.0013285
 augmentation part       10.5160044 magnetization       2.0234649

 DIPCOR: dipole corrections for dipol
 direction  3 min pos     1,
 dipolmoment          -0.000092      0.000150      0.490785 electrons x Angstroem
 Tr[quadrupol]     -6282.396274

 energy correction for charged system         0.000000 eV
 dipol+quadrupol energy correction            0.006890 eV
 added-field ion interaction          0.000000 eV  (added to PSCEN)


 Free energy of the ion-electron system (eV)
  ---------------------------------------------------
  alpha Z        PSCENC =        99.38870053
  Ewald energy   TEWEN  =     36324.59650055
  -Hartree energ DENC   =    -44134.23406364
  -exchange      EXHF   =       530.36601669
  -V(xc)+E(xc)   XCENC  =       572.33537201
  PAW double counting   =     25869.07291282   -25872.61922143
  entropy T*S    EENTRO =        -0.00047603
  eigenvalues    EBANDS =     -3049.50422436
  atomic energy  EATOM  =      9054.99806466
  ---------------------------------------------------
  free energy    TOTEN  =      -605.60057099 eV

  energy without entropy =     -605.60009496  energy(sigma->0) =     -605.60033298
  exchange ACFDT corr.  =        -0.00024902  see jH, gK, PRB 81, 115126


--------------------------------------------------------------------------------------------------------




--------------------------------------- Iteration      1(  12)  ---------------------------------------


    POTLOK:  cpu time    1.2546: real time    1.2547
    SETDIJ:  cpu time    2.0830: real time    2.0832
    TRIAL :  cpu time  503.8872: real time  504.0212
    CORREC:  cpu time    0.0020: real time    0.0023
    CHARGE:  cpu time    1.5661: real time    1.5711
    --------------------------------------------
      LOOP:  cpu time  508.7951: real time  508.9345

 eigenvalue-minimisations  :     0
 total energy-change (2. order) :-0.1136696E-01  (-0.9939257E-02)
 number of electron     238.0000024 magnetization       2.0009642
 augmentation part       10.5161954 magnetization       2.0308938

 DIPCOR: dipole corrections for dipol
 direction  3 min pos     1,
 dipolmoment          -0.000092      0.000150      0.491053 electrons x Angstroem
 Tr[quadrupol]     -6282.392196

 energy correction for charged system         0.000000 eV
 dipol+quadrupol energy correction            0.006898 eV
 added-field ion interaction          0.000000 eV  (added to PSCEN)


 Free energy of the ion-electron system (eV)
  ---------------------------------------------------
  alpha Z        PSCENC =        99.38870805
  Ewald energy   TEWEN  =     36324.59650055
  -Hartree energ DENC   =    -44133.96345441
  -exchange      EXHF   =       530.39718126
  -V(xc)+E(xc)   XCENC  =       572.34868103
  PAW double counting   =     25868.93611863   -25872.50552137
  entropy T*S    EENTRO =        -0.00037062
  eigenvalues    EBANDS =     -3049.80774031
  atomic energy  EATOM  =      9054.99806466
  ---------------------------------------------------
  free energy    TOTEN  =      -605.61193795 eV

  energy without entropy =     -605.61156733  energy(sigma->0) =     -605.61175264
  exchange ACFDT corr.  =        -0.00018255  see jH, gK, PRB 81, 115126


--------------------------------------------------------------------------------------------------------




--------------------------------------- Iteration      1(  13)  ---------------------------------------


    POTLOK:  cpu time    1.2545: real time    1.2547
    SETDIJ:  cpu time    2.0805: real time    2.0807
    TRIAL :  cpu time  504.4476: real time  504.5682
    CORREC:  cpu time    0.0020: real time    0.0022
    CHARGE:  cpu time    1.5664: real time    1.5698
    --------------------------------------------
      LOOP:  cpu time  509.3532: real time  509.4781

 eigenvalue-minimisations  :     0
 total energy-change (2. order) :-0.9201300E-02  (-0.8102834E-02)
 number of electron     238.0000024 magnetization       2.0007167
 augmentation part       10.5165180 magnetization       2.0374992

 DIPCOR: dipole corrections for dipol
 direction  3 min pos     1,
 dipolmoment          -0.000093      0.000150      0.492895 electrons x Angstroem
 Tr[quadrupol]     -6282.391451

 energy correction for charged system         0.000000 eV
 dipol+quadrupol energy correction            0.006950 eV
 added-field ion interaction          0.000000 eV  (added to PSCEN)


 Free energy of the ion-electron system (eV)
  ---------------------------------------------------
  alpha Z        PSCENC =        99.38875989
  Ewald energy   TEWEN  =     36324.59650055
  -Hartree energ DENC   =    -44133.89718737
  -exchange      EXHF   =       530.42815706
  -V(xc)+E(xc)   XCENC  =       572.36455398
  PAW double counting   =     25869.15862393   -25872.74441595
  entropy T*S    EENTRO =        -0.00029582
  eigenvalues    EBANDS =     -3049.91382538
  atomic energy  EATOM  =      9054.99806466
  ---------------------------------------------------
  free energy    TOTEN  =      -605.62113925 eV

  energy without entropy =     -605.62084343  energy(sigma->0) =     -605.62099134
  exchange ACFDT corr.  =        -0.00013852  see jH, gK, PRB 81, 115126


--------------------------------------------------------------------------------------------------------




--------------------------------------- Iteration      1(  14)  ---------------------------------------


    POTLOK:  cpu time    1.2458: real time    1.2458
    SETDIJ:  cpu time    2.0798: real time    2.0799
    TRIAL :  cpu time  503.7886: real time  503.9038
    CORREC:  cpu time    0.0019: real time    0.0022
    CHARGE:  cpu time    1.5602: real time    1.5604
    --------------------------------------------
      LOOP:  cpu time  508.6787: real time  508.7945

 eigenvalue-minimisations  :     0
 total energy-change (2. order) :-0.7556080E-02  (-0.6695171E-02)
 number of electron     238.0000024 magnetization       2.0005439
 augmentation part       10.5172212 magnetization       2.0433397

 DIPCOR: dipole corrections for dipol
 direction  3 min pos     1,
 dipolmoment          -0.000093      0.000151      0.494316 electrons x Angstroem
 Tr[quadrupol]     -6282.392077

 energy correction for charged system         0.000000 eV
 dipol+quadrupol energy correction            0.006990 eV
 added-field ion interaction          0.000000 eV  (added to PSCEN)


 Free energy of the ion-electron system (eV)
  ---------------------------------------------------
  alpha Z        PSCENC =        99.38880002
  Ewald energy   TEWEN  =     36324.59650055
  -Hartree energ DENC   =    -44133.91324726
  -exchange      EXHF   =       530.45655756
  -V(xc)+E(xc)   XCENC  =       572.37981700
  PAW double counting   =     25869.73927026   -25873.34206915
  entropy T*S    EENTRO =        -0.00024144
  eigenvalues    EBANDS =     -3049.93209316
  atomic energy  EATOM  =      9054.99806466
  ---------------------------------------------------
  free energy    TOTEN  =      -605.62869533 eV

  energy without entropy =     -605.62845389  energy(sigma->0) =     -605.62857461
  exchange ACFDT corr.  =        -0.00010842  see jH, gK, PRB 81, 115126


--------------------------------------------------------------------------------------------------------




--------------------------------------- Iteration      1(  15)  ---------------------------------------


    POTLOK:  cpu time    1.2411: real time    1.2421
    SETDIJ:  cpu time    2.0856: real time    2.0856
    TRIAL :  cpu time  504.3460: real time  504.4690
    CORREC:  cpu time    0.0018: real time    0.0021
    CHARGE:  cpu time    1.5613: real time    1.5614
    --------------------------------------------
      LOOP:  cpu time  509.2381: real time  509.3623

 eigenvalue-minimisations  :     0
 total energy-change (2. order) :-0.6302193E-02  (-0.5589063E-02)
 number of electron     238.0000024 magnetization       2.0004205
 augmentation part       10.5180210 magnetization       2.0485215

 DIPCOR: dipole corrections for dipol
 direction  3 min pos     1,
 dipolmoment          -0.000093      0.000151      0.494683 electrons x Angstroem
 Tr[quadrupol]     -6282.392664

 energy correction for charged system         0.000000 eV
 dipol+quadrupol energy correction            0.007000 eV
 added-field ion interaction          0.000000 eV  (added to PSCEN)


 Free energy of the ion-electron system (eV)
  ---------------------------------------------------
  alpha Z        PSCENC =        99.38881041
  Ewald energy   TEWEN  =     36324.59650055
  -Hartree energ DENC   =    -44133.91866801
  -exchange      EXHF   =       530.48091571
  -V(xc)+E(xc)   XCENC  =       572.39249600
  PAW double counting   =     25870.56589863   -25874.18727319
  entropy T*S    EENTRO =        -0.00020113
  eigenvalues    EBANDS =     -3049.95150085
  atomic energy  EATOM  =      9054.99806466
  ---------------------------------------------------
  free energy    TOTEN  =      -605.63499752 eV

  energy without entropy =     -605.63479639  energy(sigma->0) =     -605.63489696
  exchange ACFDT corr.  =        -0.00008728  see jH, gK, PRB 81, 115126


--------------------------------------------------------------------------------------------------------




--------------------------------------- Iteration      1(  16)  ---------------------------------------


    POTLOK:  cpu time    1.2398: real time    1.2401
    SETDIJ:  cpu time    2.0807: real time    2.0818
    TRIAL :  cpu time  504.4158: real time  504.5218
    CORREC:  cpu time    0.0019: real time    0.0022
    CHARGE:  cpu time    1.5612: real time    1.5612
    --------------------------------------------
      LOOP:  cpu time  509.3017: real time  509.4093

 eigenvalue-minimisations  :     0
 total energy-change (2. order) :-0.5295594E-02  (-0.4693533E-02)
 number of electron     238.0000024 magnetization       2.0003304
 augmentation part       10.5185935 magnetization       2.0531409

 DIPCOR: dipole corrections for dipol
 direction  3 min pos     1,
 dipolmoment          -0.000093      0.000151      0.494482 electrons x Angstroem
 Tr[quadrupol]     -6282.392881

 energy correction for charged system         0.000000 eV
 dipol+quadrupol energy correction            0.006995 eV
 added-field ion interaction          0.000000 eV  (added to PSCEN)


 Free energy of the ion-electron system (eV)
  ---------------------------------------------------
  alpha Z        PSCENC =        99.38880472
  Ewald energy   TEWEN  =     36324.59650055
  -Hartree energ DENC   =    -44133.89521791
  -exchange      EXHF   =       530.50178693
  -V(xc)+E(xc)   XCENC  =       572.40284827
  PAW double counting   =     25871.57339672   -25875.21233555
  entropy T*S    EENTRO =        -0.00017074
  eigenvalues    EBANDS =     -3049.99394038
  atomic energy  EATOM  =      9054.99806466
  ---------------------------------------------------
  free energy    TOTEN  =      -605.64029312 eV

  energy without entropy =     -605.64012237  energy(sigma->0) =     -605.64020775
  exchange ACFDT corr.  =        -0.00007211  see jH, gK, PRB 81, 115126


--------------------------------------------------------------------------------------------------------




--------------------------------------- Iteration      1(  17)  ---------------------------------------


    POTLOK:  cpu time    1.2370: real time    1.2372
    SETDIJ:  cpu time    2.1104: real time    2.1104
    TRIAL :  cpu time  504.5768: real time  504.6418
    CORREC:  cpu time    0.0020: real time    0.0022
    CHARGE:  cpu time    1.5600: real time    1.5601
    --------------------------------------------
      LOOP:  cpu time  509.4882: real time  509.5538

 eigenvalue-minimisations  :     0
 total energy-change (2. order) :-0.4459900E-02  (-0.3963890E-02)
 number of electron     238.0000024 magnetization       2.0002633
 augmentation part       10.5188694 magnetization       2.0572674

 DIPCOR: dipole corrections for dipol
 direction  3 min pos     1,
 dipolmoment          -0.000093      0.000151      0.494394 electrons x Angstroem
 Tr[quadrupol]     -6282.392938

 energy correction for charged system         0.000000 eV
 dipol+quadrupol energy correction            0.006992 eV
 added-field ion interaction          0.000000 eV  (added to PSCEN)


 Free energy of the ion-electron system (eV)
  ---------------------------------------------------
  alpha Z        PSCENC =        99.38880222
  Ewald energy   TEWEN  =     36324.59650055
  -Hartree energ DENC   =    -44133.86458934
  -exchange      EXHF   =       530.52050089
  -V(xc)+E(xc)   XCENC  =       572.41208096
  PAW double counting   =     25872.67583982   -25876.32921809
  entropy T*S    EENTRO =        -0.00014745
  eigenvalues    EBANDS =     -3050.04256394
  atomic energy  EATOM  =      9054.99806466
  ---------------------------------------------------
  free energy    TOTEN  =      -605.64475302 eV

  energy without entropy =     -605.64460557  energy(sigma->0) =     -605.64467929
  exchange ACFDT corr.  =        -0.00006099  see jH, gK, PRB 81, 115126


--------------------------------------------------------------------------------------------------------




--------------------------------------- Iteration      1(  18)  ---------------------------------------


    POTLOK:  cpu time    1.2347: real time    1.2347
    SETDIJ:  cpu time    2.0779: real time    2.0781
    TRIAL :  cpu time  504.5498: real time  504.6225
    CORREC:  cpu time    0.0019: real time    0.0022
    CHARGE:  cpu time    1.5625: real time    1.5626
    --------------------------------------------
      LOOP:  cpu time  509.4290: real time  509.5023

 eigenvalue-minimisations  :     0
 total energy-change (2. order) :-0.3768780E-02  (-0.3364357E-02)
 number of electron     238.0000024 magnetization       2.0002123
 augmentation part       10.5189829 magnetization       2.0609585

 DIPCOR: dipole corrections for dipol
 direction  3 min pos     1,
 dipolmoment          -0.000093      0.000151      0.494643 electrons x Angstroem
 Tr[quadrupol]     -6282.392982

 energy correction for charged system         0.000000 eV
 dipol+quadrupol energy correction            0.006999 eV
 added-field ion interaction          0.000000 eV  (added to PSCEN)


 Free energy of the ion-electron system (eV)
  ---------------------------------------------------
  alpha Z        PSCENC =        99.38880926
  Ewald energy   TEWEN  =     36324.59650055
  -Hartree energ DENC   =    -44133.84097173
  -exchange      EXHF   =       530.53774142
  -V(xc)+E(xc)   XCENC  =       572.42085625
  PAW double counting   =     25873.76097629   -25877.42562942
  entropy T*S    EENTRO =        -0.00012931
  eigenvalues    EBANDS =     -3050.08472164
  atomic energy  EATOM  =      9054.99806466
  ---------------------------------------------------
  free energy    TOTEN  =      -605.64852180 eV

[...]
  augment    23.64681    19.09581    23.71798    -1.70058     0.84638    -0.12144
  Kinetic  3509.27689  3482.44474  3934.17246    -0.33302     1.32820    10.70800
  Fock     -281.60185  -278.07471  -257.00202     1.84853    -1.46131     1.21091
  -------------------------------------------------------------------------------------
  Total     -42.18098   -45.17462    -1.32227     0.31038    -0.27028     1.07019
  in kB     -21.27280   -22.78255    -0.66685     0.15653    -0.13631     0.53972
  external pressure =      -14.91 kB  Pullay stress =        0.00 kB


 VOLUME and BASIS-vectors are now :
 -----------------------------------------------------------------------------
  energy-cutoff  :      500.00
  volume of cell :     3176.89
      direct lattice vectors                 reciprocal lattice vectors
    13.008230346  0.025600563 -0.108986189     0.076873895  0.000321741  0.000014382
    -0.051635726 12.337190325  0.003803451    -0.000159726  0.081055072 -0.000024739
    -0.003728742  0.006034533 19.795448285     0.000423269 -0.000013802  0.050516747

  length of vectors
    13.008712085 12.337298969 19.795449556     0.076874569  0.081055233  0.050518523


 FORCES acting on ions:
    Electron-Ion                     Ewald-Force                    Non-Local-Force
 -----------------------------------------------------------------------------------------------
   -.576E+01 0.625E+01 0.252E+00   0.637E+01 -.630E+01 -.141E+00   -.459E+00 0.848E-01 -.133E+00
   -.436E+01 0.478E+01 -.155E+02   0.460E+01 -.475E+01 0.155E+02   -.190E+00 -.571E-02 -.687E-01
   -.147E+02 0.406E+01 -.449E+01   0.148E+02 -.411E+01 0.432E+01   -.219E+00 0.743E-02 0.163E+00
   -.911E+01 0.213E+01 0.479E+01   0.949E+01 -.169E+01 -.486E+01   -.452E+00 -.542E+00 0.664E-01
   -.114E+02 0.102E+02 0.601E+01   0.121E+02 -.969E+01 -.593E+01   -.570E+00 -.269E+00 -.119E+00
   -.374E+01 0.861E+01 -.304E+02   0.414E+01 -.881E+01 0.304E+02   -.247E+00 0.170E+00 -.693E-01
   -.102E+02 0.453E+01 -.122E+02   0.107E+02 -.456E+01 0.121E+02   -.587E+00 0.813E-01 0.914E-01
   0.713E+00 0.814E+00 0.684E+01   -.157E+00 -.140E+01 -.706E+01   -.410E+00 0.573E+00 0.941E-01
   -.809E+01 -.411E+01 -.388E+02   0.817E+01 0.428E+01 0.388E+02   -.104E+00 -.128E+00 -.104E-01
   -.407E+01 -.249E+01 -.316E+02   0.421E+01 0.261E+01 0.316E+02   -.181E+00 -.137E+00 -.150E+00
   0.132E+02 -.273E+02 0.546E+02   -.158E+02 0.278E+02 -.544E+02   0.240E+01 -.365E+00 -.263E+00
   -.261E+02 -.192E+02 0.171E+02   0.268E+02 0.204E+02 -.177E+02   -.629E+00 -.132E+01 0.466E+00
   -.721E+01 -.101E+02 -.239E+02   0.757E+01 0.102E+02 0.238E+02   -.269E+00 -.124E+00 0.349E-01
   -.120E+02 -.582E+01 -.297E+02   0.125E+02 0.577E+01 0.299E+02   -.478E+00 0.725E-01 -.255E+00
   -.313E+02 0.371E+01 0.193E+02   0.322E+02 -.469E+01 -.191E+02   -.938E+00 0.943E+00 -.190E+00
   -.644E+01 0.120E+01 -.119E+02   0.670E+01 -.124E+01 0.120E+02   -.196E+00 0.943E-01 -.726E-01
   -.191E+02 -.997E+00 -.637E+01   0.199E+02 0.100E+01 0.635E+01   -.739E+00 -.303E-01 0.926E-02
   -.157E+02 0.206E+02 0.162E+02   0.160E+02 -.213E+02 -.166E+02   -.368E+00 0.617E+00 0.345E+00
   0.117E+02 0.971E+01 -.218E+01   -.121E+02 -.983E+01 0.208E+01   0.355E+00 0.147E+00 0.101E+00
   0.800E+01 -.135E+00 0.499E+01   -.772E+01 0.919E+00 -.500E+01   -.188E+00 -.579E+00 0.244E-01
   0.831E+01 0.106E+02 -.120E+00   -.893E+01 -.106E+02 0.283E+00   0.653E+00 -.957E-02 -.162E+00
   0.484E+01 0.721E+01 -.106E+02   -.500E+01 -.723E+01 0.107E+02   0.165E+00 0.413E-02 -.786E-01
   0.672E+01 0.759E+01 -.105E+02   -.822E+01 -.832E+01 0.105E+02   0.124E+01 0.615E+00 0.655E-02
   -.669E+01 0.250E+02 -.195E+02   0.805E+01 -.281E+02 0.197E+02   -.145E+01 0.336E+01 -.238E+00
   0.302E+02 -.441E+02 -.248E+02   -.291E+02 0.482E+02 0.250E+02   -.103E+01 -.410E+01 -.199E+00
   0.387E+02 0.123E+01 -.158E+02   -.389E+02 -.221E+01 0.168E+02   0.299E+00 0.729E+00 -.948E+00
   0.220E+02 0.286E+02 0.587E-01   -.232E+02 -.279E+02 0.727E+00   0.110E+01 -.395E+00 -.747E+00
   0.725E+01 0.278E+02 0.104E+02   -.686E+01 -.286E+02 -.101E+02   -.300E+00 0.790E+00 -.228E+00
   0.101E+02 0.982E+01 -.246E+01   -.104E+02 -.102E+02 0.253E+01   0.221E+00 0.249E+00 -.415E-01
   0.248E+01 0.276E+01 -.169E+02   -.232E+01 -.280E+01 0.169E+02   -.835E-01 0.358E-01 -.196E-01
   0.633E+01 0.554E+01 -.147E+02   -.647E+01 -.569E+01 0.146E+02   0.152E+00 0.159E+00 0.337E-01
   -.690E+00 0.365E+01 -.142E+02   0.594E+00 -.375E+01 0.142E+02   0.306E-01 0.757E-01 -.448E-01
   -.682E+01 0.215E+01 -.204E+02   0.698E+01 -.220E+01 0.203E+02   -.187E+00 0.602E-01 -.110E-01
   -.732E+00 0.516E+01 -.271E+02   0.799E+00 -.531E+01 0.271E+02   -.432E-01 0.170E+00 -.154E-01
   -.192E+01 0.525E+01 -.270E+02   0.250E+01 -.561E+01 0.270E+02   -.468E+00 0.352E+00 -.625E-01
   0.342E+00 0.266E+01 -.238E+02   -.258E+00 -.310E+01 0.238E+02   -.102E+00 0.409E+00 -.312E-01
   -.265E+01 0.787E+00 -.348E+02   0.266E+01 -.874E+00 0.349E+02   -.124E+00 0.745E-01 -.401E-01
   -.330E+00 0.297E+00 -.388E+02   0.748E+00 -.265E+00 0.388E+02   -.342E+00 -.438E-01 -.117E-01
   0.121E+02 -.134E+02 -.327E+02   -.123E+02 0.138E+02 0.328E+02   0.147E+00 -.327E+00 -.847E-01
   0.210E+00 -.636E+01 -.336E+02   0.361E-02 0.652E+01 0.336E+02   -.276E+00 -.194E+00 -.189E-01
   0.244E+01 -.398E+01 -.413E+02   -.222E+01 0.410E+01 0.414E+02   -.191E+00 -.913E-01 -.620E-01
   0.370E+01 -.472E+01 -.347E+02   -.359E+01 0.480E+01 0.347E+02   -.498E-01 -.693E-01 0.772E-02
   0.174E+02 -.294E+01 -.175E+02   -.177E+02 0.309E+01 0.174E+02   0.324E+00 -.194E+00 0.608E-01
   0.100E+02 -.288E+01 -.304E+02   -.101E+02 0.321E+01 0.304E+02   0.541E-01 -.260E+00 -.227E-01
   -.308E+01 -.211E+01 -.284E+02   0.310E+01 0.213E+01 0.285E+02   -.754E-01 -.524E-01 -.364E-01
   0.229E+01 -.284E+01 -.200E+02   -.234E+01 0.293E+01 0.200E+02   0.287E-01 -.879E-01 -.278E-01
   0.105E+02 0.601E+01 -.886E+01   -.106E+02 -.599E+01 0.884E+01   0.201E+00 0.123E-01 0.335E-01
   0.779E+01 0.232E+01 -.145E+02   -.782E+01 -.227E+01 0.145E+02   0.541E-01 -.374E-01 0.231E-01
   -.711E+01 0.244E+01 -.163E+02   0.726E+01 -.244E+01 0.163E+02   -.174E+00 0.216E-01 -.245E-01
   -.299E+02 0.251E+02 0.430E+02   0.349E+02 -.256E+02 -.444E+02   -.569E+01 0.200E+00 0.165E+01
   -.985E+02 -.131E+02 0.698E+02   0.107E+03 0.128E+02 -.725E+02   -.781E+01 0.184E+00 0.247E+01
   0.326E+02 -.924E+01 -.300E+01   -.360E+02 0.138E+02 0.314E+01   0.355E+01 -.522E+01 -.480E-01
   0.104E+03 -.422E+01 -.253E+02   -.113E+03 0.411E+01 0.251E+02   0.886E+01 0.250E+00 0.847E-01
   0.479E+02 0.797E+02 0.132E+02   -.526E+02 -.869E+02 -.135E+02   0.483E+01 0.697E+01 0.241E+00
   0.702E+02 -.488E+02 -.156E+02   -.909E+02 0.498E+02 0.140E+02   0.199E+02 -.963E+00 0.149E+01
   -.108E+03 -.646E+02 0.265E+03   0.127E+03 0.646E+02 -.276E+03   -.171E+02 0.513E+00 0.101E+02
   -.241E+02 -.291E+02 0.682E+02   0.224E+02 0.265E+02 -.696E+02   0.249E+01 0.363E+01 0.995E+00
   -.183E+02 -.221E+02 0.222E+03   0.154E+02 0.210E+02 -.215E+03   0.267E+01 0.101E+01 -.805E+01
 -----------------------------------------------------------------------------------------------
   -.688E+01 -.702E+01 -.747E+01   -.126E-12 -.142E-12 -.284E-13   0.693E+01 0.712E+01 0.601E+01
 
 
 POSITION                                       TOTAL-FORCE (eV/Angst)
 -----------------------------------------------------------------------------------
      2.91842      0.01156      9.83154         0.133714      0.036725     -0.030406
      0.72831      1.23226      9.98119         0.044239      0.021487     -0.029298
      1.46265      0.00594      9.91646        -0.129685     -0.037791      0.000792
      3.62877      1.26739      9.80495        -0.092781     -0.135471      0.004799
      2.87391      2.50063      9.80432         0.160079      0.255496     -0.039076
      0.67480      3.69291     10.02524         0.138091     -0.014991     -0.053074
      1.43257      2.47525      9.94078        -0.131606      0.043860     -0.008871
      2.73530      4.94327      9.71652         0.137867      0.016307     -0.128015
      0.62956      6.17557     10.03379        -0.031401      0.029713     -0.047104
      1.33969      4.94192      9.96102        -0.051883     -0.028272     -0.121737
      3.40290      6.17844      9.45135        -0.081838      0.118600     -0.096031
      2.72017      7.42698      9.65536         0.024216     -0.182412     -0.066222
      0.64836      8.65310      9.98143         0.084962     -0.057854     -0.028015
      1.32980      7.41253      9.93290        -0.020734      0.029568     -0.084136
      2.84404      9.85216      9.72115        -0.040688      0.005075      0.014742
      0.68519     11.11051      9.95726         0.061644      0.053817     -0.020313
      1.39992      9.87224      9.89274        -0.003391     -0.027393     -0.012395
      3.58119     11.10472      9.75005        -0.099694      0.026568      0.024200
      7.23913      0.02367      9.84176        -0.018030      0.038587      0.002398
      5.08419      1.29633      9.79092         0.087252      0.175406      0.023552
      5.79709      0.03651      9.80060         0.059769     -0.093993     -0.007440
      7.97154      1.25454      9.89012         0.003841     -0.014839     -0.007889
      7.25439      2.48773      9.86754        -0.203855     -0.086373     -0.028631
      7.99322      3.73670      9.91056        -0.180752      0.447924     -0.054144
      7.92699      6.14014      9.90884         0.029884     -0.146970     -0.049949
      7.93315      8.61606      9.87064         0.063723     -0.227947     -0.040636
      7.20086      9.89672      9.79945        -0.069966      0.243534     -0.000618
      5.03748     11.11048      9.74513         0.080147      0.013856     -0.034047
      7.92376     11.12967      9.85079        -0.037740     -0.103051      0.031411
     11.52570     12.35832      9.93888         0.075319     -0.009103     -0.007991
      9.40742      1.24522      9.93665         0.022195      0.022264      0.003868
     10.08304     12.35493      9.93520        -0.071192     -0.015841      0.000402
     12.29595      1.25200      9.94015        -0.042458      0.004302     -0.023201
     11.55583      2.47672      9.98527         0.023807      0.025722     -0.023177
      9.41251      3.71387      9.98352         0.082631      0.014008     -0.001550
     10.12533      2.47409      9.97987        -0.025618     -0.011732     -0.012651
     12.25508      3.71558      9.99766        -0.125043     -0.012636     -0.027379
     11.53409      4.95128     10.03044         0.056684     -0.010804     -0.023494
      9.37081      6.17217      9.99508        -0.027257      0.004016     -0.021115
     10.10922      4.95084     10.01869        -0.079998     -0.046201     -0.026829
     12.22533      6.19617     10.01304         0.029903      0.020910     -0.027738
     11.50991      7.43121     10.00681         0.054579      0.013116     -0.018372
      9.36723      8.65238      9.93710         0.039060     -0.059936      0.021968
     10.07656      7.41886      9.99596        -0.055805      0.054412     -0.027369
     12.22351      8.66928      9.95862        -0.069899     -0.033530     -0.020213
     11.51404      9.90246      9.94508        -0.020173     -0.006893     -0.016851
      9.35963     11.12797      9.90653         0.044428      0.032889      0.012169
     10.08026      9.89440      9.93329         0.021313      0.006660      0.005000
     12.25054     11.13098      9.91761        -0.047757      0.027499     -0.014251
      3.51597      3.75963      9.64708        -1.012909     -0.269147      0.346349
      3.48927      8.59632      9.50655        -0.139644     -0.133850     -0.028077
      5.82793      2.52669      9.79467         0.313059     -0.910472      0.088580
      7.21882      7.38457      9.84400         0.304623      0.173955     -0.154692
      5.78473      9.89732      9.69688         0.291500      0.119863     -0.019068
      7.27809      4.90416      9.85074         0.818533     -0.095606      0.075106
      4.67262      6.17496      8.99944        -0.205618      0.496731      0.553234
      5.31744      4.37782      9.58500         0.240615      0.350586     -0.279209
      5.46678      8.00236      8.88762        -0.410259     -0.150348      0.552702
 -----------------------------------------------------------------------------------
    total drift:                                0.009576     -0.002574     -0.019414


--------------------------------------------------------------------------------------------------------



  FREE ENERGIE OF THE ION-ELECTRON SYSTEM (eV)
  ---------------------------------------------------
  free  energy   TOTEN  =      -605.67834111 eV

  energy  without entropy=     -605.67830124  energy(sigma->0) =     -605.67832118
 


--------------------------------------------------------------------------------------------------------


    POTLOK:  cpu time    3.2964: real time    3.2969


--------------------------------------------------------------------------------------------------------


 stress matrix after NEB project (eV)
    -42.18098      0.30972      1.07019
      0.31038    -45.17462     -0.27351
      1.06208     -0.27028     -1.32227
  FORCES: max atom, RMS     1.103803    0.306182
  FORCE total and by dimension    2.331812    1.012909
  Stress total and by dimension   61.841275   45.174617
 writing wavefunctions
     LOOP+:  cpu time37243.2455: real time37251.0497
    4ORBIT:  cpu time    0.0000: real time    0.0000
 


 total charge     
 
# of ion       s       p       d       tot
------------------------------------------
    1        0.859   1.731   0.000   2.589
    2        0.863   1.758   0.000   2.621
    3        0.862   1.743   0.000   2.605
    4        0.860   1.724   0.000   2.584
    5        0.860   1.744   0.000   2.604
    6        0.867   1.772   0.000   2.639
    7        0.863   1.745   0.000   2.608
    8        0.878   1.786   0.000   2.665
    9        0.868   1.789   0.000   2.657
   10        0.874   1.780   0.000   2.654
   11        0.881   1.731   0.000   2.612
   12        0.879   1.785   0.000   2.664
   13        0.867   1.768   0.000   2.635
   14        0.874   1.782   0.000   2.655
   15        0.859   1.725   0.000   2.584
   16        0.863   1.754   0.000   2.617
   17        0.863   1.742   0.000   2.604
   18        0.860   1.724   0.000   2.584
   19        0.863   1.751   0.000   2.614
   20        0.856   1.726   0.000   2.582
   21        0.862   1.725   0.000   2.587
   22        0.866   1.758   0.000   2.624
   23        0.867   1.755   0.000   2.622
   24        0.868   1.725   0.000   2.593
   25        0.854   1.693   0.000   2.547
   26        0.865   1.720   0.000   2.585
   27        0.865   1.736   0.000   2.601
   28        0.859   1.726   0.000   2.585
   29        0.865   1.756   0.000   2.621
   30        0.865   1.763   0.000   2.628
   31        0.865   1.770   0.000   2.635
   32        0.866   1.759   0.000   2.625
   33        0.864   1.758   0.000   2.622
   34        0.866   1.771   0.000   2.637
   35        0.868   1.789   0.000   2.657
   36        0.866   1.768   0.000   2.634
   37        0.868   1.764   0.000   2.632
   38        0.866   1.779   0.000   2.645
   39        0.863   1.763   0.000   2.626
   40        0.872   1.765   0.000   2.637
   41        0.871   1.776   0.000   2.647
   42        0.864   1.769   0.000   2.633
   43        0.866   1.766   0.000   2.632
   44        0.867   1.761   0.000   2.627
   45        0.867   1.763   0.000   2.630
   46        0.865   1.767   0.000   2.632
   47        0.865   1.767   0.000   2.632
   48        0.865   1.760   0.000   2.625
   49        0.863   1.757   0.000   2.620
   50        0.875   1.669   0.000   2.544
   51        0.876   1.655   0.000   2.531
   52        0.868   1.652   0.000   2.520
   53        0.869   1.679   0.000   2.548
   54        0.875   1.674   0.000   2.549
   55        1.234   2.650   0.000   3.884
   56        1.255   2.577   0.000   3.832
   57        0.489   0.616   6.058   7.163
   58        0.528   0.743   2.461   3.733
--------------------------------------------------
tot         50.280 100.904   8.519 159.702
 


 magnetization (x)
 
# of ion       s       p       d       tot
------------------------------------------
    1        0.003   0.029   0.000   0.032
    2        0.001   0.015   0.000   0.016
    3       -0.002  -0.021   0.000  -0.022
    4       -0.005  -0.072   0.000  -0.077
    5        0.003   0.026   0.000   0.029
    6        0.002   0.018   0.000   0.020
    7       -0.003  -0.028   0.000  -0.031
    8        0.004   0.026   0.000   0.030
    9        0.000   0.002   0.000   0.003
   10       -0.002  -0.023   0.000  -0.025
   11       -0.002  -0.061   0.000  -0.063
   12        0.001   0.005   0.000   0.006
   13        0.001   0.014   0.000   0.016
   14       -0.001  -0.017   0.000  -0.018
   15        0.002   0.024   0.000   0.026
   16        0.001   0.014   0.000   0.015
   17       -0.002  -0.023   0.000  -0.024
   18       -0.004  -0.057   0.000  -0.061
   19        0.002   0.018   0.000   0.019
   20        0.003   0.026   0.000   0.029
   21       -0.002  -0.014   0.000  -0.016
   22       -0.002  -0.026   0.000  -0.028
   23        0.003   0.031   0.000   0.035
   24       -0.001  -0.019   0.000  -0.020
   25       -0.000  -0.006   0.000  -0.006
   26       -0.001  -0.015   0.000  -0.016
   27        0.002   0.017   0.000   0.019
   28        0.002   0.021   0.000   0.023
   29       -0.002  -0.021   0.000  -0.022
   30        0.001   0.013   0.000   0.014
   31        0.001   0.016   0.000   0.017
   32       -0.001  -0.009   0.000  -0.010
   33       -0.001  -0.016   0.000  -0.017
   34        0.001   0.012   0.000   0.013
   35        0.001   0.013   0.000   0.014
   36       -0.002  -0.022   0.000  -0.024
   37       -0.001  -0.013   0.000  -0.014
   38        0.001   0.010   0.000   0.011
   39        0.000   0.006   0.000   0.006
   40       -0.000  -0.005   0.000  -0.006
   41       -0.001  -0.007   0.000  -0.008
   42        0.000   0.005   0.000   0.006
   43        0.001   0.013   0.000   0.014
   44       -0.000  -0.006   0.000  -0.007
   45       -0.001  -0.010   0.000  -0.011
   46        0.001   0.012   0.000   0.013
   47        0.001   0.015   0.000   0.016
   48       -0.001  -0.020   0.000  -0.021
   49       -0.001  -0.015   0.000  -0.016
   50       -0.022  -0.139   0.000  -0.161
   51       -0.001  -0.038   0.000  -0.039
   52       -0.020  -0.120   0.000  -0.140
   53        0.003   0.021   0.000   0.024
   54       -0.002  -0.035   0.000  -0.037
   55       -0.000   0.017   0.000   0.017
   56        0.000  -0.011   0.000  -0.011
   57        0.059   0.005   2.873   2.937
   58       -0.001  -0.009  -0.186  -0.196
--------------------------------------------------
tot          0.018  -0.432   2.687   2.273
 

 total amount of memory used by VASP MPI-rank0   187568. kBytes
=======================================================================

   base      :      30000. kBytes
   nonl-proj :       5324. kBytes
   fftplans  :      12974. kBytes
   grid      :      33177. kBytes
   one-center:         62. kBytes
   HF        :         23. kBytes
   nonlr-proj:      30042. kBytes
   wavefun   :      75966. kBytes
 
  
  
 General timing and accounting informations for this job:
 ========================================================
  
                  Total CPU time used (sec):    37327.809
                            User time (sec):    37274.658
                          System time (sec):       53.152
                         Elapsed time (sec):    37340.443
  
                   Maximum memory used (kb):      419076.
                   Average memory used (kb):           0.
  
                          Minor page faults:       305170
                          Major page faults:            2
                 Voluntary context switches:         1352
