 vasp.5.4.4.18Apr17-6-g9f103f2a35 (build Feb 25 2019 10:51:38) complex          
  
 executed on             LinuxIFC date 2021.06.17  13:04:45
 running on   48 total cores
 distrk:  each k-point on   24 cores,    2 groups
 distr:  one band on NCORES_PER_BAND=  24 cores,    1 groups


--------------------------------------------------------------------------------------------------------


 INCAR:
 POTCAR:    PAW_PBE C 08Apr2002                   
 POTCAR:    PAW_PBE N 08Apr2002                   
 POTCAR:    PAW_PBE Fe 06Sep2000                  
 POTCAR:    PAW_PBE Cr 06Sep2000                  

 ----------------------------------------------------------------------------- 
|                                                                             |
|           W    W    AA    RRRRR   N    N  II  N    N   GGGG   !!!           |
|           W    W   A  A   R    R  NN   N  II  NN   N  G    G  !!!           |
|           W    W  A    A  R    R  N N  N  II  N N  N  G       !!!           |
|           W WW W  AAAAAA  RRRRR   N  N N  II  N  N N  G  GGG   !            |
|           WW  WW  A    A  R   R   N   NN  II  N   NN  G    G                |
|           W    W  A    A  R    R  N    N  II  N    N   GGGG   !!!           |
|                                                                             |
|      For optimal performance we recommend to set                            |
|        NCORE= 4 - approx SQRT( number of cores)                             |
|      NCORE specifies how many cores store one orbital (NPAR=cpu/NCORE).     |
|      This setting can  greatly improve the performance of VASP for DFT.     |
|      The default,   NCORE=1            might be grossly inefficient         |
|      on modern multi-core architectures or massively parallel machines.     |
|      Do your own testing !!!!                                               |
|      Unfortunately you need to use the default for GW and RPA calculations. |
|      (for HF NCORE is supported but not extensively tested yet)             |
|                                                                             |
 ----------------------------------------------------------------------------- 


 ----------------------------------------------------------------------------- 
|                                                                             |
|           W    W    AA    RRRRR   N    N  II  N    N   GGGG   !!!           |
|           W    W   A  A   R    R  NN   N  II  NN   N  G    G  !!!           |
|           W    W  A    A  R    R  N N  N  II  N N  N  G       !!!           |
|           W WW W  AAAAAA  RRRRR   N  N N  II  N  N N  G  GGG   !            |
|           WW  WW  A    A  R   R   N   NN  II  N   NN  G    G                |
|           W    W  A    A  R    R  N    N  II  N    N   GGGG   !!!           |
|                                                                             |
|      You have enabled k-point parallelism (KPAR>1).                         |
|      This developmental code was originally  written by Paul Kent at ORNL,  |
|      and carefully double checked in Vienna.                                |
|      GW as well as linear response parallelism added by Martijn Marsman     |
|      and Georg Kresse.                                                      |
|      Carefully verify results versus KPAR=1.                                |
|      Report problems to Paul Kent and Vienna.                               |
|                                                                             |
 ----------------------------------------------------------------------------- 

 POTCAR:    PAW_PBE C 08Apr2002                   
   VRHFIN =C: s2p2                                                              
   LEXCH  = PE                                                                  
   EATOM  =   147.1560 eV,   10.8157 Ry                                         
                                                                                
   TITEL  = PAW_PBE C 08Apr2002                                                 
   LULTRA =        F    use ultrasoft PP ?                                      
   IUNSCR =        1    unscreen: 0-lin 1-nonlin 2-no                           
   RPACOR =    1.200    partial core radius                                     
   POMASS =   12.011; ZVAL   =    4.000    mass and valenz                      
   RCORE  =    1.500    outmost cutoff radius                                   
   RWIGS  =    1.630; RWIGS  =    0.863    wigner-seitz radius (au A)           
   ENMAX  =  400.000; ENMIN  =  300.000 eV                                      
   ICORE  =        2    local potential                                         
   LCOR   =        T    correct aug charges                                     
   LPAW   =        T    paw PP                                                  
   EAUG   =  644.873                                                            
   DEXC   =    0.000                                                            
   RMAX   =    1.529    core radius for proj-oper                               
   RAUG   =    1.300    factor for augmentation sphere                          
   RDEP   =    1.501    radius for radial grids                                 
   RDEPT  =    1.300    core radius for aug-charge                              
                                                                                
   Atomic configuration                                                         
    4 entries                                                                   
     n  l   j            E        occ.                                          
     1  0  0.50      -273.3789   2.0000                                         
     2  0  0.50       -13.7508   2.0000                                         
     2  1  0.50        -5.2854   2.0000                                         
     3  2  1.50        -5.4423   0.0000                                         
   Description                                                                  
     l       E           TYP  RCUT    TYP  RCUT                                 
     0    -13.7508458     23  1.200                                             
     0     -8.2022199     23  1.200                                             
     1     -5.2854383     23  1.500                                             
     1     34.0145650     23  1.500                                             
     2     -5.4423304      7  1.500                                             
  local pseudopotential read in
  partial core-charges read in
  partial kinetic energy density read in
  atomic valenz-charges read in
  non local Contribution for L=           0  read in
    real space projection operators read in
  non local Contribution for L=           0  read in
    real space projection operators read in
  non local Contribution for L=           1  read in
    real space projection operators read in
  non local Contribution for L=           1  read in
    real space projection operators read in
    PAW grid and wavefunctions read in
 
   number of l-projection  operators is LMAX  =           4
   number of lm-projection operators is LMMAX =           8
 
 POTCAR:    PAW_PBE N 08Apr2002                   
   VRHFIN =N: s2p3                                                              
   LEXCH  = PE                                                                  
   EATOM  =   264.5486 eV,   19.4438 Ry                                         
                                                                                
   TITEL  = PAW_PBE N 08Apr2002                                                 
   LULTRA =        F    use ultrasoft PP ?                                      
   IUNSCR =        1    unscreen: 0-lin 1-nonlin 2-no                           
   RPACOR =    1.200    partial core radius                                     
   POMASS =   14.001; ZVAL   =    5.000    mass and valenz                      
   RCORE  =    1.500    outmost cutoff radius                                   
   RWIGS  =    1.400; RWIGS  =    0.741    wigner-seitz radius (au A)           
   ENMAX  =  400.000; ENMIN  =  300.000 eV                                      
   ICORE  =        2    local potential                                         
   LCOR   =        T    correct aug charges                                     
   LPAW   =        T    paw PP                                                  
   EAUG   =  627.112                                                            
   DEXC   =    0.000                                                            
   RMAX   =    1.529    core radius for proj-oper                               
   RAUG   =    1.300    factor for augmentation sphere                          
   RDEP   =    1.514    radius for radial grids                                 
   RDEPT  =    1.338    core radius for aug-charge                              
                                                                                
   Atomic configuration                                                         
    4 entries                                                                   
     n  l   j            E        occ.                                          
     1  0  0.50      -384.7179   2.0000                                         
     2  0  0.50       -18.5828   2.0000                                         
     2  1  0.50        -7.0898   3.0000                                         
     3  2  1.50        -6.8029   0.0000                                         
   Description                                                                  
     l       E           TYP  RCUT    TYP  RCUT                                 
     0    -18.5828119     23  1.200                                             
     0    -13.5018863     23  1.200                                             
     1     -7.0897853     23  1.500                                             
     1      9.5240782     23  1.500                                             
     2     -6.8029130      7  1.500                                             
  local pseudopotential read in
  partial core-charges read in
  partial kinetic energy density read in
  atomic valenz-charges read in
  non local Contribution for L=           0  read in
    real space projection operators read in
  non local Contribution for L=           0  read in
    real space projection operators read in
  non local Contribution for L=           1  read in
    real space projection operators read in
  non local Contribution for L=           1  read in
    real space projection operators read in
    PAW grid and wavefunctions read in
 
   number of l-projection  operators is LMAX  =           4
   number of lm-projection operators is LMMAX =           8
 
 POTCAR:    PAW_PBE Fe 06Sep2000                  
   VRHFIN =Fe:  d7 s1                                                           
   LEXCH  = PE                                                                  
   EATOM  =   594.3153 eV,   43.6809 Ry                                         
                                                                                
   TITEL  = PAW_PBE Fe 06Sep2000                                                
   LULTRA =        F    use ultrasoft PP ?                                      
   IUNSCR =        1    unscreen: 0-lin 1-nonlin 2-no                           
   RPACOR =    2.000    partial core radius                                     
   POMASS =   55.847; ZVAL   =    8.000    mass and valenz                      
   RCORE  =    2.300    outmost cutoff radius                                   
   RWIGS  =    2.460; RWIGS  =    1.302    wigner-seitz radius (au A)           
   ENMAX  =  267.882; ENMIN  =  200.911 eV                                      
   RCLOC  =    1.701    cutoff for local pot                                    
   LCOR   =        T    correct aug charges                                     
   LPAW   =        T    paw PP                                                  
   EAUG   =  511.368                                                            
   DEXC   =    0.000                                                            
   RMAX   =    2.356    core radius for proj-oper                               
   RAUG   =    1.300    factor for augmentation sphere                          
   RDEP   =    2.442    radius for radial grids                                 
   RDEPT  =    1.890    core radius for aug-charge                              
                                                                                
   Atomic configuration                                                         
    9 entries                                                                   
     n  l   j            E        occ.                                          
     1  0  0.50     -6993.8440   2.0000                                         
     2  0  0.50      -814.6047   2.0000                                         
     2  1  1.50      -693.3689   6.0000                                         
     3  0  0.50       -89.4732   2.0000                                         
     3  1  1.50       -55.6373   6.0000                                         
     3  2  2.50        -3.8151   7.0000                                         
     4  0  0.50        -4.2551   1.0000                                         
     4  1  1.50        -3.4015   0.0000                                         
     4  3  2.50        -1.3606   0.0000                                         
   Description                                                                  
     l       E           TYP  RCUT    TYP  RCUT                                 
     2     -3.8151135     23  2.300                                             
     2     -5.1756961     23  2.300                                             
     0     -4.2550963     23  2.300                                             
     0      7.2035603     23  2.300                                             
     1     -2.7211652     23  2.300                                             
     1     18.4316424     23  2.300                                             
  local pseudopotential read in
  partial core-charges read in
  partial kinetic energy density read in
  atomic valenz-charges read in
  non local Contribution for L=           2  read in
    real space projection operators read in
  non local Contribution for L=           2  read in
    real space projection operators read in
  non local Contribution for L=           0  read in
    real space projection operators read in
  non local Contribution for L=           0  read in
    real space projection operators read in
  non local Contribution for L=           1  read in
    real space projection operators read in
  non local Contribution for L=           1  read in
    real space projection operators read in
    PAW grid and wavefunctions read in
 
   number of l-projection  operators is LMAX  =           6
   number of lm-projection operators is LMMAX =          18
 
 POTCAR:    PAW_PBE Cr 06Sep2000                  
   VRHFIN =Cr : d5 s1                                                           
   LEXCH  = PE                                                                  
   EATOM  =   276.8859 eV,   20.3505 Ry                                         
                                                                                
   TITEL  = PAW_PBE Cr 06Sep2000                                                
   LULTRA =        F    use ultrasoft PP ?                                      
   IUNSCR =        1    unscreen: 0-lin 1-nonlin 2-no                           
   RPACOR =    2.080    partial core radius                                     
   POMASS =   51.996; ZVAL   =    6.000    mass and valenz                      
   RCORE  =    2.500    outmost cutoff radius                                   
   RWIGS  =    2.500; RWIGS  =    1.323    wigner-seitz radius (au A)           
   ENMAX  =  227.080; ENMIN  =  170.310 eV                                      
   RCLOC  =    1.721    cutoff for local pot                                    
   LCOR   =        T    correct aug charges                                     
   LPAW   =        T    paw PP                                                  
   EAUG   =  402.108                                                            
   DEXC   =    0.000                                                            
   RMAX   =    2.552    core radius for proj-oper                               
   RAUG   =    1.300    factor for augmentation sphere                          
   RDEP   =    2.609    radius for radial grids                                 
   RDEPT  =    2.065    core radius for aug-charge                              
                                                                                
   Atomic configuration                                                         
    9 entries                                                                   
     n  l   j            E        occ.                                          
     1  0  0.50     -5880.4963   2.0000                                         
     2  0  0.50      -667.0865   2.0000                                         
     2  1  1.50      -560.6250   6.0000                                         
     3  0  0.50       -73.9860   2.0000                                         
     3  1  1.50       -45.4378   6.0000                                         
     3  2  2.50        -2.9137   5.0000                                         
     4  0  0.50        -4.0071   1.0000                                         
     4  1  0.50        -1.2789   0.0000                                         
     4  3  2.50        -1.3606   0.0000                                         
   Description                                                                  
     l       E           TYP  RCUT    TYP  RCUT                                 
     2     -2.9136677     23  2.500                                             
     2     -4.2742503     23  2.500                                             
     0     -4.0071322     23  2.500                                             
     0      9.4498801     23  2.500                                             
     1     -5.4423304     23  2.500                                             
     1     27.2116520     23  2.500                                             
  local pseudopotential read in
  partial core-charges read in
  partial kinetic energy density read in
  atomic valenz-charges read in
  non local Contribution for L=           2  read in
    real space projection operators read in
  non local Contribution for L=           2  read in
    real space projection operators read in
  non local Contribution for L=           0  read in
    real space projection operators read in
  non local Contribution for L=           0  read in
    real space projection operators read in
  non local Contribution for L=           1  read in
    real space projection operators read in
  non local Contribution for L=           1  read in
    real space projection operators read in
    PAW grid and wavefunctions read in
 
   number of l-projection  operators is LMAX  =           6
   number of lm-projection operators is LMMAX =          18
 

 ----------------------------------------------------------------------------- 
|                                                                             |
|  ADVICE TO THIS USER RUNNING 'VASP/VAMP'   (HEAR YOUR MASTER'S VOICE ...):  |
|                                                                             |
|      You have a (more or less) 'large supercell' and for larger cells       |
|      it might be more efficient to use real space projection opertators     |
|      So try LREAL= Auto  in the INCAR   file.                               |
|      Mind:          For very  accurate calculation you might also keep the  |
|      reciprocal projection scheme          (i.e. LREAL=.FALSE.)             |
|                                                                             |
 ----------------------------------------------------------------------------- 

  PAW_PBE C 08Apr2002                   :
 energy of atom  1       EATOM= -147.1560
 kinetic energy error for atom=    0.0076 (will be added to EATOM!!)
  PAW_PBE N 08Apr2002                   :
 energy of atom  2       EATOM= -264.5486
 kinetic energy error for atom=    0.0138 (will be added to EATOM!!)
  PAW_PBE Fe 06Sep2000                  :
 energy of atom  3       EATOM= -594.3153
 kinetic energy error for atom=    0.0026 (will be added to EATOM!!)
  PAW_PBE Cr 06Sep2000                  :
 energy of atom  4       EATOM= -276.8859
 kinetic energy error for atom=    0.0012 (will be added to EATOM!!)
 
 
 POSCAR:  C  N Fe Cr                             
  positions in cartesian coordinates
  No initial velocities read in
 exchange correlation table for  LEXCH =        8
   RHO(1)=    0.500       N(1)  =     2000
   RHO(2)=  100.500       N(2)  =     4000

 VTST: version 3.2, (02/03/18)

 CHAIN: initializing optimizer
 
 OPT: Using VASP Conjugate-Gradient optimizer
 CHAIN: Read ICHAIN            0
 
 POSCAR:  C  N Fe Cr                             
  positions in cartesian coordinates
  No initial velocities read in
 


--------------------------------------------------------------------------------------------------------


 ion  position               nearest neighbor table
   1  0.222  0.004  0.499-  19 1.42   3 1.42   4 1.43
   2  0.057  0.103  0.500-   3 1.42  33 1.42   7 1.44
   3  0.110  0.002  0.500-   2 1.42   1 1.42  17 1.43
   4  0.279  0.105  0.499-  21 1.42   1 1.43   5 1.43
   5  0.228  0.207  0.499-   4 1.43   7 1.44   8 1.45
   6  0.060  0.304  0.500-   7 1.42  11 1.43  37 1.44
   7  0.115  0.204  0.500-   6 1.42   5 1.44   2 1.44
   8  0.289  0.308  0.499-  50 1.40   5 1.45   9 1.46
   9  0.233  0.410  0.500-  49 1.39   8 1.46  11 1.46
  10  0.056  0.501  0.500-  14 1.41  40 1.44  11 1.44
  11  0.117  0.404  0.500-   6 1.43  10 1.44   9 1.46
  12  0.225  0.602  0.501-  49 1.39  15 1.42  14 1.43
  13  0.053  0.700  0.500-  18 1.42  14 1.43  44 1.44
  14  0.112  0.602  0.500-  10 1.41  13 1.43  12 1.43
  15  0.277  0.705  0.501-  52 1.37  16 1.42  12 1.42
  16  0.220  0.803  0.500-  15 1.42  19 1.42  18 1.42
  17  0.053  0.901  0.500-  18 1.42  48 1.42   3 1.43
  18  0.108  0.801  0.500-  13 1.42  16 1.42  17 1.42
  19  0.276  0.904  0.500-  27 1.42  16 1.42   1 1.42
  20  0.555  0.998  0.500-  22 1.41  23 1.41  29 1.43
  21  0.391  0.103  0.500-  25 1.42   4 1.42  22 1.43
  22  0.444  0.002  0.500-  20 1.41  27 1.41  21 1.43
  23  0.612  0.098  0.501-  20 1.41  31 1.42  24 1.42
  24  0.559  0.199  0.501-  51 1.36  23 1.42  25 1.44
  25  0.447  0.204  0.500-  50 1.39  21 1.42  24 1.44
  26  0.552  0.796  0.501-  53 1.39  29 1.42  28 1.43
  27  0.387  0.903  0.500-  22 1.41  19 1.42  28 1.42
  28  0.440  0.802  0.501-  52 1.36  27 1.42  26 1.43
  29  0.608  0.897  0.501-  46 1.42  26 1.42  20 1.43
  30  0.889  0.999  0.500-  48 1.42  32 1.42  33 1.43
  31  0.723  0.098  0.501-  23 1.42  36 1.42  32 1.42
  32  0.777  0.997  0.501-  30 1.42  31 1.42  46 1.43
  33  0.945  0.100  0.500-  34 1.42   2 1.42  30 1.43
  34  0.891  0.200  0.501-  37 1.42  36 1.42  33 1.42
  35  0.722  0.296  0.501-  51 1.36  36 1.42  39 1.44
  36  0.779  0.199  0.501-  31 1.42  35 1.42  34 1.42
  37  0.946  0.301  0.500-  34 1.42  38 1.43   6 1.44
  38  0.888  0.399  0.500-  40 1.41  37 1.43  39 1.44
  39  0.775  0.400  0.500-  54 1.37  35 1.44  38 1.44
  40  0.943  0.500  0.500-  38 1.41  10 1.44  41 1.44
  41  0.882  0.597  0.499-  44 1.42  40 1.44  43 1.46
  42  0.709  0.693  0.500-  53 1.40  47 1.45  43 1.47
  43  0.767  0.591  0.499-  54 1.38  41 1.46  42 1.47
  44  0.940  0.698  0.500-  45 1.42  41 1.42  13 1.44
  45  0.884  0.797  0.500-  44 1.42  47 1.44  48 1.44
  46  0.720  0.896  0.500-  29 1.42  32 1.43  47 1.43
  47  0.771  0.794  0.500-  46 1.43  45 1.44  42 1.45
  48  0.941  0.898  0.500-  30 1.42  17 1.42  45 1.44
  49  0.286  0.510  0.501-  12 1.39   9 1.39  56 2.42
  50  0.399  0.305  0.499-  25 1.39   8 1.40  55 2.00
  51  0.615  0.295  0.501-  35 1.36  24 1.36  55 1.95
  52  0.384  0.706  0.502-  28 1.36  15 1.37  56 1.97
  53  0.599  0.695  0.501-  26 1.39  42 1.40  56 2.23
  54  0.715  0.492  0.498-  39 1.37  43 1.38
  55  0.517  0.413  0.486-  51 1.95  50 2.00  56 2.12
  56  0.467  0.573  0.506-  52 1.97  55 2.12  53 2.23  49 2.42
 
  LATTYP: Found a triclinic cell.
 ALAT       =    12.3282000000
 B/A-ratio  =     1.4492666523
 C/A-ratio  =     1.6459418244
 COS(alpha) =     0.0000418214
 COS(beta)  =     0.0001954769
 COS(gamma) =     0.7034062548
  
  Lattice vectors:
  
 A1 = (  -0.2324103604,  12.3260091134,   0.0000000000)
 A2 = ( -12.9342103604,  12.3260091134,   0.0000000000)
 A3 = (   0.0026561511,   0.0040173065,  20.2914994285)


Analysis of symmetry for initial positions (statically):
=====================================================================
 Subroutine PRICEL returns:
 Original cell was already a primitive cell.
 

 Routine SETGRP: Setting up the symmetry group for a 
 triclinic supercell.


 Subroutine GETGRP returns: Found  1 space group operations
 (whereof  1 operations were pure point group operations)
 out of a pool of  2 trial point group operations.


The static configuration has the point symmetry C_1 .


Analysis of symmetry for dynamics (positions and initial velocities):
=====================================================================
 Subroutine PRICEL returns:
 Original cell was already a primitive cell.
 

 Routine SETGRP: Setting up the symmetry group for a 
 triclinic supercell.


 Subroutine GETGRP returns: Found  1 space group operations
 (whereof  1 operations were pure point group operations)
 out of a pool of  2 trial point group operations.


The dynamic configuration has the point symmetry C_1 .


Analysis of structural, dynamic, and magnetic symmetry:
=====================================================================
 Subroutine PRICEL returns:
 Original cell was already a primitive cell.
 

 Routine SETGRP: Setting up the symmetry group for a 
 triclinic supercell.


 Subroutine GETGRP returns: Found  1 space group operations
 (whereof  1 operations were pure point group operations)
 out of a pool of  2 trial point group operations.


The magnetic configuration has the point symmetry C_1 .


 Subroutine INISYM returns: Found  1 space group operations
 (whereof  1 operations are pure point group operations),
 and found     1 'primitive' translations

 
 
 KPOINTS: KPOINTS created by Atomic Simulation Env

Automatic generation of k-mesh.
Space group operators:
 irot       det(A)        alpha          n_x          n_y          n_z        tau_x        tau_y        tau_z
    1     1.000000     0.000001     1.000000     0.000000     0.000000     0.000000     0.000000     0.000000
 
 Subroutine IBZKPT returns following result:
 ===========================================
 
 Found      2 irreducible k-points:
 
 Following reciprocal coordinates:
            Coordinates               Weight
  0.250000  0.250000 -0.000000      2.000000
 -0.250000  0.250000 -0.000000      2.000000
 
 Following cartesian coordinates:
            Coordinates               Weight
  0.019682  0.020653 -0.000007      2.000000
 -0.019682  0.019911 -0.000001      2.000000
 
 
 Subroutine IBZKPT_HF returns following result:
 ==============================================
 
 Found      4 k-points in 1st BZ
 the following      4 k-points will be used (e.g. in the exchange kernel)
 Following reciprocal coordinates:   # in IRBZ
  0.250000  0.250000 -0.000000    0.25000000   1 t-inv F
 -0.250000  0.250000 -0.000000    0.25000000   2 t-inv F
 -0.250000 -0.250000  0.000000    0.25000000   1 t-inv T
  0.250000 -0.250000  0.000000    0.25000000   2 t-inv T


--------------------------------------------------------------------------------------------------------




 Dimension of arrays:
   k-points           NKPTS =      2   k-points in BZ     NKDIM =      4   number of bands    NBANDS=    151
   number of dos      NEDOS =    301   number of ions     NIONS =     56
   non local maximal  LDIM  =      6   non local SUM 2l+1 LMDIM =     18
   total plane-waves  NPLWV = ******
   max r-space proj   IRMAX =      1   max aug-charges    IRDMAX=  21038
   dimension x,y,z NGX =    96 NGY =   90 NGZ =  150
   dimension x,y,z NGXF=   192 NGYF=  180 NGZF=  300
   support grid    NGXF=   192 NGYF=  180 NGZF=  300
   ions per type =              48   6   1   1
   NGX,Y,Z   is equivalent  to a cutoff of  12.56, 12.14, 12.29 a.u.
   NGXF,Y,Z  is equivalent  to a cutoff of  25.13, 24.27, 24.58 a.u.

 SYSTEM =  unknown system                          
 POSCAR =   C  N Fe Cr                             

 Startparameter for this run:
   NWRITE =      2    write-flag & timer
   PREC   = accura    normal or accurate (medium, high low for compatibility)
   ISTART =      1    job   : 0-new  1-cont  2-samecut
   ICHARG =      0    charge: 1-file 2-atom 10-const
   ISPIN  =      2    spin polarized calculation?
   LNONCOLLINEAR =      F non collinear calculations
   LSORBIT =      F    spin-orbit coupling
   INIWAV =      1    electr: 0-lowe 1-rand  2-diag
   LASPH  =      T    aspherical Exc in radial PAW
   METAGGA=      F    non-selfconsistent MetaGGA calc.

 Electronic Relaxation 1
   ENCUT  =  500.0 eV  36.75 Ry    6.06 a.u.  23.16 22.48 37.00*2*pi/ulx,y,z
   ENINI  =  500.0     initial cutoff
   ENAUG  =  644.9 eV  augmentation charge cutoff
   NELM   =    250;   NELMIN=  2; NELMDL=  0     # of ELM steps 
   EDIFF  = 0.1E-03   stopping-criterion for ELM
   LREAL  =      F    real-space projection
   NLSPLINE    = F    spline interpolate recip. space projectors
   LCOMPAT=      F    compatible to vasp.4.4
   GGA_COMPAT  = T    GGA compatible to vasp.4.4-vasp.4.6
   LMAXPAW     = -100 max onsite density
   LMAXMIX     =    2 max onsite mixed and CHGCAR
   VOSKOWN=      0    Vosko Wilk Nusair interpolation
   ROPT   =    0.00000   0.00000   0.00000   0.00000
 Ionic relaxation
   EDIFFG = -.3E-01   stopping-criterion for IOM
   NSW    =      0    number of steps for IOM
   NBLOCK =      1;   KBLOCK =      1    inner block; outer block 
   IBRION =     -1    ionic relax: 0-MD 1-quasi-New 2-CG
   NFREE  =      1    steps in history (QN), initial steepest desc. (CG)
   ISIF   =      2    stress and relaxation
   IWAVPR =     10    prediction:  0-non 1-charg 2-wave 3-comb
   ISYM   =      3    0-nonsym 1-usesym 2-fastsym
   LCORR  =      T    Harris-Foulkes like correction to forces

   POTIM  = 0.5000    time-step for ionic-motion
   TEIN   =    0.0    initial temperature
   TEBEG  =    0.0;   TEEND  =   0.0 temperature during run
   SMASS  =  -3.00    Nose mass-parameter (am)
   estimated Nose-frequenzy (Omega)   =  0.10E-29 period in steps =****** mass=  -0.369E-26a.u.
   SCALEE = 1.0000    scale energy and forces
   NPACO  =    256;   APACO  = 16.0  distance and # of slots for P.C.
   PSTRESS=    0.0 pullay stress

  Mass of Ions in am
   POMASS =  12.01 14.00 55.85 52.00
  Ionic Valenz
   ZVAL   =   4.00  5.00  8.00  6.00
  Atomic Wigner-Seitz radii
   RWIGS  =  -1.00 -1.00 -1.00 -1.00
  virtual crystal weights 
   VCA    =   1.00  1.00  1.00  1.00
   NELECT =     236.0000    total number of electrons
   NUPDOWN=      -1.0000    fix difference up-down

 DOS related values:
   EMIN   =  10.00;   EMAX   =-10.00  energy-range for DOS
   EFERMI =   0.00
   ISMEAR =     0;   SIGMA  =   0.10  broadening in eV -4-tet -1-fermi 0-gaus

 Electronic relaxation 2 (details)
   IALGO  =     53    algorithm
   LDIAG  =      T    sub-space diagonalisation (order eigenvalues)
   LSUBROT=      F    optimize rotation matrix (better conditioning)
   TURBO    =      0    0=normal 1=particle mesh
   IRESTART =      0    0=no restart 2=restart with 2 vectors
   NREBOOT  =      0    no. of reboots
   NMIN     =      0    reboot dimension
   EREF     =   0.00    reference energy to select bands
   IMIX   =      4    mixing-type and parameters
     AMIX     =   0.40;   BMIX     =  1.00
     AMIX_MAG =   1.60;   BMIX_MAG =  1.00
     AMIN     =   0.10
     WC   =   100.;   INIMIX=   1;  MIXPRE=   1;  MAXMIX= -45

 Intra band minimization:
   WEIMIN = 0.0000     energy-eigenvalue tresh-hold
   EBREAK =  0.17E-06  absolut break condition
   DEPER  =   0.30     relativ break condition  

   TIME   =   0.20     timestep for ELM

  volume/ion in A,a.u.               =      56.73       382.83
  Fermi-wavevector in a.u.,A,eV,Ry     =   0.688195  1.300500  6.443888  0.473612
  Thomas-Fermi vector in A             =   1.768926
 
 Write flags
   LWAVE        =      T    write WAVECAR
   LDOWNSAMPLE  =      F    k-point downsampling of WAVECAR
   LCHARG       =      T    write CHGCAR
   LVTOT        =      F    write LOCPOT, total local potential
   LVHAR        =      F    write LOCPOT, Hartree potential only
   LELF         =      F    write electronic localiz. function (ELF)
   LORBIT       =     11    0 simple, 1 ext, 2 COOP (PROOUT), +10 PAW based schemes


 Dipole corrections
   LMONO  =      F    monopole corrections only (constant potential shift)
   LDIPOL =      T    correct potential (dipole corrections)
   IDIPOL =      3    1-x, 2-y, 3-z, 4-all directions 
   EPSILON=  1.0000000 bulk dielectric constant

 Exchange correlation treatment:
   GGA     =    PE    GGA type
   LEXCH   =     8    internal setting for exchange type
   VOSKOWN=      0    Vosko Wilk Nusair interpolation
   EXXOEP  =     0    0=HF, 1=EXX-LHF (local Hartree Fock) 2=EXX OEP
   LHFCALC =     T    Hartree Fock is set to
   LSYMGRAD=     F    symmetrize gradient (conserves proper symmetry)
   PRECFOCK=normal    Normal, Fast or Accurate (Low or Medium for compatibility)
   LRHFCALC=     F    long range Hartree Fock
   LRSCOR  =     F    long range correlation only (use DFT for short range part)
   LTHOMAS =     F    Thomas Fermi screening in HF
   LMODELHF=     F    short range full HF, long range fraction AEXX
   ENCUT4O =  -1.0   cutoff for four orbital integrals eV
   LMAXFOCK=     4    L truncation for augmentation on plane wave grid
   LMAXFOCKAE=  -1    L truncation for all-electron charge restoration on plane wave grid
   NMAXFOCKAE=   1    number of basis functions for all-electron charge restoration
   LFOCKAEDFT=     F  apply the AE augmentation even for DFT
   NKREDX  =     1    reduce k-point grid by
   NKREDY  =     1    reduce k-point grid by
   NKREDZ  =     1    reduce k-point grid by
   SHIFTRED=     F    shift reduced grid of Gamma
   HFKIDENT=     F    idential grid for each k-point
   ODDONLY =     F    use only odd q-grid points
   EVENONLY=     F    use only even q-grid points
   HFALPHA =   -1.0000 decay constant for conv. correction
   MCALPHA =    0.0000 extent of test-charge in conv. correction in multipole expansion
   AEXX    =    0.2500 exact exchange contribution
   HFSCREEN=    0.2000 screening length (either q_TF or 0.3 A-1)
   HFSCREENC=   0.2000 screening length for correlation (either q_TF or 0.3 A-1)
   HFRCUT  =    0.0000 spherical cutoff for potential kernel
   ALDAX   =    0.7500 LDA exchange part
   AGGAX   =    0.7500 GGA exchange part
   ALDAC   =    1.0000 LDA correlation
   AGGAC   =    1.0000 GGA correlation
   ENCUTFOCK=  -1.0 apply spherical cutoff to Coloumb kernel
   NBANDSGWLOW=     1    first orbital included in HF term
   NBLOCK_FOCK=    64    blocking factor in FOCK_ACC
 Linear response parameters
   LEPSILON=     F    determine dielectric tensor
   LRPA    =     F    only Hartree local field effects (RPA)
   LNABLA  =     F    use nabla operator in PAW spheres
   LVEL    =     F    velocity operator in full k-point grid
   LINTERFAST=   F  fast interpolation
   KINTER  =     0    interpolate to denser k-point grid
   CSHIFT  =0.1000    complex shift for real part using Kramers Kronig
   OMEGAMAX=  -1.0    maximum frequency
   DEG_THRESHOLD= 0.2000000E-02 threshold for treating states as degnerate
   RTIME   =   -0.100 relaxation time in fs
  (WPLASMAI=    0.000 imaginary part of plasma frequency in eV, 0.658/RTIME)
   DFIELD  = 0.0000000 0.0000000 0.0000000 field for delta impulse in time
 
 Orbital magnetization related:
   ORBITALMAG=     F  switch on orbital magnetization
   LCHIMAG   =     F  perturbation theory with respect to B field
   DQ        =  0.001000  dq finite difference perturbation B field
   LLRAUG    =     F  two centre corrections for induced B field



--------------------------------------------------------------------------------------------------------


 Static calculation
 charge density and potential will be updated during run
 spin polarized calculation
 Conjugate gradient for all bands (Freysoldt, et al. PRB 79, 241103 (2009))
 perform sub-space diagonalisation
    before iterative eigenvector-optimisation
 modified Broyden-mixing scheme, WC =      100.0
 initial mixing is a Kerker type mixing with AMIX =  0.4000 and BMIX =      1.0000
 Hartree-type preconditioning will be used
 using additional bands           33
 reciprocal scheme for non local part
 use partial core corrections
 no Harris-corrections to forces 
 use gradient corrections 
 use of overlap-Matrix (Vanderbilt PP)
 Gauss-broadening in eV      SIGMA  =   0.10


--------------------------------------------------------------------------------------------------------


  energy-cutoff  :      500.00
  volume of cell :     3176.89
      direct lattice vectors                 reciprocal lattice vectors
    12.701800000  0.000000000  0.000000000     0.078728999  0.001484457 -0.000010599
    -0.232410360 12.326009113  0.000000000     0.000000000  0.081129260 -0.000016062
     0.002656151  0.004017307 20.291499428     0.000000000  0.000000000  0.049281720

  length of vectors
    12.701800000 12.328200000 20.291500000     0.078742993  0.081129262  0.049281720


 
 old parameters found on file WAVECAR:
  energy-cutoff  :      500.00
  volume of cell :     3176.89
      direct lattice vectors                 reciprocal lattice vectors
    12.701800000  0.000000000  0.000000000     0.078728999  0.001484457 -0.000010599
    -0.232410360 12.326009113  0.000000000     0.000000000  0.081129260 -0.000016062
     0.002656151  0.004017307 20.291499428     0.000000000  0.000000000  0.049281720

  length of vectors

 
 k-points in units of 2pi/SCALE and weight: KPOINTS created by Atomic Simulation Env
   0.01968225  0.02065343 -0.00000667       0.500
  -0.01968225  0.01991120 -0.00000137       0.500
 
 k-points in reciprocal lattice and weights: KPOINTS created by Atomic Simulation Env
   0.25000000  0.25000000 -0.00000000       0.500
  -0.25000000  0.25000000 -0.00000000       0.500
 
 position of ions in fractional coordinates (direct lattice) 
   0.22195381  0.00377767  0.49939718
   0.05741446  0.10261770  0.49994123
   0.10998340  0.00206962  0.49956356
   0.27894656  0.10464296  0.49933039
   0.22776613  0.20699894  0.49948463
   0.05975682  0.30368639  0.50016411
   0.11476621  0.20436856  0.49992814
   0.28859160  0.30798129  0.49936700
   0.23260788  0.41005498  0.50033191
   0.05630846  0.50139210  0.50008279
   0.11737869  0.40434764  0.50021825
   0.22456115  0.60183084  0.50053559
   0.05291355  0.69992532  0.49982662
   0.11170582  0.60200172  0.50015654
   0.27668581  0.70496856  0.50052476
   0.21969161  0.80288265  0.49972737
   0.05316232  0.90084153  0.49958753
   0.10774392  0.80115055  0.49957884
   0.27566707  0.90362394  0.49964569
   0.55478603  0.99828880  0.50044458
   0.39067366  0.10343756  0.49950301
   0.44412649  0.00235268  0.49993152
   0.61165036  0.09794283  0.50089041
   0.55947508  0.19893989  0.50058892
   0.44657612  0.20404604  0.49951956
   0.55220148  0.79602474  0.50090419
   0.38732874  0.90262365  0.50005860
   0.43964521  0.80185385  0.50102339
   0.60809289  0.89702269  0.50056760
   0.88853316  0.99901608  0.50034630
   0.72312974  0.09753439  0.50116212
   0.77667177  0.99720771  0.50071673
   0.94531446  0.10034389  0.50039283
   0.89098019  0.20024649  0.50073068
   0.72151713  0.29649200  0.50083106
   0.77897402  0.19857701  0.50121025
   0.94626154  0.30144334  0.50035875
   0.88766536  0.39934536  0.49989859
   0.77457783  0.40032167  0.49954572
   0.94312859  0.49992921  0.49968641
   0.88230357  0.59717152  0.49949234
   0.70903694  0.69288560  0.49992448
   0.76722934  0.59111885  0.49891170
   0.93950483  0.69768352  0.49973842
   0.88374656  0.79655129  0.49980911
   0.71960075  0.89629136  0.50048916
   0.77053341  0.79364056  0.50005742
   0.94103637  0.89841573  0.49987591
   0.28618507  0.50980550  0.50076868
   0.39883675  0.30498876  0.49874997
   0.61464716  0.29464123  0.50061030
   0.38426885  0.70615634  0.50189324
   0.59872731  0.69474883  0.50097348
   0.71513965  0.49215183  0.49817860
   0.51744702  0.41261229  0.48644681
   0.46729129  0.57259394  0.50589697
 
 position of ions in cartesian coordinates  (Angst):
   2.81966146  0.04856979 10.13351750
   0.70674546  1.26687517 10.14455713
   1.39783301  0.02751710 10.13689369
   3.52012963  1.29183604 10.13216241
   2.84625778  2.55347742 10.13529210
   0.68976781  3.74525050 10.14907983
   1.41156791  2.52105707 10.14429163
   3.59538119  3.79818633 10.13290530
   2.86056676  5.05635144 10.15248474
   0.60001841  6.18217261 10.14742955
   1.39827467  4.98600222 10.15017836
   2.71378862  7.42018327 10.15661763
   0.51075506  8.62929387 10.14223165
   1.28028207  7.42228795 10.14892618
   3.35189532  8.69145963 10.15639792
   2.60520793  9.89834637 10.14021758
   0.46721925 11.10578787 10.13738016
   1.18367295  9.87699598 10.13720377
   3.29278350 11.14008421 10.13856031
   6.81609774 12.30692732 10.15477083
   4.93954548  1.27697891 10.13566502
   5.64198697  0.03100747 10.14436019
   7.74762805  1.20925648 10.16381745
   7.06143454  2.45414589 10.15769983
   5.62622491  2.51708003 10.13600092
   6.83027884  9.81382053 10.16409710
   4.71132138 11.12775621 10.14693889
   5.39925722  9.88567067 10.16651590
   7.51672648 11.05872073 10.15726717
  11.05511774 12.31589131 10.15277671
   9.16371251  1.20422307 10.16933094
   9.63469811 12.29360289 10.16029333
  11.98520337  1.23884998 10.15372084
  11.27184289  2.47025167 10.16057633
   9.09698877  3.65657507 10.16261321
   9.84955219  2.44967553 10.17030752
  11.95049530  3.71760343 10.15302936
  11.18346364  4.92434285 10.14369201
   9.74682066  4.93637537 10.13653175
  11.86456919  6.16413936 10.13938646
  11.06938142  7.36274825 10.13544857
   8.84633946  8.54252254 10.14421724
   9.60913664  7.28814067 10.12366654
  11.77258098  8.60166100 10.14044184
  11.04137287  9.82030630 10.14187631
   8.93324680 11.04970608 10.15567557
   9.60403927  9.78442970 10.14691482
  11.74538243 11.07588861 10.14323170
   3.51791160  6.28587899 10.16134732
   4.99638684  3.76129781 10.12038476
   7.73997728  3.63376164 10.15813356
   4.71812108  8.70610568 10.18416636
   7.44477842  8.56549299 10.16550301
   8.97050288  6.06826932 10.10879087
   6.47790522  5.08781708  9.87073527
   5.80370747  7.05983048 10.26540818
 


--------------------------------------------------------------------------------------------------------


 k-point  1 :   0.2500 0.2500-0.0000  plane waves:   80680
 k-point  2 :  -0.2500 0.2500-0.0000  plane waves:   80617

 maximum and minimum number of plane-waves per node :      3393     3330

 maximum number of plane-waves:     80680
 maximum index in each direction: 
   IXMAX=   23   IYMAX=   22   IZMAX=   36
   IXMIN=  -23   IYMIN=  -22   IZMIN=  -36


 parallel 3D FFT for wavefunctions:
    minimum data exchange during FFTs selected (reduces bandwidth)
 parallel 3D FFT for charge:
    minimum data exchange during FFTs selected (reduces bandwidth)


 FFT grid for exact exchange (Hartree Fock) 
  NGX = 70; NGY = 70; NGZ =112

 
 Radii for the augmentation spheres in the non-local exchange
 for species   1 augmentation radius   0.874 (default was   0.699)
       energy cutoff for augmentation   2000.0
 for species   2 augmentation radius   0.886 (default was   0.709)
       energy cutoff for augmentation   2000.0
 for species   3 augmentation radius   1.263 (default was   1.010)
       energy cutoff for augmentation   2000.0
 for species   4 augmentation radius   1.424 (default was   1.139)
       energy cutoff for augmentation   2000.0

 real space projection operators:
  total allocation   :       2526.42 KBytes
  max/ min on nodes  :        151.38         37.05

 Maximum index for augmentation-charges in exchange           68
  SETUP_FOCK is finished

 total amount of memory used by VASP MPI-rank0   202395. kBytes
=======================================================================

   base      :      30000. kBytes
   nonl-proj :       6965. kBytes
   fftplans  :      17535. kBytes
   grid      :      46049. kBytes
   one-center:         93. kBytes
   HF        :         46. kBytes
   nonlr-proj:       2122. kBytes
   wavefun   :      99585. kBytes
 
     INWAV:  cpu time    3.3106: real time    5.7347
 Broyden mixing: mesh for mixing (old mesh)
   NGX = 47   NGY = 45   NGZ = 73
  (NGX  =192   NGY  =180   NGZ  =300)
  gives a total of 154395 points

 charge density for first step will be calculated from the start-wavefunctions


--------------------------------------------------------------------------------------------------------


 Maximum index for augmentation-charges          764 (set IRDMAX)


--------------------------------------------------------------------------------------------------------


 initial charge from wavefunction
 First call to EWALD:  gamma=   0.121
 Maximum number of real-space cells 3x 3x 2
 Maximum number of reciprocal cells 2x 2x 4

    FEWALD:  cpu time    0.0022: real time    0.0022


--------------------------------------- Iteration      1(   1)  ---------------------------------------


    POTLOK:  cpu time    2.0401: real time    2.0437
    SETDIJ:  cpu time    2.0843: real time    2.0879
    TRIAL :  cpu time  311.8051: real time  312.1664
    CORREC:  cpu time    0.0010: real time    0.0010
    CHARGE:  cpu time    1.3204: real time    1.3214
    --------------------------------------------
      LOOP:  cpu time  317.2854: real time  317.6566

 eigenvalue-minimisations  :     0
 total energy-change (2. order) :-0.5883247E+03  (-0.4696891E+00)
 number of electron     235.9999997 magnetization       0.6845643
 augmentation part       12.7269411 magnetization       0.2249305

 DIPCOR: dipole corrections for dipol
 direction  3 min pos     1,
 dipolmoment           0.000004      0.000006      0.032531 electrons x Angstroem
 Tr[quadrupol]     -6032.379702

 energy correction for charged system         0.000000 eV
 dipol+quadrupol energy correction            0.000030 eV
 added-field ion interaction          0.000000 eV  (added to PSCEN)


 Free energy of the ion-electron system (eV)
  ---------------------------------------------------
  alpha Z        PSCENC =        94.36856785
  Ewald energy   TEWEN  =     38172.41426609
  -Hartree energ DENC   =    -46278.64575398
  -exchange      EXHF   =       536.39593281
  -V(xc)+E(xc)   XCENC  =       588.64502564
  PAW double counting   =     25338.35942292   -25360.20449858
  entropy T*S    EENTRO =        -0.04809125
  eigenvalues    EBANDS =     -3090.06224455
  atomic energy  EATOM  =      9410.45384619
  ---------------------------------------------------
  free energy    TOTEN  =      -588.32470452 eV

  energy without entropy =     -588.27661327  energy(sigma->0) =     -588.30065890
  exchange ACFDT corr.  =        -0.05540118  see jH, gK, PRB 81, 115126


--------------------------------------------------------------------------------------------------------




--------------------------------------- Iteration      1(   2)  ---------------------------------------


    POTLOK:  cpu time    2.0663: real time    2.0681
    SETDIJ:  cpu time    2.0859: real time    2.0874
    TRIAL :  cpu time  310.3209: real time  310.6002
    CORREC:  cpu time    0.0010: real time    0.0010
    CHARGE:  cpu time    1.3253: real time    1.3264
    --------------------------------------------
      LOOP:  cpu time  315.8009: real time  316.0870

 eigenvalue-minimisations  :     0
 total energy-change (2. order) :-0.4017420E+00  (-0.4595319E+00)
 number of electron     235.9999997 magnetization       0.6157757
 augmentation part       12.7071246 magnetization       0.1976669

 DIPCOR: dipole corrections for dipol
 direction  3 min pos     1,
 dipolmoment           0.000004      0.000006      0.031377 electrons x Angstroem
 Tr[quadrupol]     -6032.208658

 energy correction for charged system         0.000000 eV
 dipol+quadrupol energy correction            0.000028 eV
 added-field ion interaction          0.000000 eV  (added to PSCEN)


 Free energy of the ion-electron system (eV)
  ---------------------------------------------------
  alpha Z        PSCENC =        94.36856574
  Ewald energy   TEWEN  =     38172.41426609
  -Hartree energ DENC   =    -46263.47519496
  -exchange      EXHF   =       536.32809073
  -V(xc)+E(xc)   XCENC  =       588.34229346
  PAW double counting   =     25458.52059433   -25480.04767569
  entropy T*S    EENTRO =        -0.04642797
  eigenvalues    EBANDS =     -3105.58314116
  atomic energy  EATOM  =      9410.45384619
  ---------------------------------------------------
  free energy    TOTEN  =      -588.72644653 eV

  energy without entropy =     -588.68001856  energy(sigma->0) =     -588.70323254
  exchange ACFDT corr.  =        -0.05507857  see jH, gK, PRB 81, 115126


--------------------------------------------------------------------------------------------------------




--------------------------------------- Iteration      1(   3)  ---------------------------------------


    POTLOK:  cpu time    2.0889: real time    2.0910
    SETDIJ:  cpu time    2.0851: real time    2.0867
    TRIAL :  cpu time  310.6804: real time  311.0032
    CORREC:  cpu time    0.0010: real time    0.0010
    CHARGE:  cpu time    1.3190: real time    1.3199
    --------------------------------------------
      LOOP:  cpu time  316.1752: real time  316.5060

 eigenvalue-minimisations  :     0
 total energy-change (2. order) :-0.3693148E+00  (-0.3075180E+00)
 number of electron     235.9999997 magnetization       0.5363437
 augmentation part       12.7088396 magnetization       0.1743028

 DIPCOR: dipole corrections for dipol
 direction  3 min pos     1,
 dipolmoment           0.000004      0.000006      0.031579 electrons x Angstroem
 Tr[quadrupol]     -6032.049145

 energy correction for charged system         0.000000 eV
 dipol+quadrupol energy correction            0.000028 eV
 added-field ion interaction          0.000000 eV  (added to PSCEN)


 Free energy of the ion-electron system (eV)
  ---------------------------------------------------
  alpha Z        PSCENC =        94.36856610
  Ewald energy   TEWEN  =     38172.41426609
  -Hartree energ DENC   =    -46248.81613203
  -exchange      EXHF   =       536.37303912
  -V(xc)+E(xc)   XCENC  =       588.07963953
  PAW double counting   =     25614.20807957   -25635.57458805
  entropy T*S    EENTRO =        -0.04403981
  eigenvalues    EBANDS =     -3120.55604990
  atomic energy  EATOM  =      9410.45384619
  ---------------------------------------------------
  free energy    TOTEN  =      -589.09576135 eV

  energy without entropy =     -589.05172154  energy(sigma->0) =     -589.07374144
  exchange ACFDT corr.  =        -0.05192128  see jH, gK, PRB 81, 115126


--------------------------------------------------------------------------------------------------------




--------------------------------------- Iteration      1(   4)  ---------------------------------------


    POTLOK:  cpu time    2.1029: real time    2.1073
    SETDIJ:  cpu time    2.0770: real time    2.0819
    TRIAL :  cpu time  309.8505: real time  310.1645
    CORREC:  cpu time    0.0010: real time    0.0010
    CHARGE:  cpu time    1.3099: real time    1.3114
    --------------------------------------------
      LOOP:  cpu time  315.3429: real time  315.6703

 eigenvalue-minimisations  :     0
 total energy-change (2. order) :-0.2481172E+00  (-0.2053432E+00)
 number of electron     235.9999996 magnetization       0.4518359
 augmentation part       12.7202698 magnetization       0.1535601

 DIPCOR: dipole corrections for dipol
 direction  3 min pos     1,
 dipolmoment           0.000004      0.000006      0.032754 electrons x Angstroem
 Tr[quadrupol]     -6031.997394

 energy correction for charged system         0.000000 eV
 dipol+quadrupol energy correction            0.000031 eV
 added-field ion interaction          0.000000 eV  (added to PSCEN)


 Free energy of the ion-electron system (eV)
  ---------------------------------------------------
  alpha Z        PSCENC =        94.36856826
  Ewald energy   TEWEN  =     38172.41426609
  -Hartree energ DENC   =    -46243.00434132
  -exchange      EXHF   =       536.62749606
  -V(xc)+E(xc)   XCENC  =       588.04333491
  PAW double counting   =     25749.26428775   -25770.70281300
  entropy T*S    EENTRO =        -0.04065534
  eigenvalues    EBANDS =     -3126.76448364
  atomic energy  EATOM  =      9410.45384619
  ---------------------------------------------------
  free energy    TOTEN  =      -589.34387850 eV

  energy without entropy =     -589.30322316  energy(sigma->0) =     -589.32355083
  exchange ACFDT corr.  =        -0.05562543  see jH, gK, PRB 81, 115126


--------------------------------------------------------------------------------------------------------




--------------------------------------- Iteration      1(   5)  ---------------------------------------


    POTLOK:  cpu time    2.0997: real time    2.1011
    SETDIJ:  cpu time    2.0819: real time    2.0836
    TRIAL :  cpu time  309.6164: real time  309.9361
    CORREC:  cpu time    0.0010: real time    0.0010
    CHARGE:  cpu time    1.3125: real time    1.3135
    --------------------------------------------
      LOOP:  cpu time  315.1129: real time  315.4391

 eigenvalue-minimisations  :     0
 total energy-change (2. order) :-0.1708554E+00  (-0.1456124E+00)
 number of electron     235.9999996 magnetization       0.3678800
 augmentation part       12.7300136 magnetization       0.1346617

 DIPCOR: dipole corrections for dipol
 direction  3 min pos     1,
 dipolmoment           0.000004      0.000007      0.033541 electrons x Angstroem
 Tr[quadrupol]     -6032.032561

 energy correction for charged system         0.000000 eV
 dipol+quadrupol energy correction            0.000032 eV
 added-field ion interaction          0.000000 eV  (added to PSCEN)


 Free energy of the ion-electron system (eV)
  ---------------------------------------------------
  alpha Z        PSCENC =        94.36856975
  Ewald energy   TEWEN  =     38172.41426609
  -Hartree energ DENC   =    -46244.69975719
  -exchange      EXHF   =       537.01188596
  -V(xc)+E(xc)   XCENC  =       588.19017110
  PAW double counting   =     25846.48319432   -25868.06230246
  entropy T*S    EENTRO =        -0.03630338
  eigenvalues    EBANDS =     -3125.63395233
  atomic energy  EATOM  =      9410.45384619
  ---------------------------------------------------
  free energy    TOTEN  =      -589.51473392 eV

  energy without entropy =     -589.47843055  energy(sigma->0) =     -589.49658223
  exchange ACFDT corr.  =        -0.05012796  see jH, gK, PRB 81, 115126


--------------------------------------------------------------------------------------------------------




--------------------------------------- Iteration      1(   6)  ---------------------------------------


    POTLOK:  cpu time    2.0948: real time    2.0970
    SETDIJ:  cpu time    2.0808: real time    2.0823
    TRIAL :  cpu time  309.9878: real time  310.3035
    CORREC:  cpu time    0.0010: real time    0.0010
    CHARGE:  cpu time    1.3137: real time    1.3146
    --------------------------------------------
      LOOP:  cpu time  315.4795: real time  315.8024

 eigenvalue-minimisations  :     0
 total energy-change (2. order) :-0.1241702E+00  (-0.1053922E+00)
 number of electron     235.9999996 magnetization       0.2889866
 augmentation part       12.7363157 magnetization       0.1182764

 DIPCOR: dipole corrections for dipol
 direction  3 min pos     1,
 dipolmoment           0.000004      0.000007      0.033550 electrons x Angstroem
 Tr[quadrupol]     -6032.093761

 energy correction for charged system         0.000000 eV
 dipol+quadrupol energy correction            0.000032 eV
 added-field ion interaction          0.000000 eV  (added to PSCEN)


 Free energy of the ion-electron system (eV)
  ---------------------------------------------------
  alpha Z        PSCENC =        94.36856977
  Ewald energy   TEWEN  =     38172.41426609
  -Hartree energ DENC   =    -46249.02325622
  -exchange      EXHF   =       537.39615213
  -V(xc)+E(xc)   XCENC  =       588.39381484
  PAW double counting   =     25908.53005701   -25930.19613661
  entropy T*S    EENTRO =        -0.03123631
  eigenvalues    EBANDS =     -3121.93991392
  atomic energy  EATOM  =      9410.45384619
  ---------------------------------------------------
  free energy    TOTEN  =      -589.63890410 eV

  energy without entropy =     -589.60766778  energy(sigma->0) =     -589.62328594
  exchange ACFDT corr.  =        -0.04352158  see jH, gK, PRB 81, 115126


--------------------------------------------------------------------------------------------------------




--------------------------------------- Iteration      1(   7)  ---------------------------------------


    POTLOK:  cpu time    2.0880: real time    2.0909
    SETDIJ:  cpu time    2.0829: real time    2.0846
    TRIAL :  cpu time  309.8706: real time  310.1914
    CORREC:  cpu time    0.0010: real time    0.0010
    CHARGE:  cpu time    1.3134: real time    1.3143
    --------------------------------------------
      LOOP:  cpu time  315.3577: real time  315.6864

 eigenvalue-minimisations  :     0
 total energy-change (2. order) :-0.9149823E-01  (-0.7713907E-01)
 number of electron     235.9999996 magnetization       0.2183862
 augmentation part       12.7420855 magnetization       0.1053075

 DIPCOR: dipole corrections for dipol
 direction  3 min pos     1,
 dipolmoment           0.000004      0.000007      0.033020 electrons x Angstroem
 Tr[quadrupol]     -6032.143671

 energy correction for charged system         0.000000 eV
 dipol+quadrupol energy correction            0.000031 eV
 added-field ion interaction          0.000000 eV  (added to PSCEN)


 Free energy of the ion-electron system (eV)
  ---------------------------------------------------
  alpha Z        PSCENC =        94.36856876
  Ewald energy   TEWEN  =     38172.41426609
  -Hartree energ DENC   =    -46252.81572364
  -exchange      EXHF   =       537.70863261
  -V(xc)+E(xc)   XCENC  =       588.57350998
  PAW double counting   =     25944.81183568   -25966.51764718
  entropy T*S    EENTRO =        -0.02580920
  eigenvalues    EBANDS =     -3118.69645450
  atomic energy  EATOM  =      9410.45384619
  ---------------------------------------------------
  free energy    TOTEN  =      -589.73040233 eV

  energy without entropy =     -589.70459313  energy(sigma->0) =     -589.71749773
  exchange ACFDT corr.  =        -0.03235904  see jH, gK, PRB 81, 115126


--------------------------------------------------------------------------------------------------------




--------------------------------------- Iteration      1(   8)  ---------------------------------------


    POTLOK:  cpu time    2.0857: real time    2.0900
    SETDIJ:  cpu time    2.0845: real time    2.0859
    TRIAL :  cpu time  310.4202: real time  310.7355
    CORREC:  cpu time    0.0010: real time    0.0009
    CHARGE:  cpu time    1.3124: real time    1.3134
    --------------------------------------------
      LOOP:  cpu time  315.9052: real time  316.2302

 eigenvalue-minimisations  :     0
 total energy-change (2. order) :-0.6803622E-01  (-0.5749127E-01)
 number of electron     235.9999996 magnetization       0.1584126
 augmentation part       12.7485628 magnetization       0.0951985

 DIPCOR: dipole corrections for dipol
 direction  3 min pos     1,
 dipolmoment           0.000004      0.000006      0.032340 electrons x Angstroem
 Tr[quadrupol]     -6032.173182

 energy correction for charged system         0.000000 eV
 dipol+quadrupol energy correction            0.000030 eV
 added-field ion interaction          0.000000 eV  (added to PSCEN)


 Free energy of the ion-electron system (eV)
  ---------------------------------------------------
  alpha Z        PSCENC =        94.36856749
  Ewald energy   TEWEN  =     38172.41426609
  -Hartree energ DENC   =    -46255.17322670
  -exchange      EXHF   =       537.93840606
  -V(xc)+E(xc)   XCENC  =       588.70653024
  PAW double counting   =     25964.72278169   -25986.47416191
  entropy T*S    EENTRO =        -0.02042465
  eigenvalues    EBANDS =     -3116.72963850
  atomic energy  EATOM  =      9410.45384619
  ---------------------------------------------------
  free energy    TOTEN  =      -589.79843855 eV

  energy without entropy =     -589.77801390  energy(sigma->0) =     -589.78822622
  exchange ACFDT corr.  =        -0.02586601  see jH, gK, PRB 81, 115126


--------------------------------------------------------------------------------------------------------




--------------------------------------- Iteration      1(   9)  ---------------------------------------


    POTLOK:  cpu time    2.0724: real time    2.0791
    SETDIJ:  cpu time    2.0828: real time    2.0847
    TRIAL :  cpu time  310.4248: real time  310.7898
    CORREC:  cpu time    0.0010: real time    0.0010
    CHARGE:  cpu time    1.3120: real time    1.3134
    --------------------------------------------
      LOOP:  cpu time  315.8945: real time  316.2740

 eigenvalue-minimisations  :     0
 total energy-change (2. order) :-0.5126903E-01  (-0.4321826E-01)
 number of electron     235.9999996 magnetization       0.1104094
 augmentation part       12.7545725 magnetization       0.0866276

 DIPCOR: dipole corrections for dipol
 direction  3 min pos     1,
 dipolmoment           0.000004      0.000006      0.031756 electrons x Angstroem
 Tr[quadrupol]     -6032.187111

 energy correction for charged system         0.000000 eV
 dipol+quadrupol energy correction            0.000029 eV
 added-field ion interaction          0.000000 eV  (added to PSCEN)


 Free energy of the ion-electron system (eV)
  ---------------------------------------------------
  alpha Z        PSCENC =        94.36856642
  Ewald energy   TEWEN  =     38172.41426609
  -Hartree energ DENC   =    -46256.35597150
  -exchange      EXHF   =       538.10282867
  -V(xc)+E(xc)   XCENC  =       588.79974701
  PAW double counting   =     25975.17671411   -25996.99925078
  entropy T*S    EENTRO =        -0.01548171
  eigenvalues    EBANDS =     -3115.79002914
  atomic energy  EATOM  =      9410.45384619
  ---------------------------------------------------
  free energy    TOTEN  =      -589.84970758 eV

  energy without entropy =     -589.83422587  energy(sigma->0) =     -589.84196672
  exchange ACFDT corr.  =        -0.01963617  see jH, gK, PRB 81, 115126


--------------------------------------------------------------------------------------------------------




--------------------------------------- Iteration      1(  10)  ---------------------------------------


    POTLOK:  cpu time    2.0721: real time    2.0741
    SETDIJ:  cpu time    2.0807: real time    2.0829
    TRIAL :  cpu time  310.3944: real time  310.7171
    CORREC:  cpu time    0.0009: real time    0.0009
    CHARGE:  cpu time    1.3106: real time    1.3116
    --------------------------------------------
      LOOP:  cpu time  315.8601: real time  316.1923

 eigenvalue-minimisations  :     0
 total energy-change (2. order) :-0.3877337E-01  (-0.3249791E-01)
 number of electron     235.9999996 magnetization       0.0743679
 augmentation part       12.7589764 magnetization       0.0787164

 DIPCOR: dipole corrections for dipol
 direction  3 min pos     1,
 dipolmoment           0.000004      0.000006      0.031347 electrons x Angstroem
 Tr[quadrupol]     -6032.192531

 energy correction for charged system         0.000000 eV
 dipol+quadrupol energy correction            0.000028 eV
 added-field ion interaction          0.000000 eV  (added to PSCEN)


 Free energy of the ion-electron system (eV)
  ---------------------------------------------------
  alpha Z        PSCENC =        94.36856569
  Ewald energy   TEWEN  =     38172.41426609
  -Hartree energ DENC   =    -46256.85870390
  -exchange      EXHF   =       538.22316616
  -V(xc)+E(xc)   XCENC  =       588.86626311
  PAW double counting   =     25980.35611386   -26002.25742238
  entropy T*S    EENTRO =        -0.01128988
  eigenvalues    EBANDS =     -3115.43909405
  atomic energy  EATOM  =      9410.45384619
  ---------------------------------------------------
  free energy    TOTEN  =      -589.88848095 eV

  energy without entropy =     -589.87719107  energy(sigma->0) =     -589.88283601
  exchange ACFDT corr.  =        -0.01418290  see jH, gK, PRB 81, 115126


--------------------------------------------------------------------------------------------------------




--------------------------------------- Iteration      1(  11)  ---------------------------------------


    POTLOK:  cpu time    2.0658: real time    2.0679
    SETDIJ:  cpu time    2.0829: real time    2.0853
    TRIAL :  cpu time  311.4753: real time  311.8725
    CORREC:  cpu time    0.0010: real time    0.0010
    CHARGE:  cpu time    1.3129: real time    1.3150
    --------------------------------------------
      LOOP:  cpu time  316.9398: real time  317.3468

 eigenvalue-minimisations  :     0
 total energy-change (2. order) :-0.2930317E-01  (-0.2446639E-01)
 number of electron     235.9999996 magnetization       0.0489125
 augmentation part       12.7616541 magnetization       0.0711868

 DIPCOR: dipole corrections for dipol
 direction  3 min pos     1,
 dipolmoment           0.000004      0.000006      0.031071 electrons x Angstroem
 Tr[quadrupol]     -6032.194350

 energy correction for charged system         0.000000 eV
 dipol+quadrupol energy correction            0.000028 eV
 added-field ion interaction          0.000000 eV  (added to PSCEN)


 Free energy of the ion-electron system (eV)
  ---------------------------------------------------
  alpha Z        PSCENC =        94.36856519
  Ewald energy   TEWEN  =     38172.41426609
  -Hartree energ DENC   =    -46257.05574379
  -exchange      EXHF   =       538.31570153
  -V(xc)+E(xc)   XCENC  =       588.91672895
  PAW double counting   =     25982.80335213   -26004.77101377
  entropy T*S    EENTRO =        -0.00799278
  eigenvalues    EBANDS =     -3115.35219676
  atomic energy  EATOM  =      9410.45384619
  ---------------------------------------------------
  free energy    TOTEN  =      -589.91778411 eV

  energy without entropy =     -589.90979133  energy(sigma->0) =     -589.91378772
  exchange ACFDT corr.  =        -0.00981635  see jH, gK, PRB 81, 115126


--------------------------------------------------------------------------------------------------------




--------------------------------------- Iteration      1(  12)  ---------------------------------------


    POTLOK:  cpu time    2.0663: real time    2.0736
    SETDIJ:  cpu time    2.0775: real time    2.0790
    TRIAL :  cpu time  309.9092: real time  310.2340
    CORREC:  cpu time    0.0009: real time    0.0009
    CHARGE:  cpu time    1.3101: real time    1.3115
    --------------------------------------------
      LOOP:  cpu time  315.3653: real time  315.7028

 eigenvalue-minimisations  :     0
 total energy-change (2. order) :-0.2218517E-01  (-0.1848519E-01)
 number of electron     235.9999996 magnetization       0.0318286
 augmentation part       12.7633056 magnetization       0.0642787

 DIPCOR: dipole corrections for dipol
 direction  3 min pos     1,
 dipolmoment           0.000004      0.000006      0.030866 electrons x Angstroem
 Tr[quadrupol]     -6032.194998

 energy correction for charged system         0.000000 eV
 dipol+quadrupol energy correction            0.000027 eV
 added-field ion interaction          0.000000 eV  (added to PSCEN)


 Free energy of the ion-electron system (eV)
  ---------------------------------------------------
  alpha Z        PSCENC =        94.36856483
  Ewald energy   TEWEN  =     38172.41426609
  -Hartree energ DENC   =    -46257.14527045
  -exchange      EXHF   =       538.39023728
  -V(xc)+E(xc)   XCENC  =       588.95750250
  PAW double counting   =     25984.11432480   -26006.12993874
  entropy T*S    EENTRO =        -0.00556151
  eigenvalues    EBANDS =     -3115.35550900
  atomic energy  EATOM  =      9410.45384619
  ---------------------------------------------------
  free energy    TOTEN  =      -589.93996928 eV

  energy without entropy =     -589.93440778  energy(sigma->0) =     -589.93718853
  exchange ACFDT corr.  =        -0.00658947  see jH, gK, PRB 81, 115126


--------------------------------------------------------------------------------------------------------




--------------------------------------- Iteration      1(  13)  ---------------------------------------


    POTLOK:  cpu time    2.0552: real time    2.0567
    SETDIJ:  cpu time    2.0873: real time    2.0887
    TRIAL :  cpu time  309.6154: real time  309.9315
    CORREC:  cpu time    0.0010: real time    0.0010
    CHARGE:  cpu time    1.3205: real time    1.3223
    --------------------------------------------
      LOOP:  cpu time  315.0807: real time  315.4044

 eigenvalue-minimisations  :     0
 total energy-change (2. order) :-0.1686730E-01  (-0.1405682E-01)
 number of electron     235.9999996 magnetization       0.0207711
 augmentation part       12.7646636 magnetization       0.0582765

 DIPCOR: dipole corrections for dipol
 direction  3 min pos     1,
 dipolmoment           0.000004      0.000006      0.030690 electrons x Angstroem
 Tr[quadrupol]     -6032.195491

 energy correction for charged system         0.000000 eV
 dipol+quadrupol energy correction            0.000027 eV
 added-field ion interaction          0.000000 eV  (added to PSCEN)


 Free energy of the ion-electron system (eV)
  ---------------------------------------------------
  alpha Z        PSCENC =        94.36856452
  Ewald energy   TEWEN  =     38172.41426609
  -Hartree energ DENC   =    -46257.21153005
  -exchange      EXHF   =       538.45231039
  -V(xc)+E(xc)   XCENC  =       588.99200386
  PAW double counting   =     25985.30285571   -26007.35439625
  entropy T*S    EENTRO =        -0.00385449
  eigenvalues    EBANDS =     -3115.36919555
  atomic energy  EATOM  =      9410.45384619
  ---------------------------------------------------
  free energy    TOTEN  =      -589.95683659 eV

  energy without entropy =     -589.95298210  energy(sigma->0) =     -589.95490934
  exchange ACFDT corr.  =        -0.00467028  see jH, gK, PRB 81, 115126


--------------------------------------------------------------------------------------------------------




--------------------------------------- Iteration      1(  14)  ---------------------------------------


    POTLOK:  cpu time    2.0600: real time    2.0612
    SETDIJ:  cpu time    2.0757: real time    2.0790
    TRIAL :  cpu time  309.4850: real time  309.8113
    CORREC:  cpu time    0.0009: real time    0.0009
    CHARGE:  cpu time    1.3161: real time    1.3172
    --------------------------------------------
      LOOP:  cpu time  314.9393: real time  315.2738

 eigenvalue-minimisations  :     0
 total energy-change (2. order) :-0.1291711E-01  (-0.1079685E-01)
 number of electron     235.9999997 magnetization       0.0137566
 augmentation part       12.7659456 magnetization       0.0530950

 DIPCOR: dipole corrections for dipol
 direction  3 min pos     1,
 dipolmoment           0.000004      0.000006      0.030529 electrons x Angstroem
 Tr[quadrupol]     -6032.196155

 energy correction for charged system         0.000000 eV
 dipol+quadrupol energy correction            0.000027 eV
 added-field ion interaction          0.000000 eV  (added to PSCEN)


 Free energy of the ion-electron system (eV)
  ---------------------------------------------------
  alpha Z        PSCENC =        94.36856424
  Ewald energy   TEWEN  =     38172.41426609
  -Hartree energ DENC   =    -46257.28114481
  -exchange      EXHF   =       538.50513732
  -V(xc)+E(xc)   XCENC  =       589.02199063
  PAW double counting   =     25986.86953263   -26008.95331221
  entropy T*S    EENTRO =        -0.00269372
  eigenvalues    EBANDS =     -3115.36477929
  atomic energy  EATOM  =      9410.45384619
  ---------------------------------------------------
  free energy    TOTEN  =      -589.96975370 eV

  energy without entropy =     -589.96705997  energy(sigma->0) =     -589.96840684
  exchange ACFDT corr.  =        -0.00306627  see jH, gK, PRB 81, 115126


--------------------------------------------------------------------------------------------------------




--------------------------------------- Iteration      1(  15)  ---------------------------------------


    POTLOK:  cpu time    2.0486: real time    2.0506
    SETDIJ:  cpu time    2.0845: real time    2.0859
    TRIAL :  cpu time  310.1350: real time  310.4641
    CORREC:  cpu time    0.0009: real time    0.0009
    CHARGE:  cpu time    1.3434: real time    1.3446
    --------------------------------------------
      LOOP:  cpu time  315.6141: real time  315.9527

 eigenvalue-minimisations  :     0
 total energy-change (2. order) :-0.9990802E-02  (-0.8386861E-02)
 number of electron     235.9999997 magnetization       0.0093308
 augmentation part       12.7669752 magnetization       0.0484096

 DIPCOR: dipole corrections for dipol
 direction  3 min pos     1,
 dipolmoment           0.000004      0.000006      0.030380 electrons x Angstroem
 Tr[quadrupol]     -6032.196900

 energy correction for charged system         0.000000 eV
 dipol+quadrupol energy correction            0.000026 eV
 added-field ion interaction          0.000000 eV  (added to PSCEN)


 Free energy of the ion-electron system (eV)
  ---------------------------------------------------
  alpha Z        PSCENC =        94.36856398
  Ewald energy   TEWEN  =     38172.41426609
  -Hartree energ DENC   =    -46257.35066831
  -exchange      EXHF   =       538.55060712
  -V(xc)+E(xc)   XCENC  =       589.04824920
  PAW double counting   =     25988.89277561   -26011.00792178
  entropy T*S    EENTRO =        -0.00191709
  eigenvalues    EBANDS =     -3115.34676886
  atomic energy  EATOM  =      9410.45384619
  ---------------------------------------------------
  free energy    TOTEN  =      -589.97974450 eV

  energy without entropy =     -589.97782741  energy(sigma->0) =     -589.97878596
  exchange ACFDT corr.  =        -0.00203985  see jH, gK, PRB 81, 115126


--------------------------------------------------------------------------------------------------------




--------------------------------------- Iteration      1(  16)  ---------------------------------------


    POTLOK:  cpu time    2.0459: real time    2.0481
    SETDIJ:  cpu time    2.0863: real time    2.0882
    TRIAL :  cpu time  309.6252: real time  309.9388
    CORREC:  cpu time    0.0009: real time    0.0009
    CHARGE:  cpu time    1.3155: real time    1.3165
    --------------------------------------------
      LOOP:  cpu time  315.0757: real time  315.3971

 eigenvalue-minimisations  :     0
 total energy-change (2. order) :-0.7810483E-02  (-0.6595114E-02)
 number of electron     235.9999997 magnetization       0.0065207
 augmentation part       12.7676363 magnetization       0.0439879

 DIPCOR: dipole corrections for dipol
 direction  3 min pos     1,
 dipolmoment           0.000004      0.000006      0.030251 electrons x Angstroem
 Tr[quadrupol]     -6032.197480

 energy correction for charged system         0.000000 eV
 dipol+quadrupol energy correction            0.000026 eV
 added-field ion interaction          0.000000 eV  (added to PSCEN)


 Free energy of the ion-electron system (eV)
  ---------------------------------------------------
  alpha Z        PSCENC =        94.36856376
  Ewald energy   TEWEN  =     38172.41426609
  -Hartree energ DENC   =    -46257.40589749
  -exchange      EXHF   =       538.58984789
  -V(xc)+E(xc)   XCENC  =       589.07110967
  PAW double counting   =     25991.14052337   -26013.28411805
  entropy T*S    EENTRO =        -0.00139915
  eigenvalues    EBANDS =     -3115.33377932
  atomic energy  EATOM  =      9410.45384619
  ---------------------------------------------------
  free energy    TOTEN  =      -589.98755498 eV

  energy without entropy =     -589.98615584  energy(sigma->0) =     -589.98685541
  exchange ACFDT corr.  =        -0.00138931  see jH, gK, PRB 81, 115126


--------------------------------------------------------------------------------------------------------




--------------------------------------- Iteration      1(  17)  ---------------------------------------


    POTLOK:  cpu time    2.0437: real time    2.0455
    SETDIJ:  cpu time    2.0833: real time    2.0857
    TRIAL :  cpu time  310.3902: real time  310.7109
    CORREC:  cpu time    0.0009: real time    0.0009
    CHARGE:  cpu time    1.3136: real time    1.3144
    --------------------------------------------
      LOOP:  cpu time  315.8332: real time  316.1616

 eigenvalue-minimisations  :     0
 total energy-change (2. order) :-0.6177024E-02  (-0.5251445E-02)
 number of electron     235.9999997 magnetization       0.0047100
 augmentation part       12.7680261 magnetization       0.0398117

 DIPCOR: dipole corrections for dipol
 direction  3 min pos     1,
 dipolmoment           0.000004      0.000006      0.030148 electrons x Angstroem
 Tr[quadrupol]     -6032.197698

 energy correction for charged system         0.000000 eV
 dipol+quadrupol energy correction            0.000026 eV
 added-field ion interaction          0.000000 eV  (added to PSCEN)


 Free energy of the ion-electron system (eV)
  ---------------------------------------------------
  alpha Z        PSCENC =        94.36856358
  Ewald energy   TEWEN  =     38172.41426609
  -Hartree energ DENC   =    -46257.43704767
  -exchange      EXHF   =       538.62369223
  -V(xc)+E(xc)   XCENC  =       589.09090298
  PAW double counting   =     25993.32880384   -26015.49633335
  entropy T*S    EENTRO =        -0.00105151
  eigenvalues    EBANDS =     -3115.33902675
  atomic energy  EATOM  =      9410.45384619
  ---------------------------------------------------
  free energy    TOTEN  =      -589.99373201 eV

  energy without entropy =     -589.99268050  energy(sigma->0) =     -589.99320625
  exchange ACFDT corr.  =        -0.00097549  see jH, gK, PRB 81, 115126


--------------------------------------------------------------------------------------------------------




--------------------------------------- Iteration      1(  18)  ---------------------------------------


    POTLOK:  cpu time    2.0404: real time    2.0429
    SETDIJ:  cpu time    2.0847: real time    2.0865
    TRIAL :  cpu time  310.8086: real time  311.0888
    CORREC:  cpu time    0.0009: real time    0.0009
[...]
  Alpha Z    94.36854    94.36854    94.36854
  Ewald   46214.29994 46323.01934-54364.92961   -29.84619   -49.90216    13.62785
  Hartree 45664.85922 45664.51537-45072.78246     3.12942   -32.91364     9.05013
  E(xc)    -689.67696  -690.79833  -704.38142     0.42931    -0.13730     0.07329
  Local  -94419.42397-94515.28524 96407.03996    22.85817    83.05553   -22.43068
  n-local  -178.52851  -171.51859  -167.33832    -4.52915    -1.01746    -0.09257
  augment    45.73188    45.26779    54.30742     0.95897    -0.65111    -0.04918
  Kinetic  3536.71916  3520.96023  4044.30242     5.87244     1.51110    -0.57582
  Fock     -308.04806  -309.35817  -290.91155    -0.44480     0.77928     0.06040
  -------------------------------------------------------------------------------------
  Total     -39.69876   -38.82906    -0.32503    -1.57183     0.72423    -0.33658
  in kB     -20.02099   -19.58239    -0.16392    -0.79271     0.36525    -0.16974
  external pressure =      -13.26 kB  Pullay stress =        0.00 kB


 VOLUME and BASIS-vectors are now :
 -----------------------------------------------------------------------------
  energy-cutoff  :      500.00
  volume of cell :     3176.89
      direct lattice vectors                 reciprocal lattice vectors
    12.701800000  0.000000000  0.000000000     0.078728999  0.001484457 -0.000010599
    -0.232410360 12.326009113  0.000000000     0.000000000  0.081129260 -0.000016062
     0.002656151  0.004017307 20.291499428     0.000000000  0.000000000  0.049281720

  length of vectors
    12.701800000 12.328200000 20.291500000     0.078742993  0.081129262  0.049281720


 FORCES acting on ions:
    Electron-Ion                     Ewald-Force                    Non-Local-Force
 -----------------------------------------------------------------------------------------------
   0.143E+01 -.331E+01 0.277E+01   -.191E+01 0.345E+01 -.277E+01   0.513E+00 -.525E-01 0.291E-02
   -.269E+01 -.665E+01 -.693E-01   0.278E+01 0.658E+01 0.621E-01   -.441E-01 0.848E-02 0.578E-02
   0.322E+01 0.120E+01 0.194E+01   -.349E+01 -.122E+01 -.195E+01   0.154E+00 0.139E-01 0.484E-02
   0.899E+01 -.227E+01 0.244E+01   -.947E+01 0.202E+01 -.245E+01   0.389E+00 0.156E+00 0.487E-02
   0.433E+01 -.114E+02 0.105E+01   -.476E+01 0.117E+02 -.106E+01   0.447E+00 -.184E+00 0.206E-01
   -.529E+00 -.495E+01 -.134E+01   0.518E+00 0.480E+01 0.133E+01   0.933E-01 0.681E-01 0.128E-01
   -.223E+01 -.130E+01 -.698E+00   0.179E+01 0.146E+01 0.703E+00   0.320E+00 -.846E-01 -.653E-02
   0.196E+02 -.233E+02 0.865E-01   -.231E+02 0.237E+02 -.410E-01   0.340E+01 -.407E+00 -.292E-01
   -.810E+01 0.163E+02 -.405E+01   0.666E+01 -.187E+02 0.414E+01   0.130E+01 0.222E+01 -.121E+00
   0.486E+01 0.645E+01 -.103E+01   -.495E+01 -.656E+01 0.105E+01   0.338E-01 0.105E+00 -.205E-01
   -.959E+01 0.107E+01 -.186E+01   0.962E+01 -.143E+01 0.184E+01   0.389E-01 0.298E+00 0.726E-02
   0.232E+01 -.188E+01 -.208E+01   -.410E+01 0.384E+01 0.207E+01   0.168E+01 -.198E+01 -.511E-02
   0.701E+01 0.603E+01 0.456E+00   -.718E+01 -.584E+01 -.443E+00   0.258E+00 -.787E-01 -.896E-02
   0.329E+00 -.238E+01 -.987E+00   -.593E+00 0.268E+01 0.961E+00   0.350E+00 -.259E+00 0.190E-02
   0.211E+02 0.134E+02 0.119E+00   -.247E+02 -.137E+02 -.212E+00   0.377E+01 0.360E+00 0.149E+00
   0.754E+01 0.177E+01 0.289E+01   -.817E+01 -.166E+01 -.289E+01   0.645E+00 -.670E-01 0.142E-01
   0.174E+01 -.107E+00 0.208E+01   -.178E+01 0.258E+00 -.208E+01   0.824E-01 -.797E-01 0.289E-02
   0.445E+01 0.135E+01 0.254E+01   -.510E+01 -.149E+01 -.255E+01   0.534E+00 0.623E-01 0.123E-01
   0.520E+01 -.369E+01 0.237E+01   -.554E+01 0.401E+01 -.235E+01   0.293E+00 -.373E+00 -.156E-01
   -.537E+01 0.945E+01 -.160E+01   0.494E+01 -.955E+01 0.159E+01   0.323E+00 0.151E+00 0.153E-01
   0.254E+01 0.539E+01 0.122E+01   -.238E+01 -.596E+01 -.126E+01   0.335E-01 0.656E+00 0.474E-01
   0.474E+01 -.255E+01 0.719E+00   -.431E+01 0.258E+01 -.724E+00   -.338E+00 -.688E-01 0.131E-01
   0.285E-01 0.772E+01 -.580E+01   -.250E+00 -.848E+01 0.578E+01   0.923E-01 0.733E+00 0.143E-01
   0.175E+02 0.268E+02 -.938E+01   -.188E+02 -.300E+02 0.954E+01   0.153E+01 0.321E+01 -.150E+00
   -.329E-01 0.131E+02 -.295E+01   0.910E+00 -.161E+02 0.312E+01   -.108E+01 0.291E+01 -.139E+00
   0.283E+01 0.380E+01 -.308E+01   -.355E+01 -.132E+01 0.303E+01   0.981E+00 -.247E+01 0.359E-01
   -.189E+01 -.959E+00 0.110E+01   0.215E+01 0.162E+01 -.112E+01   -.128E+00 -.616E+00 0.219E-01
   -.233E+02 -.110E+02 -.342E+01   0.248E+02 0.140E+02 0.334E+01   -.181E+01 -.305E+01 0.698E-01
   -.918E-02 0.298E+01 -.140E+01   -.178E+00 -.258E+01 0.139E+01   0.551E-01 -.492E+00 0.175E-01
   -.308E+01 0.281E+00 -.135E+01   0.334E+01 -.266E+00 0.135E+01   -.139E+00 -.635E-02 -.903E-03
   -.828E+01 0.658E+01 -.656E+01   0.868E+01 -.696E+01 0.657E+01   -.339E+00 0.332E+00 -.138E-01
   -.960E+00 0.648E+01 -.301E+01   0.140E+01 -.658E+01 0.300E+01   -.501E+00 0.936E-01 0.673E-02
   -.967E+00 0.106E+01 -.192E+01   0.101E+01 -.119E+01 0.192E+01   -.788E-01 0.600E-01 -.473E-02
   -.491E+01 -.145E+01 -.393E+01   0.558E+01 0.163E+01 0.392E+01   -.519E+00 -.769E-01 0.164E-01
   -.323E+02 -.168E+02 -.985E+01   0.360E+02 0.173E+02 0.991E+01   -.382E+01 -.487E+00 -.109E+00
   -.107E+02 -.847E+00 -.799E+01   0.114E+02 0.846E+00 0.799E+01   -.654E+00 0.472E-01 -.120E-01
   -.677E+01 -.563E+01 -.245E+01   0.694E+01 0.548E+01 0.246E+01   -.249E+00 0.449E-01 -.123E-01
   -.578E-01 0.167E+01 -.693E+00   0.184E+00 -.204E+01 0.700E+00   -.193E+00 0.319E+00 0.433E-02
   -.412E+01 0.424E+01 -.915E+00   0.585E+01 -.593E+01 0.979E+00   -.159E+01 0.181E+01 -.556E-01
   -.428E+01 -.765E+01 0.110E+01   0.434E+01 0.774E+01 -.113E+01   -.331E-01 -.100E+00 0.332E-01
   0.117E+02 -.264E+01 0.108E+01   -.119E+02 0.304E+01 -.108E+01   0.895E-01 -.369E+00 -.195E-01
   -.826E+01 0.276E+02 0.563E+00   0.113E+02 -.280E+02 -.578E+00   -.303E+01 0.445E+00 0.296E-01
   0.155E+02 -.261E+02 0.447E+01   -.141E+02 0.282E+02 -.446E+01   -.125E+01 -.221E+01 0.146E-01
   0.216E+01 0.359E+01 0.347E+00   -.215E+01 -.345E+01 -.338E+00   -.802E-01 -.551E-01 -.133E-01
   0.552E+01 0.224E+01 0.965E+00   -.509E+01 -.243E+01 -.979E+00   -.270E+00 0.107E+00 0.133E-01
   -.794E+01 0.670E+01 -.168E+01   0.837E+01 -.652E+01 0.169E+01   -.367E+00 -.152E+00 -.311E-02
   -.336E+00 0.150E+02 0.155E-01   0.656E+00 -.153E+02 -.118E-02   -.400E+00 0.278E+00 -.188E-01
   0.397E+01 0.799E+01 0.768E+00   -.406E+01 -.795E+01 -.764E+00   0.451E-01 0.285E-01 -.644E-03
   -.117E+03 0.982E+01 -.670E+01   0.141E+03 -.853E+01 0.682E+01   -.218E+02 -.125E+01 -.449E-01
   0.342E+00 -.825E+02 -.520E+01   0.866E+01 0.995E+02 0.641E+01   -.894E+01 -.163E+02 -.121E+01
   0.125E+02 -.697E+02 -.234E+02   -.221E+02 0.880E+02 0.245E+02   0.946E+01 -.176E+02 -.109E+01
   -.448E+02 0.844E+02 -.120E+02   0.548E+02 -.102E+03 0.126E+02   -.955E+01 0.174E+02 -.562E+00
   0.353E+02 0.115E+03 -.627E+01   -.464E+02 -.134E+03 0.634E+01   0.106E+02 0.183E+02 -.477E-01
   0.127E+03 -.214E+02 0.952E+01   -.154E+03 0.200E+02 -.969E+01   0.255E+02 0.132E+01 0.174E+00
   -.630E+00 -.141E+03 0.167E+03   0.291E+01 0.131E+03 -.164E+03   -.923E+00 0.719E+01 -.303E+01
   -.299E+02 0.360E+02 -.683E+02   0.281E+02 -.294E+02 0.682E+02   0.655E+00 -.405E+01 0.725E+00
 -----------------------------------------------------------------------------------------------
   -.597E+01 -.582E+01 0.566E+01   0.568E-12 0.000E+00 0.142E-13   0.555E+01 0.574E+01 -.526E+01
 
 
 POSITION                                       TOTAL-FORCE (eV/Angst)
 -----------------------------------------------------------------------------------
      2.81966      0.04857     10.13352         0.062115      0.076883      0.001338
      0.70675      1.26688     10.14456         0.035171     -0.072064     -0.001104
      1.39783      0.02752     10.13689        -0.105236     -0.001656      0.001335
      3.52013      1.29184     10.13216        -0.061564     -0.078656     -0.002952
      2.84626      2.55348     10.13529         0.039917      0.083526      0.004950
      0.68977      3.74525     10.14908         0.093693     -0.080594     -0.000696
      1.41157      2.52106     10.14429        -0.101906      0.078728     -0.002013
      3.59538      3.79819     10.13291         0.113513     -0.107809      0.014784
      2.86057      5.05635     10.15248        -0.071144      0.006510     -0.031199
      0.60002      6.18217     10.14743        -0.044842      0.016073     -0.001298
      1.39827      4.98600     10.15018         0.058232     -0.047259     -0.011029
      2.71379      7.42018     10.15662        -0.001074     -0.126902     -0.020678
      0.51076      8.62929     10.14223         0.106224      0.105991      0.002876
      1.28028      7.42229     10.14893         0.099855      0.014344     -0.023668
      3.35190      8.69146     10.15640         0.432392      0.071772      0.064463
      2.60521      9.89835     10.14022         0.046601      0.044633      0.010202
      0.46722     11.10579     10.13738         0.042891      0.062362      0.001276
      1.18367      9.87700     10.13720        -0.087862     -0.084055      0.002748
      3.29278     11.14008     10.13856        -0.023507     -0.078181      0.007917
      6.81610     12.30693     10.15477        -0.098682      0.073479      0.006725
      4.93955      1.27698     10.13567         0.182698      0.127612      0.016470
      5.64199      0.03101     10.14436         0.084773     -0.052518      0.008718
      7.74763      1.20926     10.16382        -0.120168      0.012174     -0.000207
      7.06143      2.45415     10.15770         0.276443      0.175514      0.000732
      5.62622      2.51708     10.13600        -0.260926      0.093304      0.022333
      6.83028      9.81382     10.16410         0.314049     -0.125543     -0.004103
      4.71132     11.12776     10.14694         0.117236      0.014790      0.006023
      5.39926      9.88567     10.16652        -0.454317     -0.265491     -0.004738
      7.51673     11.05872     10.15727        -0.120545     -0.131135      0.003577
     11.05512     12.31589     10.15278         0.112197      0.002139      0.001891
      9.16371      1.20422     10.16933         0.030468     -0.020921     -0.010438
      9.63470     12.29360     10.16029        -0.086787      0.005447      0.003553
     11.98520      1.23885     10.15372        -0.038026     -0.067338      0.002238
     11.27184      2.47025     10.16058         0.123875      0.103266      0.000555
      9.09699      3.65658     10.16261        -0.320191     -0.102089     -0.057796
      9.84955      2.44968     10.17031        -0.082486      0.047203     -0.016817
     11.95050      3.71760     10.15303        -0.098966     -0.104192     -0.002918
     11.18346      4.92434     10.14369        -0.072300     -0.017651      0.010526
      9.74682      4.93638     10.13653         0.050699      0.221157      0.005499
     11.86457      6.16414     10.13939         0.017246     -0.021350      0.004623
     11.06938      7.36275     10.13545        -0.030397      0.021718     -0.013353
      8.84634      8.54252     10.14422        -0.206164      0.147353      0.016813
      9.60914      7.28814     10.12367         0.035766     -0.266544      0.023336
     11.77258      8.60166     10.14044        -0.086915      0.089226     -0.004654
     11.04137      9.82031     10.14188         0.147074     -0.080164      0.000300
      8.93325     11.04971     10.15568         0.034880      0.021354      0.005770
      9.60404      9.78443     10.14691        -0.099324     -0.044698     -0.005250
     11.74538     11.07589     10.14323        -0.034886      0.078208      0.003821
      3.51791      6.28588     10.16135        -0.472176     -0.070095      0.071768
      4.99639      3.76130     10.12038        -0.699321     -0.799187     -0.109095
      7.73998      3.63376     10.15813         0.625758     -0.841779     -0.028370
      4.71812      8.70611     10.18417        -0.449242      1.068862     -0.046304
      7.44478      8.56549     10.16550         0.400637      0.577684      0.022614
      8.97050      6.06827     10.10879         0.709767      0.061779      0.010388
      6.47791      5.08782      9.87074         0.814739     -1.560812     -0.251838
      5.80371      7.05983     10.26541        -0.879957      1.745590      0.290359
 -----------------------------------------------------------------------------------
    total drift:                               -0.000890     -0.003697     -0.000771


--------------------------------------------------------------------------------------------------------



  FREE ENERGIE OF THE ION-ELECTRON SYSTEM (eV)
  ---------------------------------------------------
  free  energy   TOTEN  =      -590.02924172 eV

  energy  without entropy=     -590.02909738  energy(sigma->0) =     -590.02916955
 


--------------------------------------------------------------------------------------------------------


    POTLOK:  cpu time    4.1062: real time    4.1092


--------------------------------------------------------------------------------------------------------


 stress matrix after NEB project (eV)
    -39.69876     -1.57181     -0.33658
     -1.57183    -38.82906      0.72020
     -0.33772      0.72423     -0.32503
  FORCES: max atom, RMS     1.976289    0.490232
  FORCE total and by dimension    3.668557    1.745590
  Stress total and by dimension   55.587814   39.698759
 writing wavefunctions
     LOOP+:  cpu time20214.7249: real time20240.5046
    4ORBIT:  cpu time    0.0000: real time    0.0000
 


 total charge     
 
# of ion       s       p       d       tot
------------------------------------------
    1        0.865   1.789   0.000   2.655
    2        0.866   1.771   0.000   2.637
    3        0.867   1.782   0.000   2.649
    4        0.870   1.764   0.000   2.634
    5        0.860   1.751   0.000   2.611
    6        0.863   1.767   0.000   2.630
    7        0.863   1.764   0.000   2.627
    8        0.845   1.696   0.000   2.541
    9        0.844   1.695   0.000   2.539
   10        0.865   1.766   0.000   2.632
   11        0.858   1.742   0.000   2.601
   12        0.858   1.744   0.000   2.602
   13        0.863   1.771   0.000   2.634
   14        0.867   1.775   0.000   2.642
   15        0.867   1.767   0.000   2.634
   16        0.870   1.791   0.000   2.662
   17        0.867   1.775   0.000   2.642
   18        0.869   1.786   0.000   2.655
   19        0.873   1.776   0.000   2.649
   20        0.867   1.801   0.000   2.668
   21        0.868   1.785   0.000   2.654
   22        0.868   1.801   0.000   2.668
   23        0.872   1.797   0.000   2.669
   24        0.865   1.762   0.000   2.627
   25        0.859   1.739   0.000   2.598
   26        0.860   1.740   0.000   2.601
   27        0.871   1.797   0.000   2.668
   28        0.867   1.762   0.000   2.629
   29        0.869   1.784   0.000   2.652
   30        0.868   1.781   0.000   2.649
   31        0.873   1.775   0.000   2.648
   32        0.865   1.790   0.000   2.655
   33        0.867   1.774   0.000   2.641
   34        0.869   1.782   0.000   2.651
   35        0.866   1.761   0.000   2.627
   36        0.869   1.788   0.000   2.657
   37        0.862   1.770   0.000   2.633
   38        0.867   1.776   0.000   2.643
   39        0.858   1.744   0.000   2.603
   40        0.866   1.762   0.000   2.628
   41        0.860   1.748   0.000   2.608
   42        0.845   1.685   0.000   2.530
   43        0.847   1.700   0.000   2.547
   44        0.864   1.771   0.000   2.635
   45        0.863   1.761   0.000   2.624
   46        0.870   1.764   0.000   2.634
   47        0.859   1.748   0.000   2.607
   48        0.866   1.770   0.000   2.637
   49        1.225   2.604   0.000   3.829
   50        1.220   2.645   0.000   3.865
   51        1.239   2.718   0.000   3.957
   52        1.240   2.716   0.000   3.956
   53        1.224   2.616   0.000   3.839
   54        1.239   2.605   0.000   3.844
   55        0.410   0.387   6.231   7.028
   56        0.366   0.436   4.323   5.125
--------------------------------------------------
tot         49.638 101.419  10.554 161.611
 


 magnetization (x)
 
# of ion       s       p       d       tot
------------------------------------------
    1        0.000   0.003   0.000   0.003
    2       -0.000  -0.003   0.000  -0.003
    3       -0.000  -0.005   0.000  -0.005
    4        0.000   0.001   0.000   0.001
    5        0.000   0.001   0.000   0.002
    6        0.000   0.001   0.000   0.001
    7       -0.000  -0.007   0.000  -0.007
    8       -0.002  -0.021   0.000  -0.022
    9        0.000  -0.010   0.000  -0.009
   10       -0.002  -0.035   0.000  -0.036
   11        0.000  -0.002   0.000  -0.002
   12        0.000  -0.013   0.000  -0.012
   13        0.000   0.001   0.000   0.001
   14        0.000  -0.002   0.000  -0.002
   15        0.000  -0.015   0.000  -0.015
   16        0.000   0.001   0.000   0.002
   17       -0.000  -0.003   0.000  -0.004
   18       -0.000  -0.007   0.000  -0.007
   19        0.000   0.000   0.000   0.000
   20       -0.000  -0.002   0.000  -0.002
   21        0.000  -0.002   0.000  -0.002
   22       -0.000  -0.003   0.000  -0.003
   23       -0.000  -0.001   0.000  -0.002
   24       -0.001  -0.005   0.000  -0.005
   25       -0.001  -0.007   0.000  -0.008
   26        0.001   0.004   0.000   0.005
   27       -0.000  -0.006   0.000  -0.006
   28        0.001   0.005   0.000   0.006
   29       -0.000  -0.004   0.000  -0.005
   30       -0.001  -0.011   0.000  -0.012
   31       -0.000   0.000   0.000   0.000
   32        0.000   0.002   0.000   0.003
   33        0.000   0.002   0.000   0.003
   34       -0.001  -0.014   0.000  -0.015
   35       -0.001  -0.019   0.000  -0.020
   36        0.000   0.002   0.000   0.002
   37        0.001   0.007   0.000   0.007
   38       -0.000  -0.010   0.000  -0.010
   39        0.001   0.002   0.000   0.004
   40       -0.000  -0.010   0.000  -0.011
   41       -0.001  -0.012   0.000  -0.013
   42       -0.001  -0.018   0.000  -0.019
   43        0.001   0.004   0.000   0.005
   44        0.001   0.007   0.000   0.007
   45       -0.001  -0.014   0.000  -0.015
   46        0.000  -0.000   0.000  -0.000
   47        0.000   0.003   0.000   0.003
   48        0.000   0.003   0.000   0.003
   49       -0.014  -0.153   0.000  -0.167
   50        0.001  -0.014   0.000  -0.013
   51       -0.004  -0.031   0.000  -0.036
   52       -0.001  -0.041   0.000  -0.042
   53       -0.009  -0.062   0.000  -0.071
   54       -0.003  -0.093   0.000  -0.095
   55        0.059   0.032  -3.093  -3.002
   56        0.103   0.096   3.671   3.871
--------------------------------------------------
tot          0.130  -0.480   0.579   0.229
 

 total amount of memory used by VASP MPI-rank0   220899. kBytes
=======================================================================

   base      :      30000. kBytes
   nonl-proj :       6965. kBytes
   fftplans  :      17535. kBytes
   grid      :      46049. kBytes
   one-center:         93. kBytes
   HF        :         46. kBytes
   nonlr-proj:      20626. kBytes
   wavefun   :      99585. kBytes
 
  
  
 General timing and accounting informations for this job:
 ========================================================
  
                  Total CPU time used (sec):    20265.199
                            User time (sec):    20230.188
                          System time (sec):       35.010
                         Elapsed time (sec):    20297.296
  
                   Maximum memory used (kb):      467568.
                   Average memory used (kb):           0.
  
                          Minor page faults:      1077892
                          Major page faults:          202
                 Voluntary context switches:       233985
