 vasp.5.4.4.18Apr17-6-g9f103f2a35 (build Feb 25 2019 10:51:38) complex          
  
 executed on             LinuxIFC date 2021.08.09  07:01:22
 running on   32 total cores
 distrk:  each k-point on   32 cores,    1 groups
 distr:  one band on NCORES_PER_BAND=  32 cores,    1 groups


--------------------------------------------------------------------------------------------------------


 INCAR:
 POTCAR:    PAW_PBE C 08Apr2002                   
 POTCAR:    PAW_PBE N 08Apr2002                   
 POTCAR:    PAW_PBE Fe 06Sep2000                  
 POTCAR:    PAW_PBE V 08Apr2002                   

 ----------------------------------------------------------------------------- 
|                                                                             |
|           W    W    AA    RRRRR   N    N  II  N    N   GGGG   !!!           |
|           W    W   A  A   R    R  NN   N  II  NN   N  G    G  !!!           |
|           W    W  A    A  R    R  N N  N  II  N N  N  G       !!!           |
|           W WW W  AAAAAA  RRRRR   N  N N  II  N  N N  G  GGG   !            |
|           WW  WW  A    A  R   R   N   NN  II  N   NN  G    G                |
|           W    W  A    A  R    R  N    N  II  N    N   GGGG   !!!           |
|                                                                             |
|      For optimal performance we recommend to set                            |
|        NCORE= 4 - approx SQRT( number of cores)                             |
|      NCORE specifies how many cores store one orbital (NPAR=cpu/NCORE).     |
|      This setting can  greatly improve the performance of VASP for DFT.     |
|      The default,   NCORE=1            might be grossly inefficient         |
|      on modern multi-core architectures or massively parallel machines.     |
|      Do your own testing !!!!                                               |
|      Unfortunately you need to use the default for GW and RPA calculations. |
|      (for HF NCORE is supported but not extensively tested yet)             |
|                                                                             |
 ----------------------------------------------------------------------------- 

 POTCAR:    PAW_PBE C 08Apr2002                   
   VRHFIN =C: s2p2                                                              
   LEXCH  = PE                                                                  
   EATOM  =   147.1560 eV,   10.8157 Ry                                         
                                                                                
   TITEL  = PAW_PBE C 08Apr2002                                                 
   LULTRA =        F    use ultrasoft PP ?                                      
   IUNSCR =        1    unscreen: 0-lin 1-nonlin 2-no                           
   RPACOR =    1.200    partial core radius                                     
   POMASS =   12.011; ZVAL   =    4.000    mass and valenz                      
   RCORE  =    1.500    outmost cutoff radius                                   
   RWIGS  =    1.630; RWIGS  =    0.863    wigner-seitz radius (au A)           
   ENMAX  =  400.000; ENMIN  =  300.000 eV                                      
   ICORE  =        2    local potential                                         
   LCOR   =        T    correct aug charges                                     
   LPAW   =        T    paw PP                                                  
   EAUG   =  644.873                                                            
   DEXC   =    0.000                                                            
   RMAX   =    1.529    core radius for proj-oper                               
   RAUG   =    1.300    factor for augmentation sphere                          
   RDEP   =    1.501    radius for radial grids                                 
   RDEPT  =    1.300    core radius for aug-charge                              
                                                                                
   Atomic configuration                                                         
    4 entries                                                                   
     n  l   j            E        occ.                                          
     1  0  0.50      -273.3789   2.0000                                         
     2  0  0.50       -13.7508   2.0000                                         
     2  1  0.50        -5.2854   2.0000                                         
     3  2  1.50        -5.4423   0.0000                                         
   Description                                                                  
     l       E           TYP  RCUT    TYP  RCUT                                 
     0    -13.7508458     23  1.200                                             
     0     -8.2022199     23  1.200                                             
     1     -5.2854383     23  1.500                                             
     1     34.0145650     23  1.500                                             
     2     -5.4423304      7  1.500                                             
  local pseudopotential read in
  partial core-charges read in
  partial kinetic energy density read in
  atomic valenz-charges read in
  non local Contribution for L=           0  read in
    real space projection operators read in
  non local Contribution for L=           0  read in
    real space projection operators read in
  non local Contribution for L=           1  read in
    real space projection operators read in
  non local Contribution for L=           1  read in
    real space projection operators read in
    PAW grid and wavefunctions read in
 
   number of l-projection  operators is LMAX  =           4
   number of lm-projection operators is LMMAX =           8
 
 POTCAR:    PAW_PBE N 08Apr2002                   
   VRHFIN =N: s2p3                                                              
   LEXCH  = PE                                                                  
   EATOM  =   264.5486 eV,   19.4438 Ry                                         
                                                                                
   TITEL  = PAW_PBE N 08Apr2002                                                 
   LULTRA =        F    use ultrasoft PP ?                                      
   IUNSCR =        1    unscreen: 0-lin 1-nonlin 2-no                           
   RPACOR =    1.200    partial core radius                                     
   POMASS =   14.001; ZVAL   =    5.000    mass and valenz                      
   RCORE  =    1.500    outmost cutoff radius                                   
   RWIGS  =    1.400; RWIGS  =    0.741    wigner-seitz radius (au A)           
   ENMAX  =  400.000; ENMIN  =  300.000 eV                                      
   ICORE  =        2    local potential                                         
   LCOR   =        T    correct aug charges                                     
   LPAW   =        T    paw PP                                                  
   EAUG   =  627.112                                                            
   DEXC   =    0.000                                                            
   RMAX   =    1.529    core radius for proj-oper                               
   RAUG   =    1.300    factor for augmentation sphere                          
   RDEP   =    1.514    radius for radial grids                                 
   RDEPT  =    1.338    core radius for aug-charge                              
                                                                                
   Atomic configuration                                                         
    4 entries                                                                   
     n  l   j            E        occ.                                          
     1  0  0.50      -384.7179   2.0000                                         
     2  0  0.50       -18.5828   2.0000                                         
     2  1  0.50        -7.0898   3.0000                                         
     3  2  1.50        -6.8029   0.0000                                         
   Description                                                                  
     l       E           TYP  RCUT    TYP  RCUT                                 
     0    -18.5828119     23  1.200                                             
     0    -13.5018863     23  1.200                                             
     1     -7.0897853     23  1.500                                             
     1      9.5240782     23  1.500                                             
     2     -6.8029130      7  1.500                                             
  local pseudopotential read in
  partial core-charges read in
  partial kinetic energy density read in
  atomic valenz-charges read in
  non local Contribution for L=           0  read in
    real space projection operators read in
  non local Contribution for L=           0  read in
    real space projection operators read in
  non local Contribution for L=           1  read in
    real space projection operators read in
  non local Contribution for L=           1  read in
    real space projection operators read in
    PAW grid and wavefunctions read in
 
   number of l-projection  operators is LMAX  =           4
   number of lm-projection operators is LMMAX =           8
 
 POTCAR:    PAW_PBE Fe 06Sep2000                  
   VRHFIN =Fe:  d7 s1                                                           
   LEXCH  = PE                                                                  
   EATOM  =   594.3153 eV,   43.6809 Ry                                         
                                                                                
   TITEL  = PAW_PBE Fe 06Sep2000                                                
   LULTRA =        F    use ultrasoft PP ?                                      
   IUNSCR =        1    unscreen: 0-lin 1-nonlin 2-no                           
   RPACOR =    2.000    partial core radius                                     
   POMASS =   55.847; ZVAL   =    8.000    mass and valenz                      
   RCORE  =    2.300    outmost cutoff radius                                   
   RWIGS  =    2.460; RWIGS  =    1.302    wigner-seitz radius (au A)           
   ENMAX  =  267.882; ENMIN  =  200.911 eV                                      
   RCLOC  =    1.701    cutoff for local pot                                    
   LCOR   =        T    correct aug charges                                     
   LPAW   =        T    paw PP                                                  
   EAUG   =  511.368                                                            
   DEXC   =    0.000                                                            
   RMAX   =    2.356    core radius for proj-oper                               
   RAUG   =    1.300    factor for augmentation sphere                          
   RDEP   =    2.442    radius for radial grids                                 
   RDEPT  =    1.890    core radius for aug-charge                              
                                                                                
   Atomic configuration                                                         
    9 entries                                                                   
     n  l   j            E        occ.                                          
     1  0  0.50     -6993.8440   2.0000                                         
     2  0  0.50      -814.6047   2.0000                                         
     2  1  1.50      -693.3689   6.0000                                         
     3  0  0.50       -89.4732   2.0000                                         
     3  1  1.50       -55.6373   6.0000                                         
     3  2  2.50        -3.8151   7.0000                                         
     4  0  0.50        -4.2551   1.0000                                         
     4  1  1.50        -3.4015   0.0000                                         
     4  3  2.50        -1.3606   0.0000                                         
   Description                                                                  
     l       E           TYP  RCUT    TYP  RCUT                                 
     2     -3.8151135     23  2.300                                             
     2     -5.1756961     23  2.300                                             
     0     -4.2550963     23  2.300                                             
     0      7.2035603     23  2.300                                             
     1     -2.7211652     23  2.300                                             
     1     18.4316424     23  2.300                                             
  local pseudopotential read in
  partial core-charges read in
  partial kinetic energy density read in
  atomic valenz-charges read in
  non local Contribution for L=           2  read in
    real space projection operators read in
  non local Contribution for L=           2  read in
    real space projection operators read in
  non local Contribution for L=           0  read in
    real space projection operators read in
  non local Contribution for L=           0  read in
    real space projection operators read in
  non local Contribution for L=           1  read in
    real space projection operators read in
  non local Contribution for L=           1  read in
    real space projection operators read in
    PAW grid and wavefunctions read in
 
   number of l-projection  operators is LMAX  =           6
   number of lm-projection operators is LMMAX =          18
 
 POTCAR:    PAW_PBE V 08Apr2002                   
   VRHFIN =V: p6 d4 s1                                                          
   LEXCH  = PE                                                                  
   EATOM  =   170.8679 eV,   12.5584 Ry                                         
                                                                                
   TITEL  = PAW_PBE V 08Apr2002                                                 
   LULTRA =        F    use ultrasoft PP ?                                      
   IUNSCR =        1    unscreen: 0-lin 1-nonlin 2-no                           
   RPACOR =    2.000    partial core radius                                     
   POMASS =   50.941; ZVAL   =    5.000    mass and valenz                      
   RCORE  =    2.700    outmost cutoff radius                                   
   RWIGS  =    2.500; RWIGS  =    1.323    wigner-seitz radius (au A)           
   ENMAX  =  192.543; ENMIN  =  144.408 eV                                      
   RCLOC  =    1.779    cutoff for local pot                                    
   LCOR   =        T    correct aug charges                                     
   LPAW   =        T    paw PP                                                  
   EAUG   =  358.662                                                            
   DEXC   =    0.000                                                            
   RMAX   =    2.768    core radius for proj-oper                               
   RAUG   =    1.300    factor for augmentation sphere                          
   RDEP   =    2.762    radius for radial grids                                 
   RDEPT  =    2.240    core radius for aug-charge                              
                                                                                
   Atomic configuration                                                         
    9 entries                                                                   
     n  l   j            E        occ.                                          
     1  0  0.50     -5360.7193   2.0000                                         
     2  0  0.50      -598.4546   2.0000                                         
     2  1  1.50      -499.0155   6.0000                                         
     3  0  0.50       -66.5711   2.0000                                         
     3  1  1.50       -40.5282   6.0000                                         
     3  2  2.50        -2.4291   4.0000                                         
     4  0  0.50        -3.8743   1.0000                                         
     4  1  0.50        -2.7212   0.0000                                         
     4  3  2.50        -1.3606   0.0000                                         
   Description                                                                  
     l       E           TYP  RCUT    TYP  RCUT                                 
     2     -2.4290901     23  2.700                                             
     2     -3.7896727     23  2.700                                             
     0     -3.8742752     23  2.700                                             
     0     27.2116520     23  2.700                                             
     1     -2.7211652     23  2.700                                             
     1     27.2116520     23  2.700                                             
  local pseudopotential read in
  partial core-charges read in
  partial kinetic energy density read in
  atomic valenz-charges read in
  non local Contribution for L=           2  read in
    real space projection operators read in
  non local Contribution for L=           2  read in
    real space projection operators read in
  non local Contribution for L=           0  read in
    real space projection operators read in
  non local Contribution for L=           0  read in
    real space projection operators read in
  non local Contribution for L=           1  read in
    real space projection operators read in
  non local Contribution for L=           1  read in
    real space projection operators read in
    PAW grid and wavefunctions read in
 
   number of l-projection  operators is LMAX  =           6
   number of lm-projection operators is LMMAX =          18
 

 ----------------------------------------------------------------------------- 
|                                                                             |
|  ADVICE TO THIS USER RUNNING 'VASP/VAMP'   (HEAR YOUR MASTER'S VOICE ...):  |
|                                                                             |
|      You have a (more or less) 'large supercell' and for larger cells       |
|      it might be more efficient to use real space projection opertators     |
|      So try LREAL= Auto  in the INCAR   file.                               |
|      Mind:          For very  accurate calculation you might also keep the  |
|      reciprocal projection scheme          (i.e. LREAL=.FALSE.)             |
|                                                                             |
 ----------------------------------------------------------------------------- 

  PAW_PBE C 08Apr2002                   :
 energy of atom  1       EATOM= -147.1560
 kinetic energy error for atom=    0.0076 (will be added to EATOM!!)
  PAW_PBE N 08Apr2002                   :
 energy of atom  2       EATOM= -264.5486
 kinetic energy error for atom=    0.0138 (will be added to EATOM!!)
  PAW_PBE Fe 06Sep2000                  :
 energy of atom  3       EATOM= -594.3153
 kinetic energy error for atom=    0.0026 (will be added to EATOM!!)
  PAW_PBE V 08Apr2002                   :
 energy of atom  4       EATOM= -170.8679
 kinetic energy error for atom=    0.0003 (will be added to EATOM!!)
 
 
 POSCAR:  C  N Fe  V                             
  positions in cartesian coordinates
  No initial velocities read in
 exchange correlation table for  LEXCH =        8
   RHO(1)=    0.500       N(1)  =     2000
   RHO(2)=  100.500       N(2)  =     4000

 VTST: version 3.2, (02/03/18)

 CHAIN: initializing optimizer
 
 OPT: Using VASP Conjugate-Gradient optimizer
 CHAIN: Read ICHAIN            0
 
 POSCAR:  C  N Fe  V                             
  positions in cartesian coordinates
  No initial velocities read in
 


--------------------------------------------------------------------------------------------------------


 ion  position               nearest neighbor table
   1  0.226  0.003  0.498-  18 1.44   3 1.46   4 1.46
   2  0.057  0.100  0.502-   7 1.43   3 1.43  33 1.44
   3  0.114  0.001  0.500-   2 1.43  16 1.43   1 1.46
   4  0.282  0.106  0.498-   5 1.46   1 1.46  20 1.46
   5  0.222  0.206  0.498-  53 1.37   7 1.45   4 1.46
   6  0.052  0.299  0.506-  10 1.41  37 1.43   7 1.43
   7  0.111  0.201  0.502-   2 1.43   6 1.43   5 1.45
   8  0.210  0.399  0.496-  53 1.37  10 1.40  11 1.42
   9  0.049  0.501  0.506-  41 1.41  14 1.42  10 1.42
  10  0.103  0.400  0.504-   8 1.40   6 1.41   9 1.42
  11  0.264  0.499  0.488-  55 1.34   8 1.42  12 1.43
  12  0.212  0.600  0.493-  50 1.41  14 1.42  11 1.43
  13  0.053  0.701  0.503-  14 1.41  45 1.43  17 1.43
  14  0.104  0.600  0.502-  13 1.41  12 1.42   9 1.42
  15  0.223  0.798  0.494-  50 1.43  17 1.45  18 1.46
  16  0.058  0.901  0.501-  17 1.43   3 1.43  49 1.45
  17  0.112  0.800  0.499-  16 1.43  13 1.43  15 1.45
  18  0.279  0.901  0.496-   1 1.44  28 1.45  15 1.46
  19  0.557  0.998  0.500-  22 1.43  29 1.43  21 1.44
  20  0.394  0.105  0.498-  54 1.40  21 1.45   4 1.46
  21  0.446  0.001  0.499-  19 1.44  28 1.45  20 1.45
  22  0.614  0.098  0.502-  23 1.41  19 1.43  31 1.44
  23  0.559  0.197  0.501-  54 1.38  22 1.41  24 1.45
  24  0.614  0.299  0.503-  35 1.42  51 1.43  23 1.45
  25  0.610  0.499  0.503-  56 1.40  51 1.44  39 1.45
  26  0.614  0.696  0.502-  56 1.38  43 1.43  27 1.47
  27  0.556  0.798  0.499-  52 1.43  29 1.43  26 1.47
  28  0.391  0.900  0.497-  52 1.43  21 1.45  18 1.45
  29  0.613  0.899  0.500-  19 1.43  27 1.43  47 1.44
  30  0.891  0.999  0.503-  49 1.42  33 1.42  32 1.44
  31  0.724  0.098  0.503-  36 1.42  32 1.42  22 1.44
  32  0.780  0.999  0.503-  31 1.42  47 1.42  30 1.44
  33  0.946  0.099  0.504-  30 1.42  34 1.43   2 1.44
  34  0.889  0.198  0.506-  37 1.42  36 1.43  33 1.43
  35  0.723  0.298  0.506-  40 1.42  24 1.42  36 1.43
  36  0.779  0.198  0.506-  31 1.42  34 1.43  35 1.43
  37  0.942  0.299  0.508-  34 1.42   6 1.43  38 1.43
  38  0.887  0.399  0.509-  41 1.42  40 1.43  37 1.43
  39  0.721  0.499  0.507-  40 1.43  44 1.43  25 1.45
  40  0.777  0.399  0.508-  35 1.42  38 1.43  39 1.43
  41  0.941  0.500  0.509-   9 1.41  38 1.42  42 1.42
  42  0.887  0.600  0.508-  41 1.42  44 1.43  45 1.43
  43  0.723  0.699  0.504-  44 1.42  26 1.43  48 1.43
  44  0.777  0.599  0.507-  43 1.42  42 1.43  39 1.43
  45  0.943  0.701  0.505-  46 1.42  42 1.43  13 1.43
  46  0.889  0.801  0.504-  45 1.42  49 1.43  48 1.43
  47  0.723  0.899  0.502-  48 1.42  32 1.42  29 1.44
  48  0.779  0.800  0.503-  47 1.42  43 1.43  46 1.43
  49  0.946  0.900  0.502-  30 1.42  46 1.43  16 1.45
  50  0.273  0.695  0.486-  12 1.41  15 1.43  58 2.09
  51  0.555  0.397  0.500-  24 1.43  25 1.44  57 1.94
  52  0.447  0.800  0.496-  27 1.43  28 1.43  58 2.00
  53  0.268  0.306  0.493-   8 1.37   5 1.37  57 1.97
  54  0.453  0.201  0.498-  23 1.38  20 1.40  57 1.98
  55  0.365  0.498  0.473-  11 1.34  57 1.89  58 2.02
  56  0.560  0.600  0.500-  26 1.38  25 1.40  58 2.05
  57  0.412  0.356  0.490-  55 1.89  51 1.94  53 1.97  54 1.98
  58  0.423  0.649  0.460-  52 2.00  55 2.02  56 2.05  50 2.09
 
  LATTYP: Found a triclinic cell.
 ALAT       =    13.0046112862
 B/A-ratio  =     1.8226881455
 C/A-ratio  =     0.9460241760
 COS(alpha) =     0.0026470643
 COS(beta)  =     0.0041131665
 COS(gamma) =     0.5461049210
  
  Lattice vectors:
  
 A1 = (  13.0045935079,  -0.0110456208,  -0.0184497946)
 A2 = (  12.9726683629,  -0.0126533000,  19.8383103098)
 A3 = (   0.0401604572, -12.3026101899,   0.0048021150)


Analysis of symmetry for initial positions (statically):
=====================================================================
 Subroutine PRICEL returns:
 Original cell was already a primitive cell.
 

 Routine SETGRP: Setting up the symmetry group for a 
 triclinic supercell.


 Subroutine GETGRP returns: Found  1 space group operations
 (whereof  1 operations were pure point group operations)
 out of a pool of  2 trial point group operations.


The static configuration has the point symmetry C_1 .


Analysis of symmetry for dynamics (positions and initial velocities):
=====================================================================
 Subroutine PRICEL returns:
 Original cell was already a primitive cell.
 

 Routine SETGRP: Setting up the symmetry group for a 
 triclinic supercell.


 Subroutine GETGRP returns: Found  1 space group operations
 (whereof  1 operations were pure point group operations)
 out of a pool of  2 trial point group operations.


The dynamic configuration has the point symmetry C_1 .


Analysis of structural, dynamic, and magnetic symmetry:
=====================================================================
 Subroutine PRICEL returns:
 Original cell was already a primitive cell.
 

 Routine SETGRP: Setting up the symmetry group for a 
 triclinic supercell.


 Subroutine GETGRP returns: Found  1 space group operations
 (whereof  1 operations were pure point group operations)
 out of a pool of  2 trial point group operations.


The magnetic configuration has the point symmetry C_1 .


 Subroutine INISYM returns: Found  1 space group operations
 (whereof  1 operations are pure point group operations),
 and found     1 'primitive' translations

 
 
 KPOINTS: KPOINTS created by Atomic Simulation Env

Automatic generation of k-mesh.
Space group operators:
 irot       det(A)        alpha          n_x          n_y          n_z        tau_x        tau_y        tau_z
    1     1.000000     0.000000     1.000000     0.000000     0.000000     0.000000     0.000000     0.000000
 
 Subroutine IBZKPT returns following result:
 ===========================================
 
 Found      2 irreducible k-points:
 
 Following reciprocal coordinates:
            Coordinates               Weight
  0.250000  0.250000 -0.000000      2.000000
 -0.250000  0.250000  0.000000      2.000000
 
 Following cartesian coordinates:
            Coordinates               Weight
  0.019241  0.020384  0.000033      2.000000
 -0.019207  0.020258 -0.000029      2.000000
 
 
 Subroutine IBZKPT_HF returns following result:
 ==============================================
 
 Found      4 k-points in 1st BZ
 the following      4 k-points will be used (e.g. in the exchange kernel)
 Following reciprocal coordinates:   # in IRBZ
  0.250000  0.250000 -0.000000    0.25000000   1 t-inv F
 -0.250000  0.250000  0.000000    0.25000000   2 t-inv F
 -0.250000 -0.250000  0.000000    0.25000000   1 t-inv T
  0.250000 -0.250000 -0.000000    0.25000000   2 t-inv T


--------------------------------------------------------------------------------------------------------




 Dimension of arrays:
   k-points           NKPTS =      2   k-points in BZ     NKDIM =      4   number of bands    NBANDS=    154
   number of dos      NEDOS =    301   number of ions     NIONS =     58
   non local maximal  LDIM  =      6   non local SUM 2l+1 LMDIM =     18
   total plane-waves  NPLWV = ******
   max r-space proj   IRMAX =      1   max aug-charges    IRDMAX=  24936
   dimension x,y,z NGX =    96 NGY =   90 NGZ =  150
   dimension x,y,z NGXF=   192 NGYF=  180 NGZF=  300
   support grid    NGXF=   192 NGYF=  180 NGZF=  300
   ions per type =              52   4   1   1
   NGX,Y,Z   is equivalent  to a cutoff of  12.27, 12.16, 12.56 a.u.
   NGXF,Y,Z  is equivalent  to a cutoff of  24.54, 24.32, 25.12 a.u.

 SYSTEM =  unknown system                          
 POSCAR =   C  N Fe  V                             

 Startparameter for this run:
   NWRITE =      2    write-flag & timer
   PREC   = accura    normal or accurate (medium, high low for compatibility)
   ISTART =      1    job   : 0-new  1-cont  2-samecut
   ICHARG =      0    charge: 1-file 2-atom 10-const
   ISPIN  =      2    spin polarized calculation?
   LNONCOLLINEAR =      F non collinear calculations
   LSORBIT =      F    spin-orbit coupling
   INIWAV =      1    electr: 0-lowe 1-rand  2-diag
   LASPH  =      T    aspherical Exc in radial PAW
   METAGGA=      F    non-selfconsistent MetaGGA calc.

 Electronic Relaxation 1
   ENCUT  =  500.0 eV  36.75 Ry    6.06 a.u.  23.71 22.43 36.20*2*pi/ulx,y,z
   ENINI  =  500.0     initial cutoff
   ENAUG  =  644.9 eV  augmentation charge cutoff
   NELM   =    250;   NELMIN=  2; NELMDL=  0     # of ELM steps 
   EDIFF  = 0.1E-03   stopping-criterion for ELM
   LREAL  =      F    real-space projection
   NLSPLINE    = F    spline interpolate recip. space projectors
   LCOMPAT=      F    compatible to vasp.4.4
   GGA_COMPAT  = T    GGA compatible to vasp.4.4-vasp.4.6
   LMAXPAW     = -100 max onsite density
   LMAXMIX     =    2 max onsite mixed and CHGCAR
   VOSKOWN=      0    Vosko Wilk Nusair interpolation
   ROPT   =    0.00000   0.00000   0.00000   0.00000
 Ionic relaxation
   EDIFFG = -.3E-01   stopping-criterion for IOM
   NSW    =      0    number of steps for IOM
   NBLOCK =      1;   KBLOCK =      1    inner block; outer block 
   IBRION =     -1    ionic relax: 0-MD 1-quasi-New 2-CG
   NFREE  =      1    steps in history (QN), initial steepest desc. (CG)
   ISIF   =      2    stress and relaxation
   IWAVPR =     10    prediction:  0-non 1-charg 2-wave 3-comb
   ISYM   =      3    0-nonsym 1-usesym 2-fastsym
   LCORR  =      T    Harris-Foulkes like correction to forces

   POTIM  = 0.5000    time-step for ionic-motion
   TEIN   =    0.0    initial temperature
   TEBEG  =    0.0;   TEEND  =   0.0 temperature during run
   SMASS  =  -3.00    Nose mass-parameter (am)
   estimated Nose-frequenzy (Omega)   =  0.10E-29 period in steps =****** mass=  -0.386E-26a.u.
   SCALEE = 1.0000    scale energy and forces
   NPACO  =    256;   APACO  = 16.0  distance and # of slots for P.C.
   PSTRESS=    0.0 pullay stress

  Mass of Ions in am
   POMASS =  12.01 14.00 55.85 50.94
  Ionic Valenz
   ZVAL   =   4.00  5.00  8.00  5.00
  Atomic Wigner-Seitz radii
   RWIGS  =  -1.00 -1.00 -1.00 -1.00
  virtual crystal weights 
   VCA    =   1.00  1.00  1.00  1.00
   NELECT =     241.0000    total number of electrons
   NUPDOWN=      -1.0000    fix difference up-down

 DOS related values:
   EMIN   =  10.00;   EMAX   =-10.00  energy-range for DOS
   EFERMI =   0.00
   ISMEAR =     0;   SIGMA  =   0.10  broadening in eV -4-tet -1-fermi 0-gaus

 Electronic relaxation 2 (details)
   IALGO  =     53    algorithm
   LDIAG  =      T    sub-space diagonalisation (order eigenvalues)
   LSUBROT=      F    optimize rotation matrix (better conditioning)
   TURBO    =      0    0=normal 1=particle mesh
   IRESTART =      0    0=no restart 2=restart with 2 vectors
   NREBOOT  =      0    no. of reboots
   NMIN     =      0    reboot dimension
   EREF     =   0.00    reference energy to select bands
   IMIX   =      4    mixing-type and parameters
     AMIX     =   0.40;   BMIX     =  1.00
     AMIX_MAG =   1.60;   BMIX_MAG =  1.00
     AMIN     =   0.10
     WC   =   100.;   INIMIX=   1;  MIXPRE=   1;  MAXMIX= -45

 Intra band minimization:
   WEIMIN = 0.0000     energy-eigenvalue tresh-hold
   EBREAK =  0.16E-06  absolut break condition
   DEPER  =   0.30     relativ break condition  

   TIME   =   0.20     timestep for ELM

  volume/ion in A,a.u.               =      54.77       369.63
  Fermi-wavevector in a.u.,A,eV,Ry     =   0.693022  1.309622  6.534602  0.480280
  Thomas-Fermi vector in A             =   1.775119
 
 Write flags
   LWAVE        =      T    write WAVECAR
   LDOWNSAMPLE  =      F    k-point downsampling of WAVECAR
   LCHARG       =      T    write CHGCAR
   LVTOT        =      F    write LOCPOT, total local potential
   LVHAR        =      F    write LOCPOT, Hartree potential only
   LELF         =      F    write electronic localiz. function (ELF)
   LORBIT       =     11    0 simple, 1 ext, 2 COOP (PROOUT), +10 PAW based schemes


 Dipole corrections
   LMONO  =      F    monopole corrections only (constant potential shift)
   LDIPOL =      T    correct potential (dipole corrections)
   IDIPOL =      3    1-x, 2-y, 3-z, 4-all directions 
   EPSILON=  1.0000000 bulk dielectric constant

 Exchange correlation treatment:
   GGA     =    PE    GGA type
   LEXCH   =     8    internal setting for exchange type
   VOSKOWN=      0    Vosko Wilk Nusair interpolation
   EXXOEP  =     0    0=HF, 1=EXX-LHF (local Hartree Fock) 2=EXX OEP
   LHFCALC =     T    Hartree Fock is set to
   LSYMGRAD=     F    symmetrize gradient (conserves proper symmetry)
   PRECFOCK=normal    Normal, Fast or Accurate (Low or Medium for compatibility)
   LRHFCALC=     F    long range Hartree Fock
   LRSCOR  =     F    long range correlation only (use DFT for short range part)
   LTHOMAS =     F    Thomas Fermi screening in HF
   LMODELHF=     F    short range full HF, long range fraction AEXX
   ENCUT4O =  -1.0   cutoff for four orbital integrals eV
   LMAXFOCK=     4    L truncation for augmentation on plane wave grid
   LMAXFOCKAE=  -1    L truncation for all-electron charge restoration on plane wave grid
   NMAXFOCKAE=   1    number of basis functions for all-electron charge restoration
   LFOCKAEDFT=     F  apply the AE augmentation even for DFT
   NKREDX  =     1    reduce k-point grid by
   NKREDY  =     1    reduce k-point grid by
   NKREDZ  =     1    reduce k-point grid by
   SHIFTRED=     F    shift reduced grid of Gamma
   HFKIDENT=     F    idential grid for each k-point
   ODDONLY =     F    use only odd q-grid points
   EVENONLY=     F    use only even q-grid points
   HFALPHA =   -1.0000 decay constant for conv. correction
   MCALPHA =    0.0000 extent of test-charge in conv. correction in multipole expansion
   AEXX    =    0.2500 exact exchange contribution
   HFSCREEN=    0.2000 screening length (either q_TF or 0.3 A-1)
   HFSCREENC=   0.2000 screening length for correlation (either q_TF or 0.3 A-1)
   HFRCUT  =    0.0000 spherical cutoff for potential kernel
   ALDAX   =    0.7500 LDA exchange part
   AGGAX   =    0.7500 GGA exchange part
   ALDAC   =    1.0000 LDA correlation
   AGGAC   =    1.0000 GGA correlation
   ENCUTFOCK=  -1.0 apply spherical cutoff to Coloumb kernel
   NBANDSGWLOW=     1    first orbital included in HF term
   NBLOCK_FOCK=    64    blocking factor in FOCK_ACC
 Linear response parameters
   LEPSILON=     F    determine dielectric tensor
   LRPA    =     F    only Hartree local field effects (RPA)
   LNABLA  =     F    use nabla operator in PAW spheres
   LVEL    =     F    velocity operator in full k-point grid
   LINTERFAST=   F  fast interpolation
   KINTER  =     0    interpolate to denser k-point grid
   CSHIFT  =0.1000    complex shift for real part using Kramers Kronig
   OMEGAMAX=  -1.0    maximum frequency
   DEG_THRESHOLD= 0.2000000E-02 threshold for treating states as degnerate
   RTIME   =   -0.100 relaxation time in fs
  (WPLASMAI=    0.000 imaginary part of plasma frequency in eV, 0.658/RTIME)
   DFIELD  = 0.0000000 0.0000000 0.0000000 field for delta impulse in time
 
 Orbital magnetization related:
   ORBITALMAG=     F  switch on orbital magnetization
   LCHIMAG   =     F  perturbation theory with respect to B field
   DQ        =  0.001000  dq finite difference perturbation B field
   LLRAUG    =     F  two centre corrections for induced B field



--------------------------------------------------------------------------------------------------------


 Static calculation
 charge density and potential will be updated during run
 spin polarized calculation
 Conjugate gradient for all bands (Freysoldt, et al. PRB 79, 241103 (2009))
 perform sub-space diagonalisation
    before iterative eigenvector-optimisation
 modified Broyden-mixing scheme, WC =      100.0
 initial mixing is a Kerker type mixing with AMIX =  0.4000 and BMIX =      1.0000
 Hartree-type preconditioning will be used
 using additional bands           33
 reciprocal scheme for non local part
 use partial core corrections
 no Harris-corrections to forces 
 use gradient corrections 
 use of overlap-Matrix (Vanderbilt PP)
 Gauss-broadening in eV      SIGMA  =   0.10


--------------------------------------------------------------------------------------------------------


  energy-cutoff  :      500.00
  volume of cell :     3176.88
      direct lattice vectors                 reciprocal lattice vectors
    13.004593508 -0.011045621 -0.018449795     0.076896295  0.000251067  0.000123652
    -0.040160457 12.302610190 -0.004802115     0.000069049  0.081283792  0.000006692
    -0.031925145 -0.001607679 19.856760104     0.000071464  0.000019891  0.050360799

  length of vectors
    13.004611286 12.302676677 19.856785834     0.076896804  0.081283821  0.050360854


 
 old parameters found on file WAVECAR:
  energy-cutoff  :      500.00
  volume of cell :     3176.88
      direct lattice vectors                 reciprocal lattice vectors
    13.017500000  0.000000000  0.000000000     0.076819666  0.000185293 -0.000000996
    -0.029585874 12.265864319  0.000000000     0.000000000  0.081527072 -0.000025188
     0.000243080  0.006147065 19.896399049     0.000000000  0.000000000  0.050260351

  length of vectors

 
 k-points in units of 2pi/SCALE and weight: KPOINTS created by Atomic Simulation Env
   0.01924134  0.02038371  0.00003259       0.500
  -0.01920681  0.02025818 -0.00002924       0.500
 
 k-points in reciprocal lattice and weights: KPOINTS created by Atomic Simulation Env
   0.25000000  0.25000000 -0.00000000       0.500
  -0.25000000  0.25000000  0.00000000       0.500
 
 position of ions in fractional coordinates (direct lattice) 
   0.22613126  0.00281823  0.49798867
   0.05690466  0.09997600  0.50230098
   0.11391173  0.00118962  0.49990561
   0.28193684  0.10617815  0.49769459
   0.22170198  0.20576104  0.49797527
   0.05157421  0.29910534  0.50554337
   0.11061110  0.20126114  0.50231550
   0.21030364  0.39908467  0.49646381
   0.04942475  0.50052988  0.50642323
   0.10327123  0.40012002  0.50426158
   0.26444074  0.49874516  0.48763112
   0.21223624  0.60035041  0.49293883
   0.05276871  0.70138368  0.50266788
   0.10435379  0.60042037  0.50222102
   0.22300763  0.79800258  0.49371354
   0.05751666  0.90073572  0.50066167
   0.11165971  0.79997046  0.49907621
   0.27934481  0.90054732  0.49566502
   0.55710826  0.99829710  0.50004875
   0.39434762  0.10549161  0.49780430
   0.44640424  0.00141375  0.49879661
   0.61376662  0.09777767  0.50175928
   0.55918740  0.19662027  0.50085804
   0.61372177  0.29919553  0.50264882
   0.60972911  0.49895813  0.50320097
   0.61366942  0.69621515  0.50151692
   0.55619372  0.79842671  0.49911364
   0.39069220  0.89952114  0.49706977
   0.61291242  0.89859576  0.49998896
   0.89052351  0.99947189  0.50292228
   0.72416351  0.09832750  0.50328889
   0.77963258  0.99903820  0.50261205
   0.94590299  0.09947050  0.50387948
   0.88869782  0.19837155  0.50603544
   0.72315002  0.29807110  0.50607163
   0.77888129  0.19820996  0.50552269
   0.94198740  0.29903754  0.50767163
   0.88651792  0.39913740  0.50905121
   0.72093494  0.49891983  0.50707245
   0.77670059  0.39898218  0.50808818
   0.94087785  0.49980791  0.50886260
   0.88689159  0.60022858  0.50770473
   0.72330221  0.69930965  0.50379208
   0.77716943  0.59911801  0.50681455
   0.94265022  0.70069176  0.50523936
   0.88886880  0.80069527  0.50360122
   0.72335524  0.89948166  0.50154319
   0.77853317  0.80003302  0.50293313
   0.94630719  0.90020567  0.50237887
   0.27325014  0.69514778  0.48619547
   0.55531572  0.39710131  0.49981112
   0.44665225  0.79959715  0.49583867
   0.26808374  0.30606861  0.49338139
   0.45309116  0.20086477  0.49758470
   0.36525525  0.49823642  0.47304050
   0.55986581  0.59958484  0.50042100
   0.41232394  0.35560869  0.49021413
   0.42270124  0.64937866  0.46013340
 
 position of ions in cartesian coordinates  (Angst):
   2.92473351  0.03137323  9.88425597
   0.71997083  1.22852966  9.97254013
   1.46536841  0.01257357  9.92439842
   3.64632080  1.30235412  9.87689054
   2.85898277  2.52814849  9.88309696
   0.64254986  3.67839392 10.03606558
   1.41433312  2.47400801  9.97135118
   2.70303623  4.90666205  9.85236617
   0.60647965  6.15646388 10.05260920
   1.31083277  4.92056929 10.00917451
   3.40334678  6.13216236  9.67550019
   2.72019851  7.38274029  9.78136935
   0.64202001  8.62745898  9.97701384
   1.31693195  7.38477769  9.96767372
   2.85231356  9.81425764  9.79560475
   0.69582307 11.07996025  9.93613205
   1.40402893  9.83968897  9.90413496
   3.58077510 11.07520017  9.83282302
   7.18891025 12.27470259  9.91427569
   5.10820148  1.29266604  9.87699833
   5.78932481  0.01166005  9.89624178
   7.96183987  1.19533444  9.95152017
   7.24811852  2.41196071  9.93415684
   7.95313917  3.67329890  9.96821713
   7.89317611  6.13094360  9.97829557
   7.93655005  8.55767902  9.94383579
   7.18507373  9.81578661  9.89668408
   5.02879901 11.06134341  9.85866745
   7.91862670 11.04749957  9.91253757
  11.52470119 12.28546812  9.96517749
   9.39743563  1.20087698  9.97985386
  10.08263703 12.28135793  9.96106534
  12.28100264  1.21248862  9.98748460
  11.53303197  2.42985811 10.03087542
   9.37614501  3.65825128 10.03416959
  10.10493546  2.42908399 10.02272068
  12.22194628  3.66772131 10.06189823
  11.49652414  4.89982136 10.08983508
   9.33924067  6.12923782 10.05311901
  10.06843139  4.89912624 10.07273912
  12.19941594  6.13773126 10.08460349
  11.49335067  7.37376573 10.06212561
   9.36208302  8.59453472  9.98697556
  10.06653150  7.36131616 10.04647932
  12.21451302  8.60911316 10.01166033
  11.51114358  9.84001399  9.97964409
   9.35480547 11.05717606  9.94135769
  10.07632149  9.83308645  9.96841698
  12.25414915 11.06361922  9.95383464
   3.51006767  8.54833226  9.64588718
   7.18975089  4.87844529  9.91247721
   5.76058898  9.83140139  9.83366904
   3.45827698  3.76168841  9.79053996
   5.86831409  2.46535631  9.87109606
   4.71488480  6.12481343  9.38392019
   7.24077163  7.36947000  9.92353100
   5.33217361  4.36957259  9.72474945
   5.45628867  7.98364379  9.12584141
 


--------------------------------------------------------------------------------------------------------


 k-point  1 :   0.2500 0.2500-0.0000  plane waves:   80642
 k-point  2 :  -0.2500 0.2500 0.0000  plane waves:   80657

 maximum and minimum number of plane-waves per node :      2558     2490

 maximum number of plane-waves:     80657
 maximum index in each direction: 
   IXMAX=   23   IYMAX=   22   IZMAX=   36
   IXMIN=  -23   IYMIN=  -22   IZMIN=  -36


 parallel 3D FFT for wavefunctions:
    minimum data exchange during FFTs selected (reduces bandwidth)
 parallel 3D FFT for charge:
    minimum data exchange during FFTs selected (reduces bandwidth)


 FFT grid for exact exchange (Hartree Fock) 
  NGX = 72; NGY = 70; NGZ =112

 
 Radii for the augmentation spheres in the non-local exchange
 for species   1 augmentation radius   0.874 (default was   0.699)
       energy cutoff for augmentation   2000.0
 for species   2 augmentation radius   0.886 (default was   0.709)
       energy cutoff for augmentation   2000.0
 for species   3 augmentation radius   1.263 (default was   1.010)
       energy cutoff for augmentation   2000.0
 for species   4 augmentation radius   1.508 (default was   1.206)
       energy cutoff for augmentation   2000.0

 real space projection operators:
  total allocation   :       2731.95 KBytes
  max/ min on nodes  :        143.47         44.93

 Maximum index for augmentation-charges in exchange          216
  SETUP_FOCK is finished

 total amount of memory used by VASP MPI-rank0   162834. kBytes
=======================================================================

   base      :      30000. kBytes
   nonl-proj :       5337. kBytes
   fftplans  :      13453. kBytes
   grid      :      34560. kBytes
   one-center:         62. kBytes
   HF        :         23. kBytes
   nonlr-proj:       2761. kBytes
   wavefun   :      76638. kBytes
 
     INWAV:  cpu time    3.5291: real time    3.5298
 Broyden mixing: mesh for mixing (old mesh)
   NGX = 47   NGY = 45   NGZ = 73
  (NGX  =192   NGY  =180   NGZ  =300)
  gives a total of 154395 points

 charge density for first step will be calculated from the start-wavefunctions


--------------------------------------------------------------------------------------------------------


 Maximum index for augmentation-charges          373 (set IRDMAX)


--------------------------------------------------------------------------------------------------------


 initial charge from wavefunction
 First call to EWALD:  gamma=   0.121
 Maximum number of real-space cells 3x 3x 2
 Maximum number of reciprocal cells 2x 2x 4

    FEWALD:  cpu time    0.0033: real time    0.0032


--------------------------------------- Iteration      1(   1)  ---------------------------------------


    POTLOK:  cpu time    1.3107: real time    1.3163
    SETDIJ:  cpu time    2.1035: real time    2.1039
    TRIAL :  cpu time  518.7577: real time  518.8167
    CORREC:  cpu time    0.0022: real time    0.0025
    CHARGE:  cpu time    1.6314: real time    1.6315
    --------------------------------------------
      LOOP:  cpu time  523.8215: real time  523.8893

 eigenvalue-minimisations  :     0
 total energy-change (2. order) :-0.6074907E+03  (-0.5192927E+00)
 number of electron     241.0000019 magnetization       3.8865982
 augmentation part       11.6873723 magnetization       2.7653875

 DIPCOR: dipole corrections for dipol
 direction  3 min pos     1,
 dipolmoment          -0.000388     -0.000020      0.241408 electrons x Angstroem
 Tr[quadrupol]     -6393.707242

 energy correction for charged system         0.000000 eV
 dipol+quadrupol energy correction           -0.001667 eV
 added-field ion interaction          0.042433 eV  (added to PSCEN)


 Free energy of the ion-electron system (eV)
  ---------------------------------------------------
  alpha Z        PSCENC =        98.84858229
  Ewald energy   TEWEN  =     37646.37444819
  -Hartree energ DENC   =    -45736.64161590
  -exchange      EXHF   =       541.44968690
  -V(xc)+E(xc)   XCENC  =       576.66813547
  PAW double counting   =     25659.49183179   -25658.23657284
  entropy T*S    EENTRO =        -0.03723673
  eigenvalues    EBANDS =     -3098.42803976
  atomic energy  EATOM  =      9363.02833311
  ---------------------------------------------------
  free energy    TOTEN  =      -607.49065152 eV

  energy without entropy =     -607.45341479  energy(sigma->0) =     -607.47203316
  exchange ACFDT corr.  =        -0.11608300  see jH, gK, PRB 81, 115126


--------------------------------------------------------------------------------------------------------




--------------------------------------- Iteration      1(   2)  ---------------------------------------


    POTLOK:  cpu time    1.3271: real time    1.3272
    SETDIJ:  cpu time    2.0819: real time    2.0821
    TRIAL :  cpu time  520.5075: real time  520.5544
    CORREC:  cpu time    0.0022: real time    0.0025
    CHARGE:  cpu time    1.6389: real time    1.6390
    --------------------------------------------
      LOOP:  cpu time  525.5604: real time  525.6078

 eigenvalue-minimisations  :     0
 total energy-change (2. order) :-0.3956484E+00  (-0.4735300E+00)
 number of electron     241.0000019 magnetization       3.9513519
 augmentation part       11.6213065 magnetization       2.8338225

 DIPCOR: dipole corrections for dipol
 direction  3 min pos     1,
 dipolmoment          -0.000396     -0.000020      0.246002 electrons x Angstroem
 Tr[quadrupol]     -6393.562913

 energy correction for charged system         0.000000 eV
 dipol+quadrupol energy correction           -0.001731 eV
 added-field ion interaction          0.043241 eV  (added to PSCEN)


 Free energy of the ion-electron system (eV)
  ---------------------------------------------------
  alpha Z        PSCENC =        98.84932582
  Ewald energy   TEWEN  =     37646.37444819
  -Hartree energ DENC   =    -45725.33147179
  -exchange      EXHF   =       541.39898328
  -V(xc)+E(xc)   XCENC  =       576.33324921
  PAW double counting   =     25787.46045566   -25786.26105587
  entropy T*S    EENTRO =        -0.02999800
  eigenvalues    EBANDS =     -3109.70133079
  atomic energy  EATOM  =      9363.02833311
  ---------------------------------------------------
  free energy    TOTEN  =      -607.88629992 eV

  energy without entropy =     -607.85630192  energy(sigma->0) =     -607.87130092
  exchange ACFDT corr.  =        -0.06480792  see jH, gK, PRB 81, 115126


--------------------------------------------------------------------------------------------------------




--------------------------------------- Iteration      1(   3)  ---------------------------------------


    POTLOK:  cpu time    1.3282: real time    1.3283
    SETDIJ:  cpu time    2.0899: real time    2.0900
    TRIAL :  cpu time  518.8350: real time  518.8947
    CORREC:  cpu time    0.0022: real time    0.0025
    CHARGE:  cpu time    1.6337: real time    1.6338
    --------------------------------------------
      LOOP:  cpu time  523.8913: real time  523.9515

 eigenvalue-minimisations  :     0
 total energy-change (2. order) :-0.3431223E+00  (-0.2667716E+00)
 number of electron     241.0000019 magnetization       3.9669570
 augmentation part       11.6161045 magnetization       2.8776811

 DIPCOR: dipole corrections for dipol
 direction  3 min pos     1,
 dipolmoment          -0.000377     -0.000019      0.234262 electrons x Angstroem
 Tr[quadrupol]     -6393.360287

 energy correction for charged system         0.000000 eV
 dipol+quadrupol energy correction           -0.001570 eV
 added-field ion interaction          0.041177 eV  (added to PSCEN)


 Free energy of the ion-electron system (eV)
  ---------------------------------------------------
  alpha Z        PSCENC =        98.84742348
  Ewald energy   TEWEN  =     37646.37444819
  -Hartree energ DENC   =    -45705.44501455
  -exchange      EXHF   =       541.30803410
  -V(xc)+E(xc)   XCENC  =       575.89376712
  PAW double counting   =     25936.44618830   -25934.36342883
  entropy T*S    EENTRO =        -0.02246501
  eigenvalues    EBANDS =     -3130.28917514
  atomic energy  EATOM  =      9363.02833311
  ---------------------------------------------------
  free energy    TOTEN  =      -608.22942222 eV

  energy without entropy =     -608.20695720  energy(sigma->0) =     -608.21818971
  exchange ACFDT corr.  =        -0.04024787  see jH, gK, PRB 81, 115126


--------------------------------------------------------------------------------------------------------




--------------------------------------- Iteration      1(   4)  ---------------------------------------


    POTLOK:  cpu time    1.3306: real time    1.3306
    SETDIJ:  cpu time    2.0830: real time    2.0830
    TRIAL :  cpu time  516.8457: real time  516.9032
    CORREC:  cpu time    0.0022: real time    0.0025
    CHARGE:  cpu time    1.6349: real time    1.6349
    --------------------------------------------
      LOOP:  cpu time  521.8988: real time  521.9566

 eigenvalue-minimisations  :     0
 total energy-change (2. order) :-0.2041542E+00  (-0.1619260E+00)
 number of electron     241.0000019 magnetization       3.9751994
 augmentation part       11.6307149 magnetization       2.9095600

 DIPCOR: dipole corrections for dipol
 direction  3 min pos     1,
 dipolmoment          -0.000389     -0.000020      0.241929 electrons x Angstroem
 Tr[quadrupol]     -6393.305340

 energy correction for charged system         0.000000 eV
 dipol+quadrupol energy correction           -0.001674 eV
 added-field ion interaction          0.042525 eV  (added to PSCEN)


 Free energy of the ion-electron system (eV)
  ---------------------------------------------------
  alpha Z        PSCENC =        98.84866671
  Ewald energy   TEWEN  =     37646.37444819
  -Hartree energ DENC   =    -45699.06558107
  -exchange      EXHF   =       541.47020748
  -V(xc)+E(xc)   XCENC  =       575.73740587
  PAW double counting   =     26069.40795641   -26067.34335760
  entropy T*S    EENTRO =        -0.01707154
  eigenvalues    EBANDS =     -3136.86919048
  atomic energy  EATOM  =      9363.02833311
  ---------------------------------------------------
  free energy    TOTEN  =      -608.43357640 eV

  energy without entropy =     -608.41650486  energy(sigma->0) =     -608.42504063
  exchange ACFDT corr.  =        -0.02120613  see jH, gK, PRB 81, 115126


--------------------------------------------------------------------------------------------------------




--------------------------------------- Iteration      1(   5)  ---------------------------------------


    POTLOK:  cpu time    1.3270: real time    1.3270
    SETDIJ:  cpu time    2.1103: real time    2.1104
    TRIAL :  cpu time  516.5054: real time  516.5571
    CORREC:  cpu time    0.0021: real time    0.0024
    CHARGE:  cpu time    1.6377: real time    1.6377
    --------------------------------------------
      LOOP:  cpu time  521.5849: real time  521.6370

 eigenvalue-minimisations  :     0
 total energy-change (2. order) :-0.1264865E+00  (-0.9845637E-01)
 number of electron     241.0000019 magnetization       3.9855866
 augmentation part       11.6345973 magnetization       2.9342986

 DIPCOR: dipole corrections for dipol
 direction  3 min pos     1,
 dipolmoment          -0.000413     -0.000021      0.257002 electrons x Angstroem
 Tr[quadrupol]     -6393.351324

 energy correction for charged system         0.000000 eV
 dipol+quadrupol energy correction           -0.001889 eV
 added-field ion interaction          0.045174 eV  (added to PSCEN)


 Free energy of the ion-electron system (eV)
  ---------------------------------------------------
  alpha Z        PSCENC =        98.85110098
  Ewald energy   TEWEN  =     37646.37444819
  -Hartree energ DENC   =    -45701.34729203
  -exchange      EXHF   =       541.77774345
  -V(xc)+E(xc)   XCENC  =       575.80182021
  PAW double counting   =     26166.60458890   -26164.81918044
  entropy T*S    EENTRO =        -0.01352479
  eigenvalues    EBANDS =     -3134.81455375
  atomic energy  EATOM  =      9363.02833311
  ---------------------------------------------------
  free energy    TOTEN  =      -608.56006293 eV

  energy without entropy =     -608.54653814  energy(sigma->0) =     -608.55330053
  exchange ACFDT corr.  =        -0.01229078  see jH, gK, PRB 81, 115126


--------------------------------------------------------------------------------------------------------




--------------------------------------- Iteration      1(   6)  ---------------------------------------


    POTLOK:  cpu time    1.3260: real time    1.3262
    SETDIJ:  cpu time    2.0843: real time    2.0843
    TRIAL :  cpu time  516.5071: real time  516.5585
    CORREC:  cpu time    0.0022: real time    0.0025
    CHARGE:  cpu time    1.6259: real time    1.6260
    --------------------------------------------
      LOOP:  cpu time  521.5477: real time  521.5997

 eigenvalue-minimisations  :     0
 total energy-change (2. order) :-0.8094816E-01  (-0.6373973E-01)
 number of electron     241.0000019 magnetization       3.9929122
 augmentation part       11.6326519 magnetization       2.9523566

 DIPCOR: dipole corrections for dipol
 direction  3 min pos     1,
 dipolmoment          -0.000432     -0.000022      0.268454 electrons x Angstroem
 Tr[quadrupol]     -6393.420616

 energy correction for charged system         0.000000 eV
 dipol+quadrupol energy correction           -0.002061 eV
 added-field ion interaction          0.047187 eV  (added to PSCEN)


 Free energy of the ion-electron system (eV)
  ---------------------------------------------------
  alpha Z        PSCENC =        98.85294184
  Ewald energy   TEWEN  =     37646.37444819
  -Hartree energ DENC   =    -45705.47994820
  -exchange      EXHF   =       542.08909830
  -V(xc)+E(xc)   XCENC  =       575.93707567
  PAW double counting   =     26229.05934680   -26227.35342227
  entropy T*S    EENTRO =        -0.01105612
  eigenvalues    EBANDS =     -3131.13535973
  atomic energy  EATOM  =      9363.02833311
  ---------------------------------------------------
  free energy    TOTEN  =      -608.64101109 eV

  energy without entropy =     -608.62995497  energy(sigma->0) =     -608.63548303
  exchange ACFDT corr.  =        -0.00825657  see jH, gK, PRB 81, 115126


--------------------------------------------------------------------------------------------------------




--------------------------------------- Iteration      1(   7)  ---------------------------------------


    POTLOK:  cpu time    1.3253: real time    1.3253
    SETDIJ:  cpu time    2.0829: real time    2.0830
    TRIAL :  cpu time  515.8748: real time  515.9425
    CORREC:  cpu time    0.0022: real time    0.0024
    CHARGE:  cpu time    1.6242: real time    1.6242
    --------------------------------------------
      LOOP:  cpu time  520.9127: real time  520.9822

 eigenvalue-minimisations  :     0
 total energy-change (2. order) :-0.5322746E-01  (-0.4156784E-01)
 number of electron     241.0000019 magnetization       3.9963773
 augmentation part       11.6339782 magnetization       2.9659710

 DIPCOR: dipole corrections for dipol
 direction  3 min pos     1,
 dipolmoment          -0.000439     -0.000022      0.273248 electrons x Angstroem
 Tr[quadrupol]     -6393.476853

 energy correction for charged system         0.000000 eV
 dipol+quadrupol energy correction           -0.002136 eV
 added-field ion interaction          0.048030 eV  (added to PSCEN)


 Free energy of the ion-electron system (eV)
  ---------------------------------------------------
  alpha Z        PSCENC =        98.85371020
  Ewald energy   TEWEN  =     37646.37444819
  -Hartree energ DENC   =    -45708.94964663
  -exchange      EXHF   =       542.33930341
  -V(xc)+E(xc)   XCENC  =       576.06159617
  PAW double counting   =     26266.68984079   -26264.95989508
  entropy T*S    EENTRO =        -0.00928280
  eigenvalues    EBANDS =     -3128.12087258
  atomic energy  EATOM  =      9363.02833311
  ---------------------------------------------------
  free energy    TOTEN  =      -608.69423855 eV

  energy without entropy =     -608.68495575  energy(sigma->0) =     -608.68959715
  exchange ACFDT corr.  =        -0.00603205  see jH, gK, PRB 81, 115126


--------------------------------------------------------------------------------------------------------




--------------------------------------- Iteration      1(   8)  ---------------------------------------


    POTLOK:  cpu time    1.3268: real time    1.3269
    SETDIJ:  cpu time    2.1110: real time    2.1111
    TRIAL :  cpu time  515.8172: real time  515.8672
    CORREC:  cpu time    0.0022: real time    0.0025
    CHARGE:  cpu time    1.6200: real time    1.6201
    --------------------------------------------
      LOOP:  cpu time  520.8796: real time  520.9302

 eigenvalue-minimisations  :     0
 total energy-change (2. order) :-0.3565651E-01  (-0.2847695E-01)
 number of electron     241.0000019 magnetization       3.9978041
 augmentation part       11.6380805 magnetization       2.9771582

 DIPCOR: dipole corrections for dipol
 direction  3 min pos     1,
 dipolmoment          -0.000440     -0.000022      0.273414 electrons x Angstroem
 Tr[quadrupol]     -6393.512330

 energy correction for charged system         0.000000 eV
 dipol+quadrupol energy correction           -0.002138 eV
 added-field ion interaction          0.048059 eV  (added to PSCEN)


 Free energy of the ion-electron system (eV)
  ---------------------------------------------------
  alpha Z        PSCENC =        98.85373677
  Ewald energy   TEWEN  =     37646.37444819
  -Hartree energ DENC   =    -45711.35103589
  -exchange      EXHF   =       542.51728958
  -V(xc)+E(xc)   XCENC  =       576.15083946
  PAW double counting   =     26288.77122694   -26287.06545414
  entropy T*S    EENTRO =        -0.00802008
  eigenvalues    EBANDS =     -3125.99999629
  atomic energy  EATOM  =      9363.02833311
  ---------------------------------------------------
  free energy    TOTEN  =      -608.72989506 eV

  energy without entropy =     -608.72187498  energy(sigma->0) =     -608.72588502
  exchange ACFDT corr.  =        -0.00465827  see jH, gK, PRB 81, 115126


--------------------------------------------------------------------------------------------------------




--------------------------------------- Iteration      1(   9)  ---------------------------------------


    POTLOK:  cpu time    1.3236: real time    1.3237
    SETDIJ:  cpu time    2.0826: real time    2.0827
    TRIAL :  cpu time  515.4243: real time  515.4674
    CORREC:  cpu time    0.0022: real time    0.0024
    CHARGE:  cpu time    1.6209: real time    1.6210
    --------------------------------------------
      LOOP:  cpu time  520.4561: real time  520.4996

 eigenvalue-minimisations  :     0
 total energy-change (2. order) :-0.2476989E-01  (-0.1955120E-01)
 number of electron     241.0000019 magnetization       3.9985429
 augmentation part       11.6413320 magnetization       2.9869810

 DIPCOR: dipole corrections for dipol
 direction  3 min pos     1,
 dipolmoment          -0.000438     -0.000022      0.272332 electrons x Angstroem
 Tr[quadrupol]     -6393.530523

 energy correction for charged system         0.000000 eV
 dipol+quadrupol energy correction           -0.002121 eV
 added-field ion interaction          0.047869 eV  (added to PSCEN)


 Free energy of the ion-electron system (eV)
  ---------------------------------------------------
  alpha Z        PSCENC =        98.85356352
  Ewald energy   TEWEN  =     37646.37444819
  -Hartree energ DENC   =    -45712.69581969
  -exchange      EXHF   =       542.63372100
  -V(xc)+E(xc)   XCENC  =       576.20444959
  PAW double counting   =     26301.16893409   -26299.52862862
  entropy T*S    EENTRO =        -0.00713673
  eigenvalues    EBANDS =     -3124.78564605
  atomic energy  EATOM  =      9363.02833311
  ---------------------------------------------------
  free energy    TOTEN  =      -608.75466495 eV

  energy without entropy =     -608.74752822  energy(sigma->0) =     -608.75109659
  exchange ACFDT corr.  =        -0.00378444  see jH, gK, PRB 81, 115126


--------------------------------------------------------------------------------------------------------




--------------------------------------- Iteration      1(  10)  ---------------------------------------


    POTLOK:  cpu time    1.3212: real time    1.3214
    SETDIJ:  cpu time    2.0813: real time    2.0813
    TRIAL :  cpu time  515.4473: real time  515.4963
    CORREC:  cpu time    0.0019: real time    0.0019
    CHARGE:  cpu time    1.6327: real time    1.6328
    --------------------------------------------
      LOOP:  cpu time  520.4870: real time  520.5384

 eigenvalue-minimisations  :     0
 total energy-change (2. order) :-0.1724338E-01  (-0.1371712E-01)
 number of electron     241.0000019 magnetization       3.9990084
 augmentation part       11.6425733 magnetization       2.9956867

 DIPCOR: dipole corrections for dipol
 direction  3 min pos     1,
 dipolmoment          -0.000438     -0.000022      0.272337 electrons x Angstroem
 Tr[quadrupol]     -6393.538350

 energy correction for charged system         0.000000 eV
 dipol+quadrupol energy correction           -0.002121 eV
 added-field ion interaction          0.047869 eV  (added to PSCEN)


 Free energy of the ion-electron system (eV)
  ---------------------------------------------------
  alpha Z        PSCENC =        98.85356424
  Ewald energy   TEWEN  =     37646.37444819
  -Hartree energ DENC   =    -45713.22503708
  -exchange      EXHF   =       542.70779727
  -V(xc)+E(xc)   XCENC  =       576.23286654
  PAW double counting   =     26307.52365235   -26305.93480911
  entropy T*S    EENTRO =        -0.00651701
  eigenvalues    EBANDS =     -3124.32558711
  atomic energy  EATOM  =      9363.02833311
  ---------------------------------------------------
  free energy    TOTEN  =      -608.77190834 eV

  energy without entropy =     -608.76539132  energy(sigma->0) =     -608.76864983
  exchange ACFDT corr.  =        -0.00322284  see jH, gK, PRB 81, 115126


--------------------------------------------------------------------------------------------------------




--------------------------------------- Iteration      1(  11)  ---------------------------------------


    POTLOK:  cpu time    1.3209: real time    1.3210
    SETDIJ:  cpu time    2.0833: real time    2.0833
    TRIAL :  cpu time  515.8225: real time  515.8750
    CORREC:  cpu time    0.0021: real time    0.0024
    CHARGE:  cpu time    1.6277: real time    1.6279
    --------------------------------------------
      LOOP:  cpu time  520.8588: real time  520.9118

 eigenvalue-minimisations  :     0
 total energy-change (2. order) :-0.1226675E-01  (-0.9824326E-02)
 number of electron     241.0000019 magnetization       3.9992352
 augmentation part       11.6429802 magnetization       3.0032672

 DIPCOR: dipole corrections for dipol
 direction  3 min pos     1,
 dipolmoment          -0.000440     -0.000022      0.273790 electrons x Angstroem
 Tr[quadrupol]     -6393.542122

 energy correction for charged system         0.000000 eV
 dipol+quadrupol energy correction           -0.002144 eV
 added-field ion interaction          0.048125 eV  (added to PSCEN)


 Free energy of the ion-electron system (eV)
  ---------------------------------------------------
  alpha Z        PSCENC =        98.85379703
  Ewald energy   TEWEN  =     37646.37444819
  -Hartree energ DENC   =    -45713.34606582
  -exchange      EXHF   =       542.75826366
  -V(xc)+E(xc)   XCENC  =       576.24879427
  PAW double counting   =     26310.44454942   -26308.87648034
  entropy T*S    EENTRO =        -0.00607070
  eigenvalues    EBANDS =     -3124.26329759
  atomic energy  EATOM  =      9363.02833311
  ---------------------------------------------------
  free energy    TOTEN  =      -608.78417508 eV

  energy without entropy =     -608.77810438  energy(sigma->0) =     -608.78113973
  exchange ACFDT corr.  =        -0.00285164  see jH, gK, PRB 81, 115126


--------------------------------------------------------------------------------------------------------




--------------------------------------- Iteration      1(  12)  ---------------------------------------


    POTLOK:  cpu time    1.3205: real time    1.3205
    SETDIJ:  cpu time    2.0844: real time    2.0843
    TRIAL :  cpu time  514.9417: real time  514.9996
    CORREC:  cpu time    0.0022: real time    0.0025
    CHARGE:  cpu time    1.6205: real time    1.6207
    --------------------------------------------
      LOOP:  cpu time  519.9717: real time  520.0300

 eigenvalue-minimisations  :     0
 total energy-change (2. order) :-0.8863611E-02  (-0.7131280E-02)
 number of electron     241.0000019 magnetization       3.9992518
 augmentation part       11.6437323 magnetization       3.0097840

 DIPCOR: dipole corrections for dipol
 direction  3 min pos     1,
 dipolmoment          -0.000443     -0.000022      0.275695 electrons x Angstroem
 Tr[quadrupol]     -6393.545478

 energy correction for charged system         0.000000 eV
 dipol+quadrupol energy correction           -0.002174 eV
 added-field ion interaction          0.048460 eV  (added to PSCEN)


 Free energy of the ion-electron system (eV)
  ---------------------------------------------------
  alpha Z        PSCENC =        98.85410192
  Ewald energy   TEWEN  =     37646.37444819
  -Hartree energ DENC   =    -45713.41050834
  -exchange      EXHF   =       542.79760644
  -V(xc)+E(xc)   XCENC  =       576.26116484
  PAW double counting   =     26311.86925705   -26310.30996814
  entropy T*S    EENTRO =        -0.00573816
  eigenvalues    EBANDS =     -3124.25140305
  atomic energy  EATOM  =      9363.02833311
  ---------------------------------------------------
  free energy    TOTEN  =      -608.79303869 eV

  energy without entropy =     -608.78730053  energy(sigma->0) =     -608.79016961
  exchange ACFDT corr.  =        -0.00259512  see jH, gK, PRB 81, 115126


--------------------------------------------------------------------------------------------------------




--------------------------------------- Iteration      1(  13)  ---------------------------------------


    POTLOK:  cpu time    1.3165: real time    1.3165
    SETDIJ:  cpu time    2.0801: real time    2.0801
    TRIAL :  cpu time  515.4368: real time  515.4869
    CORREC:  cpu time    0.0020: real time    0.0023
    CHARGE:  cpu time    1.6385: real time    1.6386
    --------------------------------------------
      LOOP:  cpu time  520.4765: real time  520.5269

 eigenvalue-minimisations  :     0
 total energy-change (2. order) :-0.6495227E-02  (-0.5277073E-02)
 number of electron     241.0000019 magnetization       3.9991472
 augmentation part       11.6448570 magnetization       3.0153701

 DIPCOR: dipole corrections for dipol
 direction  3 min pos     1,
 dipolmoment          -0.000445     -0.000022      0.277025 electrons x Angstroem
 Tr[quadrupol]     -6393.549354

 energy correction for charged system         0.000000 eV
 dipol+quadrupol energy correction           -0.002195 eV
 added-field ion interaction          0.048694 eV  (added to PSCEN)


 Free energy of the ion-electron system (eV)
  ---------------------------------------------------
  alpha Z        PSCENC =        98.85431466
  Ewald energy   TEWEN  =     37646.37444819
  -Hartree energ DENC   =    -45713.56139741
  -exchange      EXHF   =       542.83124745
  -V(xc)+E(xc)   XCENC  =       576.27328015
  PAW double counting   =     26313.00682373   -26311.46210699
  entropy T*S    EENTRO =        -0.00548456
  eigenvalues    EBANDS =     -3124.13873865
  atomic energy  EATOM  =      9363.02833311
  ---------------------------------------------------
  free energy    TOTEN  =      -608.79953392 eV

  energy without entropy =     -608.79404936  energy(sigma->0) =     -608.79679164
  exchange ACFDT corr.  =        -0.00240982  see jH, gK, PRB 81, 115126


--------------------------------------------------------------------------------------------------------




--------------------------------------- Iteration      1(  14)  ---------------------------------------


    POTLOK:  cpu time    1.3161: real time    1.3161
    SETDIJ:  cpu time    2.1077: real time    2.1077
    TRIAL :  cpu time  518.2082: real time  518.2540
    CORREC:  cpu time    0.0021: real time    0.0023
    CHARGE:  cpu time    1.6208: real time    1.6208
    --------------------------------------------
      LOOP:  cpu time  523.2572: real time  523.3034

 eigenvalue-minimisations  :     0
 total energy-change (2. order) :-0.4844724E-02  (-0.3964933E-02)
 number of electron     241.0000019 magnetization       3.9990045
 augmentation part       11.6458700 magnetization       3.0201896

 DIPCOR: dipole corrections for dipol
 direction  3 min pos     1,
 dipolmoment          -0.000446     -0.000022      0.277574 electrons x Angstroem
 Tr[quadrupol]     -6393.553253

 energy correction for charged system         0.000000 eV
 dipol+quadrupol energy correction           -0.002204 eV
 added-field ion interaction          0.048790 eV  (added to PSCEN)


 Free energy of the ion-electron system (eV)
  ---------------------------------------------------
  alpha Z        PSCENC =        98.85440240
  Ewald energy   TEWEN  =     37646.37444819
  -Hartree energ DENC   =    -45713.76208611
  -exchange      EXHF   =       542.86018690
  -V(xc)+E(xc)   XCENC  =       576.28461240
  PAW double counting   =     26314.37130990   -26312.84641719
  entropy T*S    EENTRO =        -0.00528928
  eigenvalues    EBANDS =     -3123.96368368
  atomic energy  EATOM  =      9363.02833311
  ---------------------------------------------------
  free energy    TOTEN  =      -608.80437865 eV

  energy without entropy =     -608.79908937  energy(sigma->0) =     -608.80173401
  exchange ACFDT corr.  =        -0.00227197  see jH, gK, PRB 81, 115126


--------------------------------------------------------------------------------------------------------




--------------------------------------- Iteration      1(  15)  ---------------------------------------


    POTLOK:  cpu time    1.3104: real time    1.3106
    SETDIJ:  cpu time    2.0829: real time    2.0829
    TRIAL :  cpu time  517.4334: real time  517.4843
    CORREC:  cpu time    0.0020: real time    0.0023
    CHARGE:  cpu time    1.6278: real time    1.6278
    --------------------------------------------
      LOOP:  cpu time  522.4592: real time  522.5105

 eigenvalue-minimisations  :     0
 total energy-change (2. order) :-0.3667640E-02  (-0.3033167E-02)
 number of electron     241.0000019 magnetization       3.9988605
 augmentation part       11.6465088 magnetization       3.0243713

 DIPCOR: dipole corrections for dipol
 direction  3 min pos     1,
 dipolmoment          -0.000447     -0.000022      0.277754 electrons x Angstroem
 Tr[quadrupol]     -6393.556714

 energy correction for charged system         0.000000 eV
 dipol+quadrupol energy correction           -0.002207 eV
 added-field ion interaction          0.048822 eV  (added to PSCEN)


 Free energy of the ion-electron system (eV)
  ---------------------------------------------------
  alpha Z        PSCENC =        98.85443131
  Ewald energy   TEWEN  =     37646.37444819
  -Hartree energ DENC   =    -45713.94432990
  -exchange      EXHF   =       542.88456150
  -V(xc)+E(xc)   XCENC  =       576.29417125
  PAW double counting   =     26316.04363803   -26314.53598469
  entropy T*S    EENTRO =        -0.00513806
  eigenvalues    EBANDS =     -3123.80202580
  atomic energy  EATOM  =      9363.02833311
  ---------------------------------------------------
  free energy    TOTEN  =      -608.80804629 eV

  energy without entropy =     -608.80290823  energy(sigma->0) =     -608.80547726
  exchange ACFDT corr.  =        -0.00216788  see jH, gK, PRB 81, 115126


--------------------------------------------------------------------------------------------------------




--------------------------------------- Iteration      1(  16)  ---------------------------------------


    POTLOK:  cpu time    1.3102: real time    1.3103
    SETDIJ:  cpu time    2.0808: real time    2.0808
    TRIAL :  cpu time  517.0624: real time  517.1138
    CORREC:  cpu time    0.0021: real time    0.0024
    CHARGE:  cpu time    1.6232: real time    1.6233
    --------------------------------------------
      LOOP:  cpu time  522.0811: real time  522.1331

 eigenvalue-minimisations  :     0
 total energy-change (2. order) :-0.2826645E-02  (-0.2366801E-02)
 number of electron     241.0000019 magnetization       3.9987181
 augmentation part       11.6468668 magnetization       3.0280142

 DIPCOR: dipole corrections for dipol
 direction  3 min pos     1,
 dipolmoment          -0.000447     -0.000023      0.277984 electrons x Angstroem
 Tr[quadrupol]     -6393.559647

 energy correction for charged system         0.000000 eV
 dipol+quadrupol energy correction           -0.002210 eV
 added-field ion interaction          0.048862 eV  (added to PSCEN)


 Free energy of the ion-electron system (eV)
  ---------------------------------------------------
  alpha Z        PSCENC =        98.85446800
  Ewald energy   TEWEN  =     37646.37444819
  -Hartree energ DENC   =    -45714.08322096
  -exchange      EXHF   =       542.90495800
  -V(xc)+E(xc)   XCENC  =       576.30187250
  PAW double counting   =     26317.86302610   -26316.36645684
  entropy T*S    EENTRO =        -0.00501990
  eigenvalues    EBANDS =     -3123.68316298
  atomic energy  EATOM  =      9363.02833311
  ---------------------------------------------------
  free energy    TOTEN  =      -608.81087293 eV

  energy without entropy =     -608.80585303  energy(sigma->0) =     -608.80836298
  exchange ACFDT corr.  =        -0.00208844  see jH, gK, PRB 81, 115126


--------------------------------------------------------------------------------------------------------




--------------------------------------- Iteration      1(  17)  ---------------------------------------


    POTLOK:  cpu time    1.3109: real time    1.3111
    SETDIJ:  cpu time    2.0805: real time    2.0805
    TRIAL :  cpu time  517.4593: real time  517.5075
    CORREC:  cpu time    0.0022: real time    0.0024
    CHARGE:  cpu time    1.6270: real time    1.6271
    --------------------------------------------
      LOOP:  cpu time  522.4853: real time  522.5362

 eigenvalue-minimisations  :     0
 total energy-change (2. order) :-0.2220002E-02  (-0.1881357E-02)
 number of electron     241.0000019 magnetization       3.9985744
 augmentation part       11.6471350 magnetization       3.0312121

 DIPCOR: dipole corrections for dipol
 direction  3 min pos     1,
 dipolmoment          -0.000448     -0.000023      0.278342 electrons x Angstroem
 Tr[quadrupol]     -6393.562102

 energy correction for charged system         0.000000 eV
 dipol+quadrupol energy correction           -0.002216 eV
 added-field ion interaction          0.048925 eV  (added to PSCEN)


 Free energy of the ion-electron system (eV)
  ---------------------------------------------------
  alpha Z        PSCENC =        98.85452517
  Ewald energy   TEWEN  =     37646.37444819
  -Hartree energ DENC   =    -45714.18911976
  -exchange      EXHF   =       542.92217362
  -V(xc)+E(xc)   XCENC  =       576.30820373
  PAW double counting   =     26319.63018772   -26318.14060941
  entropy T*S    EENTRO =        -0.00492643
  eigenvalues    EBANDS =     -3123.59621540
  atomic energy  EATOM  =      9363.02833311
  ---------------------------------------------------
  free energy    TOTEN  =      -608.81309293 eV

  energy without entropy =     -608.80816651  energy(sigma->0) =     -608.81062972
  exchange ACFDT corr.  =        -0.00202702  see jH, gK, PRB 81, 115126


--------------------------------------------------------------------------------------------------------




--------------------------------------- Iteration      1(  18)  ---------------------------------------


    POTLOK:  cpu time    1.3077: real time    1.3077
    SETDIJ:  cpu time    2.1098: real time    2.1098
    TRIAL :  cpu time  517.3615: real time  517.4078
    CORREC:  cpu time    0.0021: real time    0.0021
    CHARGE:  cpu time    1.6212: real time    1.6215
    --------------------------------------------
      LOOP:  cpu time  522.4048: real time  522.4515

 eigenvalue-minimisations  :     0
 total energy-change (2. order) :-0.1775606E-02  (-0.1523680E-02)
 number of electron     241.0000019 magnetization       3.9984326
 augmentation part       11.6473852 magnetization       3.0340423

 DIPCOR: dipole corrections for dipol
 direction  3 min pos     1,
 dipolmoment          -0.000448     -0.000023      0.278689 electrons x Angstroem
 Tr[quadrupol]     -6393.564173

 energy correction for charged system         0.000000 eV
 dipol+quadrupol energy correction           -0.002222 eV
 added-field ion interaction          0.048986 eV  (added to PSCEN)


 Free energy of the ion-electron system (eV)
  ---------------------------------------------------
  alpha Z        PSCENC =        98.85458073
  Ewald energy   TEWEN  =     37646.37444819
  -Hartree energ DENC   =    -45714.27997087
  -exchange      EXHF   =       542.93689155
  -V(xc)+E(xc)   XCENC  =       576.31368226
  PAW double counting   =     26321.21914630   -26319.73567441
  entropy T*S    EENTRO =        -0.00485154
[...]
  augment    37.34210    37.75369    37.42534     0.90507     1.23394    -0.42001
  Kinetic  3586.96076  3564.82918  4036.14355    -0.33216     2.15806     4.53997
  Fock     -296.12244  -297.74749  -272.32640    -0.99835    -1.40727     1.18479
  -------------------------------------------------------------------------------------
  Total     -42.01040   -43.18108    -0.66222    -0.51186     0.33944     1.10644
  in kB     -21.18689   -21.77729    -0.33398    -0.25814     0.17119     0.55801
  external pressure =      -14.43 kB  Pullay stress =        0.00 kB


 VOLUME and BASIS-vectors are now :
 -----------------------------------------------------------------------------
  energy-cutoff  :      500.00
  volume of cell :     3176.88
      direct lattice vectors                 reciprocal lattice vectors
    13.004593508 -0.011045621 -0.018449795     0.076896295  0.000251067  0.000123652
    -0.040160457 12.302610190 -0.004802115     0.000069049  0.081283792  0.000006692
    -0.031925145 -0.001607679 19.856760104     0.000071464  0.000019891  0.050360799

  length of vectors
    13.004611286 12.302676677 19.856785834     0.076896804  0.081283821  0.050360854


 FORCES acting on ions:
    Electron-Ion                     Ewald-Force                    Non-Local-Force
 -----------------------------------------------------------------------------------------------
   -.307E+01 0.557E+01 0.177E+01   0.362E+01 -.600E+01 -.169E+01   -.430E+00 0.380E+00 -.899E-01
   0.377E+00 0.849E+01 -.785E+01   -.399E+00 -.898E+01 0.790E+01   -.134E-01 0.406E+00 -.482E-01
   -.126E+02 0.719E+01 0.115E+01   0.128E+02 -.743E+01 -.126E+01   -.229E+00 0.213E+00 0.117E+00
   -.955E+00 0.134E+02 0.330E+01   0.106E+01 -.137E+02 -.331E+01   -.897E-01 0.178E+00 0.742E-02
   0.581E+01 0.476E+02 -.604E-01   -.706E+01 -.509E+02 0.242E+00   0.120E+01 0.350E+01 -.182E+00
   0.847E+01 0.107E+02 -.254E+02   -.877E+01 -.108E+02 0.255E+02   0.326E+00 0.104E+00 -.498E-01
   0.425E-01 0.139E+02 -.122E+02   -.149E+00 -.142E+02 0.123E+02   0.161E+00 0.363E+00 -.718E-01
   0.210E+02 -.265E+02 -.588E+01   -.227E+02 0.296E+02 0.613E+01   0.144E+01 -.343E+01 -.217E+00
   -.891E+00 -.662E+01 -.350E+02   0.791E+00 0.729E+01 0.350E+02   -.962E-02 -.474E+00 -.490E-01
   0.125E+02 -.825E+01 -.308E+02   -.128E+02 0.872E+01 0.309E+02   0.466E+00 -.529E+00 -.162E+00
   0.223E+02 -.339E+02 0.263E+02   -.232E+02 0.350E+02 -.268E+02   0.177E+01 -.932E+00 0.180E+00
   -.153E+02 -.245E+02 0.778E+01   0.162E+02 0.263E+02 -.809E+01   -.925E+00 -.144E+01 0.248E+00
   -.392E+01 -.122E+02 -.155E+02   0.443E+01 0.124E+02 0.155E+02   -.415E+00 -.211E+00 0.466E-01
   -.503E+01 -.949E+01 -.240E+02   0.550E+01 0.956E+01 0.242E+02   -.571E+00 -.972E-01 -.155E+00
   -.245E+02 0.334E+00 0.158E+02   0.254E+02 -.162E+01 -.156E+02   -.106E+01 0.115E+01 -.254E+00
   -.437E+01 -.416E+00 -.307E+01   0.471E+01 0.147E+00 0.313E+01   -.315E+00 0.264E+00 -.635E-01
   -.154E+02 -.233E+01 -.860E+00   0.163E+02 0.227E+01 0.878E+00   -.938E+00 0.432E-01 -.502E-02
   -.711E+01 0.170E+02 0.958E+01   0.726E+01 -.179E+02 -.993E+01   -.197E+00 0.853E+00 0.315E+00
   0.749E+01 0.146E+02 -.266E+01   -.761E+01 -.150E+02 0.259E+01   0.116E+00 0.353E+00 0.654E-01
   0.277E+02 0.293E+02 0.220E+01   -.296E+02 -.321E+02 -.216E+01   0.196E+01 0.285E+01 -.206E-01
   0.109E+02 0.171E+02 -.456E+01   -.115E+02 -.180E+02 0.468E+01   0.570E+00 0.821E+00 -.124E+00
   -.877E+01 0.114E+02 -.832E+01   0.909E+01 -.114E+02 0.840E+01   -.278E+00 0.149E+00 -.105E+00
   -.307E+02 0.106E+01 -.929E+01   0.341E+02 -.503E+00 0.948E+01   -.361E+01 -.681E+00 -.235E+00
   -.580E+01 -.889E+01 -.137E+02   0.516E+01 0.109E+02 0.137E+02   0.722E+00 -.173E+01 -.679E-01
   0.182E+02 0.155E+02 -.241E+02   -.174E+02 -.204E+02 0.243E+02   -.651E+00 0.480E+01 -.204E+00
   0.104E+02 -.288E+02 -.168E+02   -.868E+01 0.315E+02 0.176E+02   -.165E+01 -.322E+01 -.721E+00
   0.173E+02 0.117E+02 -.782E+01   -.194E+02 -.102E+02 0.876E+01   0.170E+01 -.971E+00 -.910E+00
   0.851E+01 0.236E+02 -.258E+01   -.843E+01 -.248E+02 0.257E+01   0.911E-01 0.118E+01 -.749E-01
   0.542E+01 0.784E+01 0.232E+00   -.548E+01 -.822E+01 -.142E+00   0.656E-01 0.382E+00 -.232E-01
   0.195E+01 0.289E+01 -.494E+01   -.181E+01 -.294E+01 0.497E+01   -.862E-01 0.674E-01 -.122E-01
   0.217E+01 0.463E+01 -.789E+01   -.198E+01 -.444E+01 0.787E+01   -.173E+00 -.140E+00 0.321E-01
   -.460E+01 0.390E+01 -.423E+01   0.456E+01 -.392E+01 0.427E+01   0.215E-02 -.453E-01 -.318E-01
   -.631E+01 0.308E+01 -.956E+01   0.635E+01 -.318E+01 0.956E+01   -.254E-01 0.332E-01 0.160E-02
   0.110E+01 0.621E+01 -.175E+02   -.127E+01 -.624E+01 0.175E+02   0.164E+00 0.988E-01 -.697E-02
   0.251E+00 -.286E+00 -.216E+02   -.812E+00 0.173E+00 0.217E+02   0.517E+00 0.122E+00 -.509E-01
   -.179E+01 -.482E+00 -.164E+02   0.167E+01 0.529E+00 0.165E+02   0.139E+00 -.101E+00 -.349E-01
   0.227E+01 -.719E-01 -.273E+02   -.268E+01 0.679E-01 0.273E+02   0.339E+00 -.213E-01 -.532E-01
   0.351E+01 0.573E+00 -.319E+02   -.365E+01 -.586E+00 0.319E+02   0.114E+00 0.869E-02 -.136E-01
   0.712E+01 0.654E+00 -.296E+02   -.751E+01 -.108E+01 0.296E+02   0.400E+00 0.447E+00 -.881E-01
   0.319E+01 -.427E+01 -.284E+02   -.333E+01 0.403E+01 0.284E+02   0.152E+00 0.203E+00 0.155E-01
   0.531E+01 -.311E+01 -.353E+02   -.510E+01 0.309E+01 0.354E+02   -.125E+00 0.220E-01 -.820E-01
   0.162E+01 -.537E+01 -.277E+02   -.124E+01 0.540E+01 0.277E+02   -.263E+00 0.185E-01 -.247E-01
   0.292E+01 -.758E+01 -.124E+02   -.234E+01 0.793E+01 0.124E+02   -.517E+00 -.324E+00 0.316E-01
   0.843E+00 0.270E+00 -.246E+02   -.707E+00 -.575E+00 0.246E+02   -.221E+00 0.270E+00 -.389E-01
   -.307E+01 -.192E+01 -.192E+02   0.321E+01 0.194E+01 0.192E+02   -.194E+00 -.866E-01 -.360E-01
   0.991E+00 -.459E+01 -.893E+01   -.935E+00 0.477E+01 0.893E+01   -.101E+00 -.135E+00 -.291E-02
   0.659E+01 0.216E+01 -.478E+00   -.672E+01 -.197E+01 0.464E+00   0.172E+00 -.104E+00 0.339E-01
   0.669E+00 0.660E+00 -.592E+01   -.459E+00 -.274E+00 0.594E+01   -.157E+00 -.371E+00 -.383E-02
   -.845E+01 0.217E+01 -.461E+01   0.869E+01 -.220E+01 0.462E+01   -.259E+00 0.116E-01 -.377E-02
   -.786E+02 -.183E+02 0.511E+02   0.871E+02 0.178E+02 -.530E+02   -.874E+01 0.365E+00 0.195E+01
   0.286E+02 -.336E+02 -.796E+01   -.378E+02 0.331E+02 0.703E+01   0.916E+01 0.451E+00 0.975E+00
   0.474E+02 0.551E+02 -.895E+01   -.528E+02 -.626E+02 0.874E+01   0.576E+01 0.758E+01 0.294E+00
   -.386E+02 0.293E+02 0.312E+02   0.597E+02 -.281E+02 -.344E+02   -.200E+02 -.973E+00 0.307E+01
   0.348E+02 -.154E+02 0.303E+01   -.444E+02 0.332E+02 -.378E+01   0.912E+01 -.170E+02 0.792E+00
   -.101E+03 -.734E+02 0.169E+03   0.120E+03 0.755E+02 -.175E+03   -.191E+02 -.220E+01 0.604E+01
   0.103E+03 0.105E+02 -.313E+02   -.124E+03 -.125E+02 0.326E+02   0.206E+02 0.207E+01 -.119E+01
   -.430E+02 -.188E+02 0.551E+02   0.456E+02 0.214E+02 -.554E+02   -.282E+01 -.294E+01 0.137E+00
   -.320E+01 -.208E+02 0.258E+03   -.108E+01 0.199E+02 -.250E+03   0.379E+01 0.341E+00 -.797E+01
 -----------------------------------------------------------------------------------------------
   0.340E+01 0.866E+01 -.124E+01   0.495E-13 0.426E-13 -.284E-13   -.303E+01 -.802E+01 0.885E+00
 
 
 POSITION                                       TOTAL-FORCE (eV/Angst)
 -----------------------------------------------------------------------------------
      2.92473      0.03137      9.88426         0.101678     -0.037903     -0.014129
      0.71997      1.22853      9.97254        -0.029403     -0.059671     -0.004492
      1.46537      0.01257      9.92440        -0.126189     -0.011258      0.011422
      3.64632      1.30235      9.87689         0.004147     -0.125525     -0.001571
      2.85898      2.52815      9.88310         0.008916      0.353030     -0.012227
      0.64255      3.67839     10.03607         0.055030      0.051364     -0.035139
      1.41433      2.47401      9.97135         0.056808      0.034169     -0.025073
      2.70304      4.90666      9.85237        -0.139017     -0.543559      0.024558
      0.60648      6.15646     10.05261        -0.115146      0.170893     -0.047698
      1.31083      4.92057     10.00917         0.201776     -0.097677     -0.077577
      3.40335      6.13216      9.67550         1.015278      0.144107     -0.377917
      2.72020      7.38274      9.78137        -0.047036      0.359646     -0.057598
      0.64202      8.62746      9.97701         0.074561     -0.037618     -0.020147
      1.31693      7.38478      9.96767        -0.121397     -0.025672     -0.014516
      2.85231      9.81426      9.79560        -0.147376     -0.092175     -0.022348
      0.69582     11.07996      9.93613         0.008087      0.005032     -0.001206
      1.40403      9.83969      9.90413        -0.024467     -0.013840      0.013328
      3.58078     11.07520      9.83282        -0.053627      0.008496     -0.010744
      7.18891     12.27470      9.91428         0.006022     -0.044703     -0.000938
      5.10820      1.29267      9.87700         0.238414      0.269195      0.022475
      5.78932      0.01166      9.89624        -0.001627     -0.050610     -0.004199
      7.96184      1.19533      9.95152         0.011624      0.112915     -0.024678
      7.24812      2.41196      9.93416        -0.349719     -0.163382     -0.061555
      7.95314      3.67330      9.96822         0.117773      0.216270     -0.028530
      7.89318      6.13094      9.97830         0.092435      0.141824     -0.060363
      7.93655      8.55768      9.94384        -0.080426     -0.692335     -0.014839
      7.18507      9.81579      9.89668        -0.297082      0.482676     -0.016362
      5.02880     11.06134      9.85867         0.173814      0.060841     -0.094277
      7.91863     11.04750      9.91254         0.002977      0.019171      0.065651
     11.52470     12.28547      9.96518         0.059419      0.020371      0.010345
      9.39744      1.20088      9.97985         0.015893      0.045477      0.011040
     10.08264     12.28136      9.96107        -0.048766     -0.058067      0.005002
     12.28100      1.21249      9.98748         0.012030     -0.069472     -0.000161
     11.53303      2.42986     10.03088         0.000562      0.077807     -0.003015
      9.37615      3.65825     10.03417        -0.020357      0.018786     -0.028956
     10.10494      2.42908     10.02272         0.024716     -0.063407     -0.004740
     12.22195      3.66772     10.06190        -0.048479     -0.032978     -0.021612
     11.49652      4.89982     10.08984        -0.018951     -0.000311     -0.021522
      9.33924      6.12924     10.05312         0.033712      0.049167     -0.040089
     10.06843      4.89913     10.07274         0.012426     -0.029330     -0.015184
     12.19942      6.13773     10.08460         0.085229      0.009434     -0.036970
     11.49335      7.37377     10.06213         0.095656      0.050605     -0.023487
      9.36208      8.59453      9.98698         0.036225      0.006664      0.044497
     10.06653      7.36132     10.04648        -0.099900     -0.017332     -0.023653
     12.21451      8.60911     10.01166        -0.070319     -0.073918     -0.020908
     11.51114      9.84001      9.97964        -0.044772      0.035304     -0.002712
      9.35481     11.05718      9.94136         0.056862      0.081948      0.022605
     10.07632      9.83309      9.96842         0.040971     -0.000948      0.017703
     12.25415     11.06362      9.95383        -0.043536     -0.006831      0.008746
      3.51007      8.54833      9.64589        -0.697332     -0.124945      0.117470
      7.18975      4.87845      9.91248         0.389536     -0.043648      0.090915
      5.76059      9.83140      9.83367         0.696675      0.421049      0.094807
      3.45828      3.76169      9.79054        -0.674500      0.156592      0.127960
      5.86831      2.46536      9.87110         0.360762     -0.594785      0.111051
      4.71488      6.12481      9.38392        -1.178687     -0.361401      0.444441
      7.24077      7.36947      9.92353         0.959706      0.307105      0.018551
      5.33217      4.36957      9.72475        -0.054023     -0.114728     -0.134380
      5.45629      7.98364      9.12584        -0.517583     -0.121914      0.142941
 -----------------------------------------------------------------------------------
    total drift:                               -0.000506      0.001698      0.003179


--------------------------------------------------------------------------------------------------------



  FREE ENERGIE OF THE ION-ELECTRON SYSTEM (eV)
  ---------------------------------------------------
  free  energy   TOTEN  =      -608.82750090 eV

  energy  without entropy=     -608.82327398  energy(sigma->0) =     -608.82538744
 


--------------------------------------------------------------------------------------------------------


    POTLOK:  cpu time    3.3844: real time    3.3846


--------------------------------------------------------------------------------------------------------


 stress matrix after NEB project (eV)
    -42.01040     -0.51129      1.10644
     -0.51186    -43.18108      0.34148
      1.10494      0.33944     -0.66222
  FORCES: max atom, RMS     1.310512    0.388505
  FORCE total and by dimension    2.958769    1.178687
  Stress total and by dimension   60.275353   43.181077
 writing wavefunctions
     LOOP+:  cpu time27232.2114: real time27236.1074
    4ORBIT:  cpu time    0.0000: real time    0.0000
 


 total charge     
 
# of ion       s       p       d       tot
------------------------------------------
    1        0.855   1.711   0.000   2.566
    2        0.864   1.760   0.000   2.624
    3        0.860   1.744   0.000   2.605
    4        0.845   1.729   0.000   2.574
    5        0.854   1.704   0.000   2.558
    6        0.871   1.773   0.000   2.644
    7        0.863   1.761   0.000   2.624
    8        0.875   1.779   0.000   2.653
    9        0.869   1.795   0.000   2.663
   10        0.876   1.807   0.000   2.683
   11        0.884   1.760   0.000   2.644
   12        0.880   1.785   0.000   2.665
   13        0.867   1.772   0.000   2.640
   14        0.874   1.789   0.000   2.663
   15        0.858   1.720   0.000   2.578
   16        0.862   1.750   0.000   2.613
   17        0.863   1.748   0.000   2.611
   18        0.858   1.731   0.000   2.589
   19        0.867   1.754   0.000   2.621
   20        0.848   1.683   0.000   2.531
   21        0.860   1.736   0.000   2.597
   22        0.868   1.786   0.000   2.654
   23        0.868   1.733   0.000   2.601
   24        0.870   1.758   0.000   2.628
   25        0.854   1.691   0.000   2.544
   26        0.863   1.711   0.000   2.574
   27        0.864   1.741   0.000   2.605
   28        0.860   1.729   0.000   2.589
   29        0.864   1.763   0.000   2.627
   30        0.866   1.765   0.000   2.632
   31        0.867   1.776   0.000   2.643
   32        0.866   1.765   0.000   2.632
   33        0.864   1.763   0.000   2.627
   34        0.869   1.772   0.000   2.641
   35        0.870   1.772   0.000   2.642
   36        0.867   1.779   0.000   2.646
   37        0.867   1.781   0.000   2.649
   38        0.867   1.771   0.000   2.638
   39        0.864   1.758   0.000   2.622
   40        0.867   1.773   0.000   2.640
   41        0.871   1.782   0.000   2.654
   42        0.866   1.777   0.000   2.643
   43        0.867   1.783   0.000   2.650
   44        0.870   1.762   0.000   2.633
   45        0.869   1.764   0.000   2.633
   46        0.866   1.771   0.000   2.637
   47        0.867   1.771   0.000   2.637
   48        0.865   1.768   0.000   2.633
   49        0.863   1.758   0.000   2.622
   50        0.875   1.650   0.000   2.525
   51        0.869   1.662   0.000   2.531
   52        0.875   1.670   0.000   2.546
   53        1.237   2.669   0.000   3.906
   54        1.229   2.650   0.000   3.879
   55        1.255   2.570   0.000   3.825
   56        1.237   2.652   0.000   3.889
   57        0.473   0.611   6.182   7.267
   58        0.499   0.667   3.461   4.626
--------------------------------------------------
tot         50.954 102.918   9.643 163.515
 


 magnetization (x)
 
# of ion       s       p       d       tot
------------------------------------------
    1        0.001   0.006   0.000   0.007
    2        0.000   0.002   0.000   0.002
    3       -0.000  -0.005   0.000  -0.005
    4       -0.001  -0.009   0.000  -0.010
    5        0.000   0.003   0.000   0.004
    6       -0.000  -0.005   0.000  -0.005
    7       -0.000  -0.005   0.000  -0.006
    8       -0.001  -0.013   0.000  -0.014
    9       -0.000  -0.001   0.000  -0.001
   10        0.000   0.000   0.000   0.000
   11        0.002  -0.005   0.000  -0.003
   12        0.001   0.013   0.000   0.014
   13        0.000   0.004   0.000   0.004
   14       -0.001  -0.004   0.000  -0.004
   15        0.001   0.011   0.000   0.012
   16        0.000   0.003   0.000   0.004
   17       -0.001  -0.005   0.000  -0.006
   18       -0.002  -0.025   0.000  -0.026
   19        0.000   0.006   0.000   0.006
   20        0.000   0.006   0.000   0.006
   21       -0.001  -0.006   0.000  -0.007
   22       -0.000  -0.002   0.000  -0.002
   23       -0.000  -0.003   0.000  -0.003
   24        0.001   0.007   0.000   0.008
   25        0.002   0.021   0.000   0.023
   26        0.000  -0.008   0.000  -0.007
   27        0.002   0.008   0.000   0.009
   28        0.002   0.016   0.000   0.018
   29       -0.000  -0.004   0.000  -0.004
   30       -0.000   0.000   0.000   0.000
   31       -0.000  -0.003   0.000  -0.003
   32        0.000   0.000   0.000   0.001
   33       -0.000  -0.001   0.000  -0.001
   34        0.000   0.001   0.000   0.001
   35       -0.001  -0.006   0.000  -0.007
   36        0.000   0.000   0.000   0.001
   37        0.000  -0.000   0.000   0.000
   38       -0.000  -0.006   0.000  -0.006
   39       -0.001  -0.005   0.000  -0.006
   40        0.000   0.005   0.000   0.005
   41        0.000   0.003   0.000   0.003
   42       -0.000   0.001   0.000   0.001
   43        0.000   0.002   0.000   0.003
   44        0.000   0.003   0.000   0.003
   45       -0.000  -0.002   0.000  -0.003
   46        0.000   0.001   0.000   0.001
   47       -0.000  -0.001   0.000  -0.001
   48       -0.000  -0.005   0.000  -0.005
   49       -0.000  -0.000   0.000  -0.000
   50       -0.015  -0.074   0.000  -0.088
   51       -0.013  -0.064   0.000  -0.077
   52       -0.014  -0.072   0.000  -0.086
   53       -0.003  -0.023   0.000  -0.026
   54       -0.004  -0.028   0.000  -0.032
   55       -0.009  -0.071   0.000  -0.080
   56       -0.005  -0.029   0.000  -0.033
   57        0.041   0.013   2.293   2.347
   58        0.049  -0.001   1.913   1.961
--------------------------------------------------
tot          0.031  -0.352   4.206   3.884
 

 total amount of memory used by VASP MPI-rank0   186099. kBytes
=======================================================================

   base      :      30000. kBytes
   nonl-proj :       5337. kBytes
   fftplans  :      13453. kBytes
   grid      :      34560. kBytes
   one-center:         62. kBytes
   HF        :         23. kBytes
   nonlr-proj:      26026. kBytes
   wavefun   :      76638. kBytes
 
  
  
 General timing and accounting informations for this job:
 ========================================================
  
                  Total CPU time used (sec):    27321.998
                            User time (sec):    27279.049
                          System time (sec):       42.949
                         Elapsed time (sec):    27329.425
  
                   Maximum memory used (kb):      416316.
                   Average memory used (kb):           0.
  
                          Minor page faults:       273507
                          Major page faults:            3
                 Voluntary context switches:         1365
