 vasp.5.4.4.18Apr17-6-g9f103f2a35 (build Feb 25 2019 10:51:38) complex          
  
 executed on             LinuxIFC date 2021.06.16  10:19:53
 running on   48 total cores
 distrk:  each k-point on   24 cores,    2 groups
 distr:  one band on NCORES_PER_BAND=  24 cores,    1 groups


--------------------------------------------------------------------------------------------------------


 INCAR:
 POTCAR:    PAW_PBE C 08Apr2002                   
 POTCAR:    PAW_PBE N 08Apr2002                   
 POTCAR:    PAW_PBE Fe 06Sep2000                  
 POTCAR:    PAW_PBE V 08Apr2002                   

 ----------------------------------------------------------------------------- 
|                                                                             |
|           W    W    AA    RRRRR   N    N  II  N    N   GGGG   !!!           |
|           W    W   A  A   R    R  NN   N  II  NN   N  G    G  !!!           |
|           W    W  A    A  R    R  N N  N  II  N N  N  G       !!!           |
|           W WW W  AAAAAA  RRRRR   N  N N  II  N  N N  G  GGG   !            |
|           WW  WW  A    A  R   R   N   NN  II  N   NN  G    G                |
|           W    W  A    A  R    R  N    N  II  N    N   GGGG   !!!           |
|                                                                             |
|      For optimal performance we recommend to set                            |
|        NCORE= 4 - approx SQRT( number of cores)                             |
|      NCORE specifies how many cores store one orbital (NPAR=cpu/NCORE).     |
|      This setting can  greatly improve the performance of VASP for DFT.     |
|      The default,   NCORE=1            might be grossly inefficient         |
|      on modern multi-core architectures or massively parallel machines.     |
|      Do your own testing !!!!                                               |
|      Unfortunately you need to use the default for GW and RPA calculations. |
|      (for HF NCORE is supported but not extensively tested yet)             |
|                                                                             |
 ----------------------------------------------------------------------------- 


 ----------------------------------------------------------------------------- 
|                                                                             |
|           W    W    AA    RRRRR   N    N  II  N    N   GGGG   !!!           |
|           W    W   A  A   R    R  NN   N  II  NN   N  G    G  !!!           |
|           W    W  A    A  R    R  N N  N  II  N N  N  G       !!!           |
|           W WW W  AAAAAA  RRRRR   N  N N  II  N  N N  G  GGG   !            |
|           WW  WW  A    A  R   R   N   NN  II  N   NN  G    G                |
|           W    W  A    A  R    R  N    N  II  N    N   GGGG   !!!           |
|                                                                             |
|      You have enabled k-point parallelism (KPAR>1).                         |
|      This developmental code was originally  written by Paul Kent at ORNL,  |
|      and carefully double checked in Vienna.                                |
|      GW as well as linear response parallelism added by Martijn Marsman     |
|      and Georg Kresse.                                                      |
|      Carefully verify results versus KPAR=1.                                |
|      Report problems to Paul Kent and Vienna.                               |
|                                                                             |
 ----------------------------------------------------------------------------- 

 POTCAR:    PAW_PBE C 08Apr2002                   
   VRHFIN =C: s2p2                                                              
   LEXCH  = PE                                                                  
   EATOM  =   147.1560 eV,   10.8157 Ry                                         
                                                                                
   TITEL  = PAW_PBE C 08Apr2002                                                 
   LULTRA =        F    use ultrasoft PP ?                                      
   IUNSCR =        1    unscreen: 0-lin 1-nonlin 2-no                           
   RPACOR =    1.200    partial core radius                                     
   POMASS =   12.011; ZVAL   =    4.000    mass and valenz                      
   RCORE  =    1.500    outmost cutoff radius                                   
   RWIGS  =    1.630; RWIGS  =    0.863    wigner-seitz radius (au A)           
   ENMAX  =  400.000; ENMIN  =  300.000 eV                                      
   ICORE  =        2    local potential                                         
   LCOR   =        T    correct aug charges                                     
   LPAW   =        T    paw PP                                                  
   EAUG   =  644.873                                                            
   DEXC   =    0.000                                                            
   RMAX   =    1.529    core radius for proj-oper                               
   RAUG   =    1.300    factor for augmentation sphere                          
   RDEP   =    1.501    radius for radial grids                                 
   RDEPT  =    1.300    core radius for aug-charge                              
                                                                                
   Atomic configuration                                                         
    4 entries                                                                   
     n  l   j            E        occ.                                          
     1  0  0.50      -273.3789   2.0000                                         
     2  0  0.50       -13.7508   2.0000                                         
     2  1  0.50        -5.2854   2.0000                                         
     3  2  1.50        -5.4423   0.0000                                         
   Description                                                                  
     l       E           TYP  RCUT    TYP  RCUT                                 
     0    -13.7508458     23  1.200                                             
     0     -8.2022199     23  1.200                                             
     1     -5.2854383     23  1.500                                             
     1     34.0145650     23  1.500                                             
     2     -5.4423304      7  1.500                                             
  local pseudopotential read in
  partial core-charges read in
  partial kinetic energy density read in
  atomic valenz-charges read in
  non local Contribution for L=           0  read in
    real space projection operators read in
  non local Contribution for L=           0  read in
    real space projection operators read in
  non local Contribution for L=           1  read in
    real space projection operators read in
  non local Contribution for L=           1  read in
    real space projection operators read in
    PAW grid and wavefunctions read in
 
   number of l-projection  operators is LMAX  =           4
   number of lm-projection operators is LMMAX =           8
 
 POTCAR:    PAW_PBE N 08Apr2002                   
   VRHFIN =N: s2p3                                                              
   LEXCH  = PE                                                                  
   EATOM  =   264.5486 eV,   19.4438 Ry                                         
                                                                                
   TITEL  = PAW_PBE N 08Apr2002                                                 
   LULTRA =        F    use ultrasoft PP ?                                      
   IUNSCR =        1    unscreen: 0-lin 1-nonlin 2-no                           
   RPACOR =    1.200    partial core radius                                     
   POMASS =   14.001; ZVAL   =    5.000    mass and valenz                      
   RCORE  =    1.500    outmost cutoff radius                                   
   RWIGS  =    1.400; RWIGS  =    0.741    wigner-seitz radius (au A)           
   ENMAX  =  400.000; ENMIN  =  300.000 eV                                      
   ICORE  =        2    local potential                                         
   LCOR   =        T    correct aug charges                                     
   LPAW   =        T    paw PP                                                  
   EAUG   =  627.112                                                            
   DEXC   =    0.000                                                            
   RMAX   =    1.529    core radius for proj-oper                               
   RAUG   =    1.300    factor for augmentation sphere                          
   RDEP   =    1.514    radius for radial grids                                 
   RDEPT  =    1.338    core radius for aug-charge                              
                                                                                
   Atomic configuration                                                         
    4 entries                                                                   
     n  l   j            E        occ.                                          
     1  0  0.50      -384.7179   2.0000                                         
     2  0  0.50       -18.5828   2.0000                                         
     2  1  0.50        -7.0898   3.0000                                         
     3  2  1.50        -6.8029   0.0000                                         
   Description                                                                  
     l       E           TYP  RCUT    TYP  RCUT                                 
     0    -18.5828119     23  1.200                                             
     0    -13.5018863     23  1.200                                             
     1     -7.0897853     23  1.500                                             
     1      9.5240782     23  1.500                                             
     2     -6.8029130      7  1.500                                             
  local pseudopotential read in
  partial core-charges read in
  partial kinetic energy density read in
  atomic valenz-charges read in
  non local Contribution for L=           0  read in
    real space projection operators read in
  non local Contribution for L=           0  read in
    real space projection operators read in
  non local Contribution for L=           1  read in
    real space projection operators read in
  non local Contribution for L=           1  read in
    real space projection operators read in
    PAW grid and wavefunctions read in
 
   number of l-projection  operators is LMAX  =           4
   number of lm-projection operators is LMMAX =           8
 
 POTCAR:    PAW_PBE Fe 06Sep2000                  
   VRHFIN =Fe:  d7 s1                                                           
   LEXCH  = PE                                                                  
   EATOM  =   594.3153 eV,   43.6809 Ry                                         
                                                                                
   TITEL  = PAW_PBE Fe 06Sep2000                                                
   LULTRA =        F    use ultrasoft PP ?                                      
   IUNSCR =        1    unscreen: 0-lin 1-nonlin 2-no                           
   RPACOR =    2.000    partial core radius                                     
   POMASS =   55.847; ZVAL   =    8.000    mass and valenz                      
   RCORE  =    2.300    outmost cutoff radius                                   
   RWIGS  =    2.460; RWIGS  =    1.302    wigner-seitz radius (au A)           
   ENMAX  =  267.882; ENMIN  =  200.911 eV                                      
   RCLOC  =    1.701    cutoff for local pot                                    
   LCOR   =        T    correct aug charges                                     
   LPAW   =        T    paw PP                                                  
   EAUG   =  511.368                                                            
   DEXC   =    0.000                                                            
   RMAX   =    2.356    core radius for proj-oper                               
   RAUG   =    1.300    factor for augmentation sphere                          
   RDEP   =    2.442    radius for radial grids                                 
   RDEPT  =    1.890    core radius for aug-charge                              
                                                                                
   Atomic configuration                                                         
    9 entries                                                                   
     n  l   j            E        occ.                                          
     1  0  0.50     -6993.8440   2.0000                                         
     2  0  0.50      -814.6047   2.0000                                         
     2  1  1.50      -693.3689   6.0000                                         
     3  0  0.50       -89.4732   2.0000                                         
     3  1  1.50       -55.6373   6.0000                                         
     3  2  2.50        -3.8151   7.0000                                         
     4  0  0.50        -4.2551   1.0000                                         
     4  1  1.50        -3.4015   0.0000                                         
     4  3  2.50        -1.3606   0.0000                                         
   Description                                                                  
     l       E           TYP  RCUT    TYP  RCUT                                 
     2     -3.8151135     23  2.300                                             
     2     -5.1756961     23  2.300                                             
     0     -4.2550963     23  2.300                                             
     0      7.2035603     23  2.300                                             
     1     -2.7211652     23  2.300                                             
     1     18.4316424     23  2.300                                             
  local pseudopotential read in
  partial core-charges read in
  partial kinetic energy density read in
  atomic valenz-charges read in
  non local Contribution for L=           2  read in
    real space projection operators read in
  non local Contribution for L=           2  read in
    real space projection operators read in
  non local Contribution for L=           0  read in
    real space projection operators read in
  non local Contribution for L=           0  read in
    real space projection operators read in
  non local Contribution for L=           1  read in
    real space projection operators read in
  non local Contribution for L=           1  read in
    real space projection operators read in
    PAW grid and wavefunctions read in
 
   number of l-projection  operators is LMAX  =           6
   number of lm-projection operators is LMMAX =          18
 
 POTCAR:    PAW_PBE V 08Apr2002                   
   VRHFIN =V: p6 d4 s1                                                          
   LEXCH  = PE                                                                  
   EATOM  =   170.8679 eV,   12.5584 Ry                                         
                                                                                
   TITEL  = PAW_PBE V 08Apr2002                                                 
   LULTRA =        F    use ultrasoft PP ?                                      
   IUNSCR =        1    unscreen: 0-lin 1-nonlin 2-no                           
   RPACOR =    2.000    partial core radius                                     
   POMASS =   50.941; ZVAL   =    5.000    mass and valenz                      
   RCORE  =    2.700    outmost cutoff radius                                   
   RWIGS  =    2.500; RWIGS  =    1.323    wigner-seitz radius (au A)           
   ENMAX  =  192.543; ENMIN  =  144.408 eV                                      
   RCLOC  =    1.779    cutoff for local pot                                    
   LCOR   =        T    correct aug charges                                     
   LPAW   =        T    paw PP                                                  
   EAUG   =  358.662                                                            
   DEXC   =    0.000                                                            
   RMAX   =    2.768    core radius for proj-oper                               
   RAUG   =    1.300    factor for augmentation sphere                          
   RDEP   =    2.762    radius for radial grids                                 
   RDEPT  =    2.240    core radius for aug-charge                              
                                                                                
   Atomic configuration                                                         
    9 entries                                                                   
     n  l   j            E        occ.                                          
     1  0  0.50     -5360.7193   2.0000                                         
     2  0  0.50      -598.4546   2.0000                                         
     2  1  1.50      -499.0155   6.0000                                         
     3  0  0.50       -66.5711   2.0000                                         
     3  1  1.50       -40.5282   6.0000                                         
     3  2  2.50        -2.4291   4.0000                                         
     4  0  0.50        -3.8743   1.0000                                         
     4  1  0.50        -2.7212   0.0000                                         
     4  3  2.50        -1.3606   0.0000                                         
   Description                                                                  
     l       E           TYP  RCUT    TYP  RCUT                                 
     2     -2.4290901     23  2.700                                             
     2     -3.7896727     23  2.700                                             
     0     -3.8742752     23  2.700                                             
     0     27.2116520     23  2.700                                             
     1     -2.7211652     23  2.700                                             
     1     27.2116520     23  2.700                                             
  local pseudopotential read in
  partial core-charges read in
  partial kinetic energy density read in
  atomic valenz-charges read in
  non local Contribution for L=           2  read in
    real space projection operators read in
  non local Contribution for L=           2  read in
    real space projection operators read in
  non local Contribution for L=           0  read in
    real space projection operators read in
  non local Contribution for L=           0  read in
    real space projection operators read in
  non local Contribution for L=           1  read in
    real space projection operators read in
  non local Contribution for L=           1  read in
    real space projection operators read in
    PAW grid and wavefunctions read in
 
   number of l-projection  operators is LMAX  =           6
   number of lm-projection operators is LMMAX =          18
 

 ----------------------------------------------------------------------------- 
|                                                                             |
|  ADVICE TO THIS USER RUNNING 'VASP/VAMP'   (HEAR YOUR MASTER'S VOICE ...):  |
|                                                                             |
|      You have a (more or less) 'large supercell' and for larger cells       |
|      it might be more efficient to use real space projection opertators     |
|      So try LREAL= Auto  in the INCAR   file.                               |
|      Mind:          For very  accurate calculation you might also keep the  |
|      reciprocal projection scheme          (i.e. LREAL=.FALSE.)             |
|                                                                             |
 ----------------------------------------------------------------------------- 

  PAW_PBE C 08Apr2002                   :
 energy of atom  1       EATOM= -147.1560
 kinetic energy error for atom=    0.0076 (will be added to EATOM!!)
  PAW_PBE N 08Apr2002                   :
 energy of atom  2       EATOM= -264.5486
 kinetic energy error for atom=    0.0138 (will be added to EATOM!!)
  PAW_PBE Fe 06Sep2000                  :
 energy of atom  3       EATOM= -594.3153
 kinetic energy error for atom=    0.0026 (will be added to EATOM!!)
  PAW_PBE V 08Apr2002                   :
 energy of atom  4       EATOM= -170.8679
 kinetic energy error for atom=    0.0003 (will be added to EATOM!!)
 
 
 POSCAR:  C  N Fe  V                             
  positions in cartesian coordinates
  No initial velocities read in
 exchange correlation table for  LEXCH =        8
   RHO(1)=    0.500       N(1)  =     2000
   RHO(2)=  100.500       N(2)  =     4000

 VTST: version 3.2, (02/03/18)

 CHAIN: initializing optimizer
 
 OPT: Using VASP Conjugate-Gradient optimizer
 CHAIN: Read ICHAIN            0
 
 POSCAR:  C  N Fe  V                             
  positions in cartesian coordinates
  No initial velocities read in
 


--------------------------------------------------------------------------------------------------------


 ion  position               nearest neighbor table
   1  0.222  0.003  0.506-  19 1.43   3 1.43   4 1.44
   2  0.057  0.102  0.505-   3 1.43  36 1.44   7 1.44
   3  0.111  0.002  0.504-   2 1.43  17 1.43   1 1.43
   4  0.278  0.104  0.508-  21 1.42   1 1.44   5 1.45
   5  0.226  0.207  0.506-   7 1.44   4 1.45   8 1.46
   6  0.057  0.303  0.502-  11 1.43   7 1.43  40 1.43
   7  0.114  0.204  0.505-   6 1.43   2 1.44   5 1.44
   8  0.283  0.309  0.506-  25 1.45   5 1.46   9 1.48
   9  0.223  0.410  0.502-  53 1.37  11 1.44   8 1.48
  10  0.053  0.503  0.498-  14 1.42  44 1.43  11 1.44
  11  0.111  0.404  0.501-   6 1.43  10 1.44   9 1.44
  12  0.216  0.604  0.500-  53 1.38  14 1.42  15 1.44
  13  0.051  0.702  0.498-  14 1.42  18 1.43  48 1.43
  14  0.106  0.604  0.498-  12 1.42  10 1.42  13 1.42
  15  0.274  0.704  0.500-  56 1.40  16 1.42  12 1.44
  16  0.219  0.803  0.502-  15 1.42  18 1.43  19 1.43
  17  0.054  0.902  0.503-  18 1.43   3 1.43  52 1.43
  18  0.107  0.802  0.501-  13 1.43  17 1.43  16 1.43
  19  0.276  0.903  0.505-   1 1.43  30 1.43  16 1.43
  20  0.554  0.999  0.511-  23 1.42  32 1.42  22 1.43
  21  0.389  0.101  0.510-   4 1.42  26 1.43  22 1.44
  22  0.443  0.000  0.510-  20 1.43  30 1.43  21 1.44
  23  0.612  0.098  0.511-  24 1.42  20 1.42  34 1.43
  24  0.557  0.196  0.510-  27 1.41  23 1.42  26 1.43
  25  0.395  0.304  0.507-  54 1.39  26 1.44   8 1.45
  26  0.446  0.201  0.510-  21 1.43  24 1.43  25 1.44
  27  0.616  0.293  0.504-  28 1.39  24 1.41  38 1.42
  28  0.563  0.389  0.496-  54 1.37  55 1.37  27 1.39
  29  0.552  0.800  0.503-  57 1.40  32 1.42  31 1.45
  30  0.387  0.900  0.507-  22 1.43  19 1.43  31 1.44
  31  0.440  0.799  0.504-  56 1.41  30 1.44  29 1.45
  32  0.608  0.900  0.508-  29 1.42  20 1.42  50 1.44
  33  0.889  0.000  0.505-  52 1.43  36 1.43  35 1.44
  34  0.723  0.098  0.509-  35 1.43  39 1.43  23 1.43
  35  0.777  0.999  0.507-  50 1.43  34 1.43  33 1.44
  36  0.946  0.100  0.505-  37 1.43  33 1.43   2 1.44
  37  0.891  0.200  0.504-  36 1.43  39 1.43  40 1.43
  38  0.726  0.296  0.501-  39 1.41  27 1.42  43 1.42
  39  0.780  0.198  0.505-  38 1.41  37 1.43  34 1.43
  40  0.946  0.301  0.502-  37 1.43  41 1.43   6 1.43
  41  0.890  0.400  0.498-  44 1.42  43 1.42  40 1.43
  42  0.721  0.493  0.488-  55 1.38  43 1.43  47 1.44
  43  0.779  0.397  0.496-  41 1.42  38 1.42  42 1.43
  44  0.942  0.501  0.496-  41 1.42  10 1.43  45 1.45
  45  0.883  0.600  0.494-  48 1.43  44 1.45  47 1.45
  46  0.715  0.700  0.494-  57 1.39  51 1.43  47 1.46
  47  0.771  0.598  0.490-  42 1.44  45 1.45  46 1.46
  48  0.939  0.700  0.497-  49 1.43  45 1.43  13 1.43
  49  0.885  0.800  0.500-  48 1.43  51 1.43  52 1.44
  50  0.720  0.900  0.506-  35 1.43  51 1.44  32 1.44
  51  0.774  0.799  0.501-  46 1.43  49 1.43  50 1.44
  52  0.942  0.901  0.503-  33 1.43  17 1.43  49 1.44
  53  0.271  0.509  0.501-   9 1.37  12 1.38  58 1.96
  54  0.457  0.397  0.502-  28 1.37  25 1.39  58 1.92
  55  0.615  0.482  0.479-  28 1.37  42 1.38  59 1.96
  56  0.383  0.701  0.499-  15 1.40  31 1.41  58 1.99  59 2.46
  57  0.608  0.705  0.492-  46 1.39  29 1.40  59 1.96
  58  0.419  0.546  0.500-  59 1.78  54 1.92  53 1.96  56 1.99
  59  0.521  0.594  0.448-  58 1.78  55 1.96  57 1.96  56 2.46
 
  LATTYP: Found a triclinic cell.
 ALAT       =    17.7344978273
 B/A-ratio  =     0.7260425486
 C/A-ratio  =     1.1235333638
 COS(alpha) =     0.0023177952
 COS(beta)  =     0.0061411323
 COS(gamma) =     0.7158611130
  
  Lattice vectors:
  
 A1 = (  12.6954373523,  12.3829836316,   0.0000000000)
 A2 = (  12.8760000000,   0.0000000000,   0.0000000000)
 A3 = (   0.0461827641,   0.1278974458, -19.9248359965)


Analysis of symmetry for initial positions (statically):
=====================================================================
 Subroutine PRICEL returns:
 Original cell was already a primitive cell.
 

 Routine SETGRP: Setting up the symmetry group for a 
 triclinic supercell.


 Subroutine GETGRP returns: Found  1 space group operations
 (whereof  1 operations were pure point group operations)
 out of a pool of  2 trial point group operations.


The static configuration has the point symmetry C_1 .


Analysis of symmetry for dynamics (positions and initial velocities):
=====================================================================
 Subroutine PRICEL returns:
 Original cell was already a primitive cell.
 

 Routine SETGRP: Setting up the symmetry group for a 
 triclinic supercell.


 Subroutine GETGRP returns: Found  1 space group operations
 (whereof  1 operations were pure point group operations)
 out of a pool of  2 trial point group operations.


The dynamic configuration has the point symmetry C_1 .


Analysis of structural, dynamic, and magnetic symmetry:
=====================================================================
 Subroutine PRICEL returns:
 Original cell was already a primitive cell.
 

 Routine SETGRP: Setting up the symmetry group for a 
 triclinic supercell.


 Subroutine GETGRP returns: Found  1 space group operations
 (whereof  1 operations were pure point group operations)
 out of a pool of  2 trial point group operations.


The magnetic configuration has the point symmetry C_1 .


 Subroutine INISYM returns: Found  1 space group operations
 (whereof  1 operations are pure point group operations),
 and found     1 'primitive' translations

 
 
 KPOINTS: KPOINTS created by Atomic Simulation Env

Automatic generation of k-mesh.
Space group operators:
 irot       det(A)        alpha          n_x          n_y          n_z        tau_x        tau_y        tau_z
    1     1.000000     0.000001     1.000000     0.000000     0.000000     0.000000     0.000000     0.000000
 
 Subroutine IBZKPT returns following result:
 ===========================================
 
 Found      2 irreducible k-points:
 
 Following reciprocal coordinates:
            Coordinates               Weight
  0.250000  0.250000  0.000000      2.000000
 -0.250000  0.250000 -0.000000      2.000000
 
 Following cartesian coordinates:
            Coordinates               Weight
  0.019416  0.020472  0.000176      2.000000
 -0.019416  0.019906  0.000083      2.000000
 
 
 Subroutine IBZKPT_HF returns following result:
 ==============================================
 
 Found      4 k-points in 1st BZ
 the following      4 k-points will be used (e.g. in the exchange kernel)
 Following reciprocal coordinates:   # in IRBZ
  0.250000  0.250000  0.000000    0.25000000   1 t-inv F
 -0.250000  0.250000 -0.000000    0.25000000   2 t-inv F
 -0.250000 -0.250000  0.000000    0.25000000   1 t-inv T
  0.250000 -0.250000  0.000000    0.25000000   2 t-inv T


--------------------------------------------------------------------------------------------------------




 Dimension of arrays:
   k-points           NKPTS =      2   k-points in BZ     NKDIM =      4   number of bands    NBANDS=    157
   number of dos      NEDOS =    301   number of ions     NIONS =     59
   non local maximal  LDIM  =      6   non local SUM 2l+1 LMDIM =     18
   total plane-waves  NPLWV = ******
   max r-space proj   IRMAX =      1   max aug-charges    IRDMAX=  24936
   dimension x,y,z NGX =    96 NGY =   90 NGZ =  150
   dimension x,y,z NGXF=   192 NGYF=  180 NGZF=  300
   support grid    NGXF=   192 NGYF=  180 NGZF=  300
   ions per type =              52   5   1   1
   NGX,Y,Z   is equivalent  to a cutoff of  12.39, 12.08, 12.52 a.u.
   NGXF,Y,Z  is equivalent  to a cutoff of  24.79, 24.16, 25.03 a.u.

 SYSTEM =  unknown system                          
 POSCAR =   C  N Fe  V                             

 Startparameter for this run:
   NWRITE =      2    write-flag & timer
   PREC   = accura    normal or accurate (medium, high low for compatibility)
   ISTART =      1    job   : 0-new  1-cont  2-samecut
   ICHARG =      0    charge: 1-file 2-atom 10-const
   ISPIN  =      2    spin polarized calculation?
   LNONCOLLINEAR =      F non collinear calculations
   LSORBIT =      F    spin-orbit coupling
   INIWAV =      1    electr: 0-lowe 1-rand  2-diag
   LASPH  =      T    aspherical Exc in radial PAW
   METAGGA=      F    non-selfconsistent MetaGGA calc.

 Electronic Relaxation 1
   ENCUT  =  500.0 eV  36.75 Ry    6.06 a.u.  23.48 22.58 36.33*2*pi/ulx,y,z
   ENINI  =  500.0     initial cutoff
   ENAUG  =  644.9 eV  augmentation charge cutoff
   NELM   =    250;   NELMIN=  2; NELMDL=  0     # of ELM steps 
   EDIFF  = 0.1E-03   stopping-criterion for ELM
   LREAL  =      F    real-space projection
   NLSPLINE    = F    spline interpolate recip. space projectors
   LCOMPAT=      F    compatible to vasp.4.4
   GGA_COMPAT  = T    GGA compatible to vasp.4.4-vasp.4.6
   LMAXPAW     = -100 max onsite density
   LMAXMIX     =    2 max onsite mixed and CHGCAR
   VOSKOWN=      0    Vosko Wilk Nusair interpolation
   ROPT   =    0.00000   0.00000   0.00000   0.00000
 Ionic relaxation
   EDIFFG = -.3E-01   stopping-criterion for IOM
   NSW    =      0    number of steps for IOM
   NBLOCK =      1;   KBLOCK =      1    inner block; outer block 
   IBRION =     -1    ionic relax: 0-MD 1-quasi-New 2-CG
   NFREE  =      1    steps in history (QN), initial steepest desc. (CG)
   ISIF   =      2    stress and relaxation
   IWAVPR =     10    prediction:  0-non 1-charg 2-wave 3-comb
   ISYM   =      3    0-nonsym 1-usesym 2-fastsym
   LCORR  =      T    Harris-Foulkes like correction to forces

   POTIM  = 0.5000    time-step for ionic-motion
   TEIN   =    0.0    initial temperature
   TEBEG  =    0.0;   TEEND  =   0.0 temperature during run
   SMASS  =  -3.00    Nose mass-parameter (am)
   estimated Nose-frequenzy (Omega)   =  0.10E-29 period in steps =****** mass=  -0.379E-26a.u.
   SCALEE = 1.0000    scale energy and forces
   NPACO  =    256;   APACO  = 16.0  distance and # of slots for P.C.
   PSTRESS=    0.0 pullay stress

  Mass of Ions in am
   POMASS =  12.01 14.00 55.85 50.94
  Ionic Valenz
   ZVAL   =   4.00  5.00  8.00  5.00
  Atomic Wigner-Seitz radii
   RWIGS  =  -1.00 -1.00 -1.00 -1.00
  virtual crystal weights 
   VCA    =   1.00  1.00  1.00  1.00
   NELECT =     246.0000    total number of electrons
   NUPDOWN=      -1.0000    fix difference up-down

 DOS related values:
   EMIN   =  10.00;   EMAX   =-10.00  energy-range for DOS
   EFERMI =   0.00
   ISMEAR =     0;   SIGMA  =   0.10  broadening in eV -4-tet -1-fermi 0-gaus

 Electronic relaxation 2 (details)
   IALGO  =     53    algorithm
   LDIAG  =      T    sub-space diagonalisation (order eigenvalues)
   LSUBROT=      F    optimize rotation matrix (better conditioning)
   TURBO    =      0    0=normal 1=particle mesh
   IRESTART =      0    0=no restart 2=restart with 2 vectors
   NREBOOT  =      0    no. of reboots
   NMIN     =      0    reboot dimension
   EREF     =   0.00    reference energy to select bands
   IMIX   =      4    mixing-type and parameters
     AMIX     =   0.40;   BMIX     =  1.00
     AMIX_MAG =   1.60;   BMIX_MAG =  1.00
     AMIN     =   0.10
     WC   =   100.;   INIMIX=   1;  MIXPRE=   1;  MAXMIX= -45

 Intra band minimization:
   WEIMIN = 0.0000     energy-eigenvalue tresh-hold
   EBREAK =  0.16E-06  absolut break condition
   DEPER  =   0.30     relativ break condition  

   TIME   =   0.20     timestep for ELM

  volume/ion in A,a.u.               =      53.85       363.37
  Fermi-wavevector in a.u.,A,eV,Ry     =   0.697782  1.318616  6.624666  0.486899
  Thomas-Fermi vector in A             =   1.781204
 
 Write flags
   LWAVE        =      T    write WAVECAR
   LDOWNSAMPLE  =      F    k-point downsampling of WAVECAR
   LCHARG       =      T    write CHGCAR
   LVTOT        =      F    write LOCPOT, total local potential
   LVHAR        =      F    write LOCPOT, Hartree potential only
   LELF         =      F    write electronic localiz. function (ELF)
   LORBIT       =     11    0 simple, 1 ext, 2 COOP (PROOUT), +10 PAW based schemes


 Dipole corrections
   LMONO  =      F    monopole corrections only (constant potential shift)
   LDIPOL =      T    correct potential (dipole corrections)
   IDIPOL =      3    1-x, 2-y, 3-z, 4-all directions 
   EPSILON=  1.0000000 bulk dielectric constant

 Exchange correlation treatment:
   GGA     =    PE    GGA type
   LEXCH   =     8    internal setting for exchange type
   VOSKOWN=      0    Vosko Wilk Nusair interpolation
   EXXOEP  =     0    0=HF, 1=EXX-LHF (local Hartree Fock) 2=EXX OEP
   LHFCALC =     T    Hartree Fock is set to
   LSYMGRAD=     F    symmetrize gradient (conserves proper symmetry)
   PRECFOCK=normal    Normal, Fast or Accurate (Low or Medium for compatibility)
   LRHFCALC=     F    long range Hartree Fock
   LRSCOR  =     F    long range correlation only (use DFT for short range part)
   LTHOMAS =     F    Thomas Fermi screening in HF
   LMODELHF=     F    short range full HF, long range fraction AEXX
   ENCUT4O =  -1.0   cutoff for four orbital integrals eV
   LMAXFOCK=     4    L truncation for augmentation on plane wave grid
   LMAXFOCKAE=  -1    L truncation for all-electron charge restoration on plane wave grid
   NMAXFOCKAE=   1    number of basis functions for all-electron charge restoration
   LFOCKAEDFT=     F  apply the AE augmentation even for DFT
   NKREDX  =     1    reduce k-point grid by
   NKREDY  =     1    reduce k-point grid by
   NKREDZ  =     1    reduce k-point grid by
   SHIFTRED=     F    shift reduced grid of Gamma
   HFKIDENT=     F    idential grid for each k-point
   ODDONLY =     F    use only odd q-grid points
   EVENONLY=     F    use only even q-grid points
   HFALPHA =   -1.0000 decay constant for conv. correction
   MCALPHA =    0.0000 extent of test-charge in conv. correction in multipole expansion
   AEXX    =    0.2500 exact exchange contribution
   HFSCREEN=    0.2000 screening length (either q_TF or 0.3 A-1)
   HFSCREENC=   0.2000 screening length for correlation (either q_TF or 0.3 A-1)
   HFRCUT  =    0.0000 spherical cutoff for potential kernel
   ALDAX   =    0.7500 LDA exchange part
   AGGAX   =    0.7500 GGA exchange part
   ALDAC   =    1.0000 LDA correlation
   AGGAC   =    1.0000 GGA correlation
   ENCUTFOCK=  -1.0 apply spherical cutoff to Coloumb kernel
   NBANDSGWLOW=     1    first orbital included in HF term
   NBLOCK_FOCK=    64    blocking factor in FOCK_ACC
 Linear response parameters
   LEPSILON=     F    determine dielectric tensor
   LRPA    =     F    only Hartree local field effects (RPA)
   LNABLA  =     F    use nabla operator in PAW spheres
   LVEL    =     F    velocity operator in full k-point grid
   LINTERFAST=   F  fast interpolation
   KINTER  =     0    interpolate to denser k-point grid
   CSHIFT  =0.1000    complex shift for real part using Kramers Kronig
   OMEGAMAX=  -1.0    maximum frequency
   DEG_THRESHOLD= 0.2000000E-02 threshold for treating states as degnerate
   RTIME   =   -0.100 relaxation time in fs
  (WPLASMAI=    0.000 imaginary part of plasma frequency in eV, 0.658/RTIME)
   DFIELD  = 0.0000000 0.0000000 0.0000000 field for delta impulse in time
 
 Orbital magnetization related:
   ORBITALMAG=     F  switch on orbital magnetization
   LCHIMAG   =     F  perturbation theory with respect to B field
   DQ        =  0.001000  dq finite difference perturbation B field
   LLRAUG    =     F  two centre corrections for induced B field



--------------------------------------------------------------------------------------------------------


 Static calculation
 charge density and potential will be updated during run
 spin polarized calculation
 Conjugate gradient for all bands (Freysoldt, et al. PRB 79, 241103 (2009))
 perform sub-space diagonalisation
    before iterative eigenvector-optimisation
 modified Broyden-mixing scheme, WC =      100.0
 initial mixing is a Kerker type mixing with AMIX =  0.4000 and BMIX =      1.0000
 Hartree-type preconditioning will be used
 using additional bands           34
 reciprocal scheme for non local part
 use partial core corrections
 no Harris-corrections to forces 
 use gradient corrections 
 use of overlap-Matrix (Vanderbilt PP)
 Gauss-broadening in eV      SIGMA  =   0.10


--------------------------------------------------------------------------------------------------------


  energy-cutoff  :      500.00
  volume of cell :     3176.88
      direct lattice vectors                 reciprocal lattice vectors
    12.876000000  0.000000000  0.000000000     0.077663871  0.001132457  0.000187282
    -0.180562648 12.382983632  0.000000000     0.000000000  0.080755982  0.000518372
    -0.046182764 -0.127897446 19.924835996     0.000000000  0.000000000  0.050188619

  length of vectors
    12.876000000 12.384300000 19.925300000     0.077672353  0.080757645  0.050188619


 
 old parameters found on file WAVECAR:
  energy-cutoff  :      500.00
  volume of cell :     3176.88
      direct lattice vectors                 reciprocal lattice vectors
    12.876000000  0.000000000  0.000000000     0.077663871  0.001132457  0.000187282
    -0.180562648 12.382983632  0.000000000     0.000000000  0.080755982  0.000518372
    -0.046182764 -0.127897446 19.924835996     0.000000000  0.000000000  0.050188619

  length of vectors

 
 k-points in units of 2pi/SCALE and weight: KPOINTS created by Atomic Simulation Env
   0.01941597  0.02047211  0.00017641       0.500
  -0.01941597  0.01990588  0.00008277       0.500
 
 k-points in reciprocal lattice and weights: KPOINTS created by Atomic Simulation Env
   0.25000000  0.25000000  0.00000000       0.500
  -0.25000000  0.25000000 -0.00000000       0.500
 
 position of ions in fractional coordinates (direct lattice) 
   0.22196949  0.00306180  0.50590641
   0.05734063  0.10247343  0.50463294
   0.11069419  0.00221908  0.50442698
   0.27835116  0.10432937  0.50773669
   0.22569682  0.20657678  0.50628014
   0.05748026  0.30262061  0.50240410
   0.11371996  0.20377606  0.50461055
   0.28280544  0.30884427  0.50556918
   0.22317525  0.40957698  0.50237703
   0.05294831  0.50279253  0.49807783
   0.11110369  0.40423553  0.50088238
   0.21641596  0.60424474  0.49951648
   0.05073627  0.70248692  0.49835637
   0.10636786  0.60396673  0.49814471
   0.27391250  0.70442310  0.49959396
   0.21887723  0.80268822  0.50169410
   0.05366909  0.90208512  0.50252134
   0.10748048  0.80209445  0.50080470
   0.27575589  0.90308319  0.50506393
   0.55411554  0.99904524  0.51129086
   0.38883900  0.10148651  0.50995809
   0.44336350  0.00047070  0.51028289
   0.61174346  0.09775331  0.51125989
   0.55722396  0.19642996  0.51031692
   0.39538740  0.30407266  0.50670242
   0.44628527  0.20111641  0.50986472
   0.61608145  0.29288062  0.50415495
   0.56284163  0.38890279  0.49628138
   0.55243407  0.80003740  0.50318412
   0.38706179  0.90004254  0.50720667
   0.44006400  0.79856163  0.50434518
   0.60826596  0.89964312  0.50797918
   0.88855727  0.00028053  0.50472016
   0.72275130  0.09836687  0.50861895
   0.77701717  0.99885947  0.50682036
   0.94585783  0.10048571  0.50467535
   0.89115724  0.19975080  0.50387894
   0.72600097  0.29575637  0.50126480
   0.78028603  0.19763669  0.50518016
   0.94607224  0.30069042  0.50155586
   0.88977652  0.39956367  0.49799926
   0.72116310  0.49313955  0.48765460
   0.77937284  0.39682128  0.49588618
   0.94179173  0.50140730  0.49599293
   0.88343930  0.60013603  0.49414408
   0.71534531  0.70045134  0.49411115
   0.77072983  0.59837097  0.49033929
   0.93945620  0.70049426  0.49715637
   0.88515551  0.80007169  0.49997616
   0.71972941  0.89950725  0.50551708
   0.77380245  0.79917464  0.50050772
   0.94227599  0.90050959  0.50250823
   0.27064453  0.50899867  0.50108917
   0.45742596  0.39683079  0.50229846
   0.61518440  0.48217777  0.47914710
   0.38255468  0.70097571  0.49941200
   0.60750412  0.70535695  0.49195586
   0.41893604  0.54574446  0.50000878
   0.52116449  0.59396944  0.44797390
 
 position of ions in cartesian coordinates  (Angst):
   2.83416214 -0.02678990 10.08010223
   0.69650980  1.20438549 10.05472867
   1.40160191 -0.03703614 10.05062483
   3.54176280  1.22697059 10.11657033
   2.84539074  2.49328500 10.08754869
   0.66227147  3.68308986 10.01031930
   1.40415960  2.45881725 10.05428240
   3.56228849  3.75975258 10.07338308
   2.77644901  5.00753228 10.00977994
   0.56797425  6.16236876  9.92411902
   1.33444919  4.94158038  9.97999932
   2.65439886  7.41846588  9.95278395
   0.50342185  8.63514553  9.92966893
   1.23753305  7.41519876  9.92545160
   3.37663228  8.65896287  9.95432775
   2.65015805  9.87550964  9.99617276
   0.50495248 11.10623414 10.01265532
   1.21596181  9.86827078  9.97845151
   3.36424449 11.11826795 10.06331606
   6.93078857 12.30576812 10.18738661
   4.96481508  1.19148340 10.16083124
   5.68509722 -0.05943526 10.16730286
   7.83554682  1.14508878 10.18676951
   7.11577998  2.36712071 10.16798092
   5.01270306  3.70052084 10.09596253
   5.68650810  2.42521088 10.15897092
   7.85649816  3.56225577 10.04520469
   7.15400788  4.75230372  9.88832514
   6.94544581  9.84249410 10.02586100
   4.79786940 11.08034163 10.10600972
   5.49878155  9.82407109 10.04899498
   7.64613070 11.07529673 10.12140189
  11.41770341 -0.06107865 10.05646641
   9.26489487  1.15302424 10.13414911
   9.80111002 12.30403938 10.09831260
  12.13741421  1.17976622 10.05557356
  11.41520262  2.40906608 10.03970532
   9.27143612  3.59823575  9.98761899
   9.98794654  2.38272065 10.06563186
  12.10416948  3.65929688  9.99341831
  11.36161720  4.88409750  9.92255351
   9.17413229  6.04416920  9.71643791
   9.94065213  4.85040882  9.88045077
  12.01306857  6.14548210  9.88257776
  11.24398134  7.36827492  9.84573978
   9.06149147  8.61048192  9.84508355
   9.79322859  7.34690483  9.76992994
  11.94699493  8.61062395  9.90575905
  11.22970902  9.84332894  9.96194307
   9.08147230 11.07392924 10.07234498
   9.79606437  9.83215279  9.97253433
  11.94694006 11.08672598 10.01239409
   3.36977109  6.23883418  9.98411948
   5.79496636  4.84970645 10.00821447
   7.81192271  5.90951780  9.54692746
   4.77613980  8.61629728  9.95070214
   7.67214206  8.67150372  9.80213973
   5.27258760  6.69399485  9.96259298
   6.58257659  7.29781914  8.92580641
 


--------------------------------------------------------------------------------------------------------


 k-point  1 :   0.2500 0.2500 0.0000  plane waves:   80641
 k-point  2 :  -0.2500 0.2500-0.0000  plane waves:   80682

 maximum and minimum number of plane-waves per node :      3400     3324

 maximum number of plane-waves:     80682
 maximum index in each direction: 
   IXMAX=   23   IYMAX=   22   IZMAX=   36
   IXMIN=  -23   IYMIN=  -22   IZMIN=  -36


 parallel 3D FFT for wavefunctions:
    minimum data exchange during FFTs selected (reduces bandwidth)
 parallel 3D FFT for charge:
    minimum data exchange during FFTs selected (reduces bandwidth)


 FFT grid for exact exchange (Hartree Fock) 
  NGX = 72; NGY = 70; NGZ =112

 
 Radii for the augmentation spheres in the non-local exchange
 for species   1 augmentation radius   0.874 (default was   0.699)
       energy cutoff for augmentation   2000.0
 for species   2 augmentation radius   0.886 (default was   0.709)
       energy cutoff for augmentation   2000.0
 for species   3 augmentation radius   1.263 (default was   1.010)
       energy cutoff for augmentation   2000.0
 for species   4 augmentation radius   1.508 (default was   1.206)
       energy cutoff for augmentation   2000.0

 real space projection operators:
  total allocation   :       2775.85 KBytes
  max/ min on nodes  :        165.25         51.40

 Maximum index for augmentation-charges in exchange           38
  SETUP_FOCK is finished

 total amount of memory used by VASP MPI-rank0   207316. kBytes
=======================================================================

   base      :      30000. kBytes
   nonl-proj :       7143. kBytes
   fftplans  :      17540. kBytes
   grid      :      46049. kBytes
   one-center:         93. kBytes
   HF        :         23. kBytes
   nonlr-proj:       2713. kBytes
   wavefun   :     103755. kBytes
 
     INWAV:  cpu time    3.5380: real time    6.0745
 Broyden mixing: mesh for mixing (old mesh)
   NGX = 47   NGY = 45   NGZ = 73
  (NGX  =192   NGY  =180   NGZ  =300)
  gives a total of 154395 points

 charge density for first step will be calculated from the start-wavefunctions


--------------------------------------------------------------------------------------------------------


 Maximum index for augmentation-charges          947 (set IRDMAX)


--------------------------------------------------------------------------------------------------------


 initial charge from wavefunction
 First call to EWALD:  gamma=   0.121
 Maximum number of real-space cells 3x 3x 2
 Maximum number of reciprocal cells 2x 2x 4

    FEWALD:  cpu time    0.0029: real time    0.0029


--------------------------------------- Iteration      1(   1)  ---------------------------------------


    POTLOK:  cpu time    2.0858: real time    2.0877
    SETDIJ:  cpu time    2.1223: real time    2.1241
    TRIAL :  cpu time  345.2928: real time  345.6091
    CORREC:  cpu time    0.0010: real time    0.0010
    CHARGE:  cpu time    1.3722: real time    1.3732
    --------------------------------------------
      LOOP:  cpu time  350.9098: real time  351.2324

 eigenvalue-minimisations  :     0
 total energy-change (2. order) :-0.6194743E+03  (-0.4338811E+00)
 number of electron     246.0000002 magnetization       0.0284105
 augmentation part       12.1718788 magnetization      -0.1380408

 DIPCOR: dipole corrections for dipol
 direction  3 min pos     1,
 dipolmoment          -0.000493     -0.001365      0.212660 electrons x Angstroem
 Tr[quadrupol]     -6666.210016

 energy correction for charged system         0.000000 eV
 dipol+quadrupol energy correction           -0.001293 eV
 added-field ion interaction         -0.041002 eV  (added to PSCEN)


 Free energy of the ion-electron system (eV)
  ---------------------------------------------------
  alpha Z        PSCENC =       102.48394006
  Ewald energy   TEWEN  =     39587.96343595
  -Hartree energ DENC   =    -47886.18335099
  -exchange      EXHF   =       554.52206308
  -V(xc)+E(xc)   XCENC  =       592.77464053
  PAW double counting   =     26502.42036346   -26501.50313266
  entropy T*S    EENTRO =        -0.01121459
  eigenvalues    EBANDS =     -3196.93100371
  atomic energy  EATOM  =      9624.99314026
  ---------------------------------------------------
  free energy    TOTEN  =      -619.47427952 eV

  energy without entropy =     -619.46306492  energy(sigma->0) =     -619.46867222
  exchange ACFDT corr.  =        -0.00799246  see jH, gK, PRB 81, 115126


--------------------------------------------------------------------------------------------------------




--------------------------------------- Iteration      1(   2)  ---------------------------------------


    POTLOK:  cpu time    2.1030: real time    2.1051
    SETDIJ:  cpu time    2.1246: real time    2.1261
    TRIAL :  cpu time  344.9501: real time  345.2460
    CORREC:  cpu time    0.0010: real time    0.0010
    CHARGE:  cpu time    1.3697: real time    1.3706
    --------------------------------------------
      LOOP:  cpu time  350.5493: real time  350.8528

 eigenvalue-minimisations  :     0
 total energy-change (2. order) :-0.3299904E+00  (-0.3659305E+00)
 number of electron     246.0000002 magnetization       0.0185788
 augmentation part       12.1225391 magnetization      -0.1476120

 DIPCOR: dipole corrections for dipol
 direction  3 min pos     1,
 dipolmoment          -0.000628     -0.001740      0.271059 electrons x Angstroem
 Tr[quadrupol]     -6666.100973

 energy correction for charged system         0.000000 eV
 dipol+quadrupol energy correction           -0.002101 eV
 added-field ion interaction         -0.052262 eV  (added to PSCEN)


 Free energy of the ion-electron system (eV)
  ---------------------------------------------------
  alpha Z        PSCENC =       102.47187237
  Ewald energy   TEWEN  =     39587.96343595
  -Hartree energ DENC   =    -47873.90886497
  -exchange      EXHF   =       554.37074931
  -V(xc)+E(xc)   XCENC  =       592.45662929
  PAW double counting   =     26638.97182484   -26637.63367288
  entropy T*S    EENTRO =        -0.00775845
  eigenvalues    EBANDS =     -3209.47816951
  atomic energy  EATOM  =      9624.99314026
  ---------------------------------------------------
  free energy    TOTEN  =      -619.80426993 eV

  energy without entropy =     -619.79651148  energy(sigma->0) =     -619.80039070
  exchange ACFDT corr.  =        -0.00573392  see jH, gK, PRB 81, 115126


--------------------------------------------------------------------------------------------------------




--------------------------------------- Iteration      1(   3)  ---------------------------------------


    POTLOK:  cpu time    2.1143: real time    2.1152
    SETDIJ:  cpu time    2.1297: real time    2.1305
    TRIAL :  cpu time  344.8974: real time  345.1215
    CORREC:  cpu time    0.0010: real time    0.0010
    CHARGE:  cpu time    1.3670: real time    1.3677
    --------------------------------------------
      LOOP:  cpu time  350.5111: real time  350.7399

 eigenvalue-minimisations  :     0
 total energy-change (2. order) :-0.2751917E+00  (-0.2189466E+00)
 number of electron     246.0000002 magnetization       0.0118585
 augmentation part       12.1336772 magnetization      -0.1540169

 DIPCOR: dipole corrections for dipol
 direction  3 min pos     1,
 dipolmoment          -0.000556     -0.001540      0.239985 electrons x Angstroem
 Tr[quadrupol]     -6665.917253

 energy correction for charged system         0.000000 eV
 dipol+quadrupol energy correction           -0.001647 eV
 added-field ion interaction         -0.046270 eV  (added to PSCEN)


 Free energy of the ion-electron system (eV)
  ---------------------------------------------------
  alpha Z        PSCENC =       102.47831793
  Ewald energy   TEWEN  =     39587.96343595
  -Hartree energ DENC   =    -47855.48654294
  -exchange      EXHF   =       554.18995048
  -V(xc)+E(xc)   XCENC  =       591.98392802
  PAW double counting   =     26799.20677574   -26797.17448969
  entropy T*S    EENTRO =        -0.00516001
  eigenvalues    EBANDS =     -3228.22621893
  atomic energy  EATOM  =      9624.99314026
  ---------------------------------------------------
  free energy    TOTEN  =      -620.07946162 eV

  energy without entropy =     -620.07430161  energy(sigma->0) =     -620.07688162
  exchange ACFDT corr.  =        -0.00464097  see jH, gK, PRB 81, 115126


--------------------------------------------------------------------------------------------------------




--------------------------------------- Iteration      1(   4)  ---------------------------------------


    POTLOK:  cpu time    2.1206: real time    2.1220
    SETDIJ:  cpu time    2.1291: real time    2.1301
    TRIAL :  cpu time  344.5635: real time  344.8031
    CORREC:  cpu time    0.0010: real time    0.0010
    CHARGE:  cpu time    1.3663: real time    1.3671
    --------------------------------------------
      LOOP:  cpu time  350.1814: real time  350.4274

 eigenvalue-minimisations  :     0
 total energy-change (2. order) :-0.1711437E+00  (-0.1361262E+00)
 number of electron     246.0000002 magnetization       0.0072775
 augmentation part       12.1552865 magnetization      -0.1604849

 DIPCOR: dipole corrections for dipol
 direction  3 min pos     1,
 dipolmoment          -0.000557     -0.001542      0.240259 electrons x Angstroem
 Tr[quadrupol]     -6665.894181

 energy correction for charged system         0.000000 eV
 dipol+quadrupol energy correction           -0.001651 eV
 added-field ion interaction         -0.046323 eV  (added to PSCEN)


 Free energy of the ion-electron system (eV)
  ---------------------------------------------------
  alpha Z        PSCENC =       102.47826137
  Ewald energy   TEWEN  =     39587.96343595
  -Hartree energ DENC   =    -47850.21522826
  -exchange      EXHF   =       554.28375134
  -V(xc)+E(xc)   XCENC  =       591.81775014
  PAW double counting   =     26932.73149190   -26930.80534354
  entropy T*S    EENTRO =        -0.00341517
  eigenvalues    EBANDS =     -3233.49270445
  atomic energy  EATOM  =      9624.99314026
  ---------------------------------------------------
  free energy    TOTEN  =      -620.25060529 eV

  energy without entropy =     -620.24719012  energy(sigma->0) =     -620.24889770
  exchange ACFDT corr.  =        -0.00318736  see jH, gK, PRB 81, 115126


--------------------------------------------------------------------------------------------------------




--------------------------------------- Iteration      1(   5)  ---------------------------------------


    POTLOK:  cpu time    2.1181: real time    2.1197
    SETDIJ:  cpu time    2.1299: real time    2.1307
    TRIAL :  cpu time  343.8407: real time  344.0655
    CORREC:  cpu time    0.0010: real time    0.0010
    CHARGE:  cpu time    1.3644: real time    1.3651
    --------------------------------------------
      LOOP:  cpu time  349.4550: real time  349.6858

 eigenvalue-minimisations  :     0
 total energy-change (2. order) :-0.1095488E+00  (-0.9670337E-01)
 number of electron     246.0000002 magnetization       0.0043904
 augmentation part       12.1596388 magnetization      -0.1653049

 DIPCOR: dipole corrections for dipol
 direction  3 min pos     1,
 dipolmoment          -0.000611     -0.001691      0.263445 electrons x Angstroem
 Tr[quadrupol]     -6665.974098

 energy correction for charged system         0.000000 eV
 dipol+quadrupol energy correction           -0.001985 eV
 added-field ion interaction         -0.050794 eV  (added to PSCEN)


 Free energy of the ion-electron system (eV)
  ---------------------------------------------------
  alpha Z        PSCENC =       102.47345685
  Ewald energy   TEWEN  =     39587.96343595
  -Hartree energ DENC   =    -47853.65206425
  -exchange      EXHF   =       554.56641689
  -V(xc)+E(xc)   XCENC  =       591.89816593
  PAW double counting   =     27029.19722967   -27027.53369000
  entropy T*S    EENTRO =        -0.00229692
  eigenvalues    EBANDS =     -3230.26283017
  atomic energy  EATOM  =      9624.99314026
  ---------------------------------------------------
  free energy    TOTEN  =      -620.36015404 eV

  energy without entropy =     -620.35785711  energy(sigma->0) =     -620.35900557
  exchange ACFDT corr.  =        -0.00194191  see jH, gK, PRB 81, 115126


--------------------------------------------------------------------------------------------------------




--------------------------------------- Iteration      1(   6)  ---------------------------------------


    POTLOK:  cpu time    2.1152: real time    2.1166
    SETDIJ:  cpu time    2.1276: real time    2.1286
    TRIAL :  cpu time  343.3391: real time  343.5793
    CORREC:  cpu time    0.0009: real time    0.0009
    CHARGE:  cpu time    1.3634: real time    1.3646
    --------------------------------------------
      LOOP:  cpu time  348.9473: real time  349.1936

 eigenvalue-minimisations  :     0
 total energy-change (2. order) :-0.8274660E-01  (-0.7239839E-01)
 number of electron     246.0000002 magnetization       0.0027493
 augmentation part       12.1597828 magnetization      -0.1689173

 DIPCOR: dipole corrections for dipol
 direction  3 min pos     1,
 dipolmoment          -0.000632     -0.001752      0.272873 electrons x Angstroem
 Tr[quadrupol]     -6666.054293

 energy correction for charged system         0.000000 eV
 dipol+quadrupol energy correction           -0.002130 eV
 added-field ion interaction         -0.052611 eV  (added to PSCEN)


 Free energy of the ion-electron system (eV)
  ---------------------------------------------------
  alpha Z        PSCENC =       102.47149440
  Ewald energy   TEWEN  =     39587.96343595
  -Hartree energ DENC   =    -47857.74851193
  -exchange      EXHF   =       554.86425113
  -V(xc)+E(xc)   XCENC  =       592.03533422
  PAW double counting   =     27091.85208361   -27090.14735935
  entropy T*S    EENTRO =        -0.00159436
  eigenvalues    EBANDS =     -3226.72447200
  atomic energy  EATOM  =      9624.99314026
  ---------------------------------------------------
  free energy    TOTEN  =      -620.44290063 eV

  energy without entropy =     -620.44130628  energy(sigma->0) =     -620.44210345
  exchange ACFDT corr.  =        -0.00121859  see jH, gK, PRB 81, 115126


--------------------------------------------------------------------------------------------------------




--------------------------------------- Iteration      1(   7)  ---------------------------------------


    POTLOK:  cpu time    2.1104: real time    2.1123
    SETDIJ:  cpu time    2.1311: real time    2.1329
    TRIAL :  cpu time  343.1673: real time  343.4201
    CORREC:  cpu time    0.0009: real time    0.0009
    CHARGE:  cpu time    1.3724: real time    1.3730
    --------------------------------------------
      LOOP:  cpu time  348.7831: real time  349.0427

 eigenvalue-minimisations  :     0
 total energy-change (2. order) :-0.6299044E-01  (-0.5522560E-01)
 number of electron     246.0000002 magnetization       0.0018365
 augmentation part       12.1664412 magnetization      -0.1717439

 DIPCOR: dipole corrections for dipol
 direction  3 min pos     1,
 dipolmoment          -0.000643     -0.001782      0.277597 electrons x Angstroem
 Tr[quadrupol]     -6666.119132

 energy correction for charged system         0.000000 eV
 dipol+quadrupol energy correction           -0.002204 eV
 added-field ion interaction         -0.053522 eV  (added to PSCEN)


 Free energy of the ion-electron system (eV)
  ---------------------------------------------------
  alpha Z        PSCENC =       102.47050928
  Ewald energy   TEWEN  =     39587.96343595
  -Hartree energ DENC   =    -47861.37785680
  -exchange      EXHF   =       555.11663285
  -V(xc)+E(xc)   XCENC  =       592.17141544
  PAW double counting   =     27129.97712225   -27128.18855414
  entropy T*S    EENTRO =        -0.00114715
  eigenvalues    EBANDS =     -3223.63014181
  atomic energy  EATOM  =      9624.99314026
  ---------------------------------------------------
  free energy    TOTEN  =      -620.50589108 eV

  energy without entropy =     -620.50474393  energy(sigma->0) =     -620.50531750
  exchange ACFDT corr.  =        -0.00080029  see jH, gK, PRB 81, 115126


--------------------------------------------------------------------------------------------------------




--------------------------------------- Iteration      1(   8)  ---------------------------------------


    POTLOK:  cpu time    2.1051: real time    2.1072
    SETDIJ:  cpu time    2.1334: real time    2.1344
    TRIAL :  cpu time  344.2669: real time  344.9196
    CORREC:  cpu time    0.0009: real time    0.0009
    CHARGE:  cpu time    1.3659: real time    1.3667
    --------------------------------------------
      LOOP:  cpu time  349.8732: real time  350.5322

 eigenvalue-minimisations  :     0
 total energy-change (2. order) :-0.4966821E-01  (-0.4455596E-01)
 number of electron     246.0000002 magnetization       0.0013033
 augmentation part       12.1762874 magnetization      -0.1737121

 DIPCOR: dipole corrections for dipol
 direction  3 min pos     1,
 dipolmoment          -0.000657     -0.001819      0.283413 electrons x Angstroem
 Tr[quadrupol]     -6666.169309

 energy correction for charged system         0.000000 eV
 dipol+quadrupol energy correction           -0.002297 eV
 added-field ion interaction         -0.054644 eV  (added to PSCEN)


 Free energy of the ion-electron system (eV)
  ---------------------------------------------------
  alpha Z        PSCENC =       102.46929462
  Ewald energy   TEWEN  =     39587.96343595
  -Hartree energ DENC   =    -47864.47397862
  -exchange      EXHF   =       555.31088939
  -V(xc)+E(xc)   XCENC  =       592.28611390
  PAW double counting   =     27151.52417996   -27149.77859026
  entropy T*S    EENTRO =        -0.00085761
  eigenvalues    EBANDS =     -3220.84889735
  atomic energy  EATOM  =      9624.99314026
  ---------------------------------------------------
  free energy    TOTEN  =      -620.55555929 eV

  energy without entropy =     -620.55470168  energy(sigma->0) =     -620.55513048
  exchange ACFDT corr.  =        -0.00048613  see jH, gK, PRB 81, 115126


--------------------------------------------------------------------------------------------------------




--------------------------------------- Iteration      1(   9)  ---------------------------------------


    POTLOK:  cpu time    2.0992: real time    2.1002
    SETDIJ:  cpu time    2.1280: real time    2.1291
    TRIAL :  cpu time  342.4566: real time  342.6750
    CORREC:  cpu time    0.0009: real time    0.0009
    CHARGE:  cpu time    1.3695: real time    1.3701
    --------------------------------------------
      LOOP:  cpu time  348.0553: real time  348.2787

 eigenvalue-minimisations  :     0
 total energy-change (2. order) :-0.4071180E-01  (-0.3669638E-01)
 number of electron     246.0000002 magnetization       0.0009708
 augmentation part       12.1843287 magnetization      -0.1754172

 DIPCOR: dipole corrections for dipol
 direction  3 min pos     1,
 dipolmoment          -0.000662     -0.001834      0.285638 electrons x Angstroem
 Tr[quadrupol]     -6666.199850

 energy correction for charged system         0.000000 eV
 dipol+quadrupol energy correction           -0.002333 eV
 added-field ion interaction         -0.055073 eV  (added to PSCEN)


 Free energy of the ion-electron system (eV)
  ---------------------------------------------------
  alpha Z        PSCENC =       102.46882949
  Ewald energy   TEWEN  =     39587.96343595
  -Hartree energ DENC   =    -47866.33526902
  -exchange      EXHF   =       555.44627166
  -V(xc)+E(xc)   XCENC  =       592.36267230
  PAW double counting   =     27162.19146686   -27160.53291295
  entropy T*S    EENTRO =        -0.00066787
  eigenvalues    EBANDS =     -3219.15304803
  atomic energy  EATOM  =      9624.99314026
  ---------------------------------------------------
  free energy    TOTEN  =      -620.59627108 eV

  energy without entropy =     -620.59560322  energy(sigma->0) =     -620.59593715
  exchange ACFDT corr.  =        -0.00035091  see jH, gK, PRB 81, 115126


--------------------------------------------------------------------------------------------------------




--------------------------------------- Iteration      1(  10)  ---------------------------------------


    POTLOK:  cpu time    2.1037: real time    2.1054
    SETDIJ:  cpu time    2.1295: real time    2.1304
    TRIAL :  cpu time  343.3783: real time  343.5958
    CORREC:  cpu time    0.0009: real time    0.0009
    CHARGE:  cpu time    1.3667: real time    1.3672
    --------------------------------------------
      LOOP:  cpu time  348.9800: real time  349.2030

 eigenvalue-minimisations  :     0
 total energy-change (2. order) :-0.3388782E-01  (-0.3056395E-01)
 number of electron     246.0000002 magnetization       0.0007529
 augmentation part       12.1892865 magnetization      -0.1777244

 DIPCOR: dipole corrections for dipol
 direction  3 min pos     1,
 dipolmoment          -0.000661     -0.001831      0.285209 electrons x Angstroem
 Tr[quadrupol]     -6666.215514

 energy correction for charged system         0.000000 eV
 dipol+quadrupol energy correction           -0.002326 eV
 added-field ion interaction         -0.054990 eV  (added to PSCEN)


 Free energy of the ion-electron system (eV)
  ---------------------------------------------------
  alpha Z        PSCENC =       102.46891906
  Ewald energy   TEWEN  =     39587.96343595
  -Hartree energ DENC   =    -47867.09587022
  -exchange      EXHF   =       555.54006068
  -V(xc)+E(xc)   XCENC  =       592.40917095
  PAW double counting   =     27166.75806995   -27165.15803521
  entropy T*S    EENTRO =        -0.00054138
  eigenvalues    EBANDS =     -3218.50838246
  atomic energy  EATOM  =      9624.99314026
  ---------------------------------------------------
  free energy    TOTEN  =      -620.63015891 eV

  energy without entropy =     -620.62961752  energy(sigma->0) =     -620.62988821
  exchange ACFDT corr.  =        -0.00026562  see jH, gK, PRB 81, 115126


--------------------------------------------------------------------------------------------------------




--------------------------------------- Iteration      1(  11)  ---------------------------------------


    POTLOK:  cpu time    2.0913: real time    2.0928
    SETDIJ:  cpu time    2.1247: real time    2.1256
    TRIAL :  cpu time  343.0616: real time  343.2922
    CORREC:  cpu time    0.0009: real time    0.0009
    CHARGE:  cpu time    1.3725: real time    1.3736
    --------------------------------------------
      LOOP:  cpu time  348.6521: real time  348.8889

 eigenvalue-minimisations  :     0
 total energy-change (2. order) :-0.2854820E-01  (-0.2599210E-01)
 number of electron     246.0000002 magnetization       0.0006047
 augmentation part       12.1923497 magnetization      -0.1807286

 DIPCOR: dipole corrections for dipol
 direction  3 min pos     1,
 dipolmoment          -0.000665     -0.001842      0.286925 electrons x Angstroem
 Tr[quadrupol]     -6666.226691

 energy correction for charged system         0.000000 eV
 dipol+quadrupol energy correction           -0.002355 eV
 added-field ion interaction         -0.055321 eV  (added to PSCEN)


 Free energy of the ion-electron system (eV)
  ---------------------------------------------------
  alpha Z        PSCENC =       102.46856018
  Ewald energy   TEWEN  =     39587.96343595
  -Hartree energ DENC   =    -47867.48558588
  -exchange      EXHF   =       555.61475564
  -V(xc)+E(xc)   XCENC  =       592.44567509
  PAW double counting   =     27168.81729041   -27167.24991376
  entropy T*S    EENTRO =        -0.00045468
  eigenvalues    EBANDS =     -3218.22552362
  atomic energy  EATOM  =      9624.99314026
  ---------------------------------------------------
  free energy    TOTEN  =      -620.65870710 eV

  energy without entropy =     -620.65825242  energy(sigma->0) =     -620.65847976
  exchange ACFDT corr.  =        -0.00021058  see jH, gK, PRB 81, 115126


--------------------------------------------------------------------------------------------------------




--------------------------------------- Iteration      1(  12)  ---------------------------------------


    POTLOK:  cpu time    2.0899: real time    2.0908
    SETDIJ:  cpu time    2.1213: real time    2.1223
    TRIAL :  cpu time  342.1615: real time  342.3969
    CORREC:  cpu time    0.0009: real time    0.0009
    CHARGE:  cpu time    1.3754: real time    1.3763
    --------------------------------------------
      LOOP:  cpu time  347.7498: real time  347.9905

 eigenvalue-minimisations  :     0
 total energy-change (2. order) :-0.2448862E-01  (-0.2238927E-01)
 number of electron     246.0000002 magnetization       0.0005008
 augmentation part       12.1950423 magnetization      -0.1837942

 DIPCOR: dipole corrections for dipol
 direction  3 min pos     1,
 dipolmoment          -0.000675     -0.001869      0.291105 electrons x Angstroem
 Tr[quadrupol]     -6666.238080

 energy correction for charged system         0.000000 eV
 dipol+quadrupol energy correction           -0.002424 eV
 added-field ion interaction         -0.056127 eV  (added to PSCEN)


 Free energy of the ion-electron system (eV)
  ---------------------------------------------------
  alpha Z        PSCENC =       102.46768526
  Ewald energy   TEWEN  =     39587.96343595
  -Hartree energ DENC   =    -47867.89526189
  -exchange      EXHF   =       555.68185570
  -V(xc)+E(xc)   XCENC  =       592.48188023
  PAW double counting   =     27170.18349745   -27168.64165573
  entropy T*S    EENTRO =        -0.00039313
  eigenvalues    EBANDS =     -3217.91731828
  atomic energy  EATOM  =      9624.99314026
  ---------------------------------------------------
  free energy    TOTEN  =      -620.68319573 eV

  energy without entropy =     -620.68280260  energy(sigma->0) =     -620.68299916
  exchange ACFDT corr.  =        -0.00017382  see jH, gK, PRB 81, 115126


--------------------------------------------------------------------------------------------------------




--------------------------------------- Iteration      1(  13)  ---------------------------------------


    POTLOK:  cpu time    2.0889: real time    2.0925
    SETDIJ:  cpu time    2.1237: real time    2.1247
    TRIAL :  cpu time  342.1864: real time  342.4140
    CORREC:  cpu time    0.0009: real time    0.0009
    CHARGE:  cpu time    1.3682: real time    1.3689
    --------------------------------------------
      LOOP:  cpu time  347.7691: real time  348.0042

 eigenvalue-minimisations  :     0
 total energy-change (2. order) :-0.2123807E-01  (-0.1954190E-01)
 number of electron     246.0000002 magnetization       0.0004258
 augmentation part       12.1981031 magnetization      -0.1865002

 DIPCOR: dipole corrections for dipol
 direction  3 min pos     1,
 dipolmoment          -0.000683     -0.001891      0.294573 electrons x Angstroem
 Tr[quadrupol]     -6666.248827

 energy correction for charged system         0.000000 eV
 dipol+quadrupol energy correction           -0.002482 eV
 added-field ion interaction         -0.056795 eV  (added to PSCEN)


 Free energy of the ion-electron system (eV)
  ---------------------------------------------------
  alpha Z        PSCENC =       102.46695844
  Ewald energy   TEWEN  =     39587.96343595
  -Hartree energ DENC   =    -47868.29633152
  -exchange      EXHF   =       555.74302271
  -V(xc)+E(xc)   XCENC  =       592.51668172
  PAW double counting   =     27171.50809137   -27169.99077696
  entropy T*S    EENTRO =        -0.00034794
  eigenvalues    EBANDS =     -3217.60826265
  atomic energy  EATOM  =      9624.99314026
  ---------------------------------------------------
  free energy    TOTEN  =      -620.70443380 eV

  energy without entropy =     -620.70408586  energy(sigma->0) =     -620.70425983
  exchange ACFDT corr.  =        -0.00014824  see jH, gK, PRB 81, 115126


--------------------------------------------------------------------------------------------------------




--------------------------------------- Iteration      1(  14)  ---------------------------------------


    POTLOK:  cpu time    2.0854: real time    2.0867
    SETDIJ:  cpu time    2.1234: real time    2.1243
    TRIAL :  cpu time  340.9411: real time  341.1782
    CORREC:  cpu time    0.0009: real time    0.0009
    CHARGE:  cpu time    1.3851: real time    1.3857
    --------------------------------------------
      LOOP:  cpu time  346.5366: real time  346.7791

 eigenvalue-minimisations  :     0
 total energy-change (2. order) :-0.1865354E-01  (-0.1724199E-01)
 number of electron     246.0000002 magnetization       0.0003701
 augmentation part       12.2012496 magnetization      -0.1890517

 DIPCOR: dipole corrections for dipol
 direction  3 min pos     1,
 dipolmoment          -0.000686     -0.001900      0.296017 electrons x Angstroem
 Tr[quadrupol]     -6666.258143

 energy correction for charged system         0.000000 eV
 dipol+quadrupol energy correction           -0.002506 eV
 added-field ion interaction         -0.057074 eV  (added to PSCEN)


 Free energy of the ion-electron system (eV)
  ---------------------------------------------------
  alpha Z        PSCENC =       102.46665565
  Ewald energy   TEWEN  =     39587.96343595
  -Hartree energ DENC   =    -47868.63983594
  -exchange      EXHF   =       555.79855981
  -V(xc)+E(xc)   XCENC  =       592.54867046
  PAW double counting   =     27173.13949393   -27171.64835238
  entropy T*S    EENTRO =        -0.00031394
  eigenvalues    EBANDS =     -3217.34450713
  atomic energy  EATOM  =      9624.99314026
  ---------------------------------------------------
  free energy    TOTEN  =      -620.72308734 eV

  energy without entropy =     -620.72277341  energy(sigma->0) =     -620.72293037
  exchange ACFDT corr.  =        -0.00012976  see jH, gK, PRB 81, 115126


--------------------------------------------------------------------------------------------------------




--------------------------------------- Iteration      1(  15)  ---------------------------------------


    POTLOK:  cpu time    2.0835: real time    2.0852
    SETDIJ:  cpu time    2.1252: real time    2.1263
    TRIAL :  cpu time  340.8079: real time  341.0348
    CORREC:  cpu time    0.0009: real time    0.0009
    CHARGE:  cpu time    1.3676: real time    1.3688
    --------------------------------------------
      LOOP:  cpu time  346.3867: real time  346.6204

 eigenvalue-minimisations  :     0
 total energy-change (2. order) :-0.1653962E-01  (-0.1535375E-01)
 number of electron     246.0000002 magnetization       0.0003276
 augmentation part       12.2039369 magnetization      -0.1917678

 DIPCOR: dipole corrections for dipol
 direction  3 min pos     1,
 dipolmoment          -0.000688     -0.001905      0.296831 electrons x Angstroem
 Tr[quadrupol]     -6666.266656

 energy correction for charged system         0.000000 eV
 dipol+quadrupol energy correction           -0.002520 eV
 added-field ion interaction         -0.057231 eV  (added to PSCEN)


 Free energy of the ion-electron system (eV)
  ---------------------------------------------------
  alpha Z        PSCENC =       102.46648488
  Ewald energy   TEWEN  =     39587.96343595
  -Hartree energ DENC   =    -47868.97030896
  -exchange      EXHF   =       555.85015720
  -V(xc)+E(xc)   XCENC  =       592.57926233
  PAW double counting   =     27175.35713606   -27173.89511789
  entropy T*S    EENTRO =        -0.00028793
  eigenvalues    EBANDS =     -3217.08350286
  atomic energy  EATOM  =      9624.99314026
  ---------------------------------------------------
  free energy    TOTEN  =      -620.73962696 eV

  energy without entropy =     -620.73933903  energy(sigma->0) =     -620.73948300
  exchange ACFDT corr.  =        -0.00011602  see jH, gK, PRB 81, 115126


--------------------------------------------------------------------------------------------------------




--------------------------------------- Iteration      1(  16)  ---------------------------------------


    POTLOK:  cpu time    2.0824: real time    2.0833
    SETDIJ:  cpu time    2.1250: real time    2.1260
    TRIAL :  cpu time  340.6638: real time  340.8957
    CORREC:  cpu time    0.0010: real time    0.0009
    CHARGE:  cpu time    1.3715: real time    1.3727
    --------------------------------------------
      LOOP:  cpu time  346.2452: real time  346.4824

 eigenvalue-minimisations  :     0
 total energy-change (2. order) :-0.1479538E-01  (-0.1380483E-01)
 number of electron     246.0000002 magnetization       0.0002944
 augmentation part       12.2060737 magnetization      -0.1946728

 DIPCOR: dipole corrections for dipol
 direction  3 min pos     1,
 dipolmoment          -0.000691     -0.001914      0.298145 electrons x Angstroem
 Tr[quadrupol]     -6666.274581

 energy correction for charged system         0.000000 eV
 dipol+quadrupol energy correction           -0.002542 eV
 added-field ion interaction         -0.057484 eV  (added to PSCEN)


 Free energy of the ion-electron system (eV)
  ---------------------------------------------------
  alpha Z        PSCENC =       102.46620913
  Ewald energy   TEWEN  =     39587.96343595
  -Hartree energ DENC   =    -47869.29817001
  -exchange      EXHF   =       555.89880445
  -V(xc)+E(xc)   XCENC  =       592.60933671
  PAW double counting   =     27178.06969121   -27176.63615658
  entropy T*S    EENTRO =        -0.00026778
  eigenvalues    EBANDS =     -3216.82042554
  atomic energy  EATOM  =      9624.99314026
  ---------------------------------------------------
  free energy    TOTEN  =      -620.75442234 eV

  energy without entropy =     -620.75415456  energy(sigma->0) =     -620.75428845
  exchange ACFDT corr.  =        -0.00010562  see jH, gK, PRB 81, 115126


--------------------------------------------------------------------------------------------------------




--------------------------------------- Iteration      1(  17)  ---------------------------------------


    POTLOK:  cpu time    2.0817: real time    2.0830
    SETDIJ:  cpu time    2.1201: real time    2.1242
    TRIAL :  cpu time  340.8022: real time  341.0200
    CORREC:  cpu time    0.0009: real time    0.0009
    CHARGE:  cpu time    1.3687: real time    1.3692
    --------------------------------------------
      LOOP:  cpu time  346.3746: real time  346.6008

 eigenvalue-minimisations  :     0
 total energy-change (2. order) :-0.1335238E-01  (-0.1252417E-01)
 number of electron     246.0000002 magnetization       0.0002680
 augmentation part       12.2079492 magnetization      -0.1976163

 DIPCOR: dipole corrections for dipol
 direction  3 min pos     1,
 dipolmoment          -0.000694     -0.001923      0.299602 electrons x Angstroem
 Tr[quadrupol]     -6666.281358

 energy correction for charged system         0.000000 eV
 dipol+quadrupol energy correction           -0.002567 eV
 added-field ion interaction         -0.057765 eV  (added to PSCEN)


 Free energy of the ion-electron system (eV)
  ---------------------------------------------------
  alpha Z        PSCENC =       102.46590328
  Ewald energy   TEWEN  =     39587.96343595
  -Hartree energ DENC   =    -47869.57870959
  -exchange      EXHF   =       555.94420104
  -V(xc)+E(xc)   XCENC  =       592.63819861
  PAW double counting   =     27180.88879365   -27179.47933822
  entropy T*S    EENTRO =        -0.00025198
  eigenvalues    EBANDS =     -3216.60313192
  atomic energy  EATOM  =      9624.99314026
  ---------------------------------------------------
  free energy    TOTEN  =      -620.76777471 eV

  energy without entropy =     -620.76752273  energy(sigma->0) =     -620.76764872
  exchange ACFDT corr.  =        -0.00009765  see jH, gK, PRB 81, 115126


[...]
  Total     -41.12789   -42.15697     0.75596    -0.00636    -1.02722    -1.00877
  in kB     -20.74178   -21.26077     0.38125    -0.00321    -0.51805    -0.50875
  external pressure =      -13.87 kB  Pullay stress =        0.00 kB


 VOLUME and BASIS-vectors are now :
 -----------------------------------------------------------------------------
  energy-cutoff  :      500.00
  volume of cell :     3176.88
      direct lattice vectors                 reciprocal lattice vectors
    12.876000000  0.000000000  0.000000000     0.077663871  0.001132457  0.000187282
    -0.180562648 12.382983632  0.000000000     0.000000000  0.080755982  0.000518372
    -0.046182764 -0.127897446 19.924835996     0.000000000  0.000000000  0.050188619

  length of vectors
    12.876000000 12.384300000 19.925300000     0.077672353  0.080757645  0.050188619


 FORCES acting on ions:
    Electron-Ion                     Ewald-Force                    Non-Local-Force
 -----------------------------------------------------------------------------------------------
   0.319E+01 -.667E+01 -.117E+02   -.319E+01 0.659E+01 0.117E+02   0.110E+00 -.120E+00 -.131E-01
   -.135E+01 -.293E+01 -.783E+01   0.155E+01 0.285E+01 0.783E+01   -.192E+00 0.261E-01 -.145E-02
   0.153E+01 -.199E+01 -.689E+01   -.150E+01 0.193E+01 0.691E+01   -.117E+00 0.452E-01 -.223E-01
   0.984E+01 -.233E+01 -.184E+02   -.100E+02 0.228E+01 0.184E+02   0.264E+00 0.105E+00 0.234E-02
   0.247E+01 0.704E+00 -.150E+02   -.243E+01 -.704E+00 0.150E+02   0.945E-02 -.237E-01 -.205E-01
   0.844E-01 0.631E+01 -.382E+01   0.911E-01 -.666E+01 0.386E+01   -.127E+00 0.275E+00 -.340E-01
   -.149E+01 0.420E+01 -.901E+01   0.149E+01 -.425E+01 0.905E+01   -.631E-01 0.100E+00 -.440E-01
   0.116E+02 0.619E+01 -.173E+02   -.117E+02 -.628E+01 0.173E+02   0.188E+00 -.465E-01 0.123E-01
   0.134E+02 0.516E+02 -.707E+01   -.150E+02 -.545E+02 0.704E+01   0.153E+01 0.316E+01 0.776E-02
   0.108E+02 0.825E+01 0.940E+01   -.110E+02 -.820E+01 -.937E+01   0.186E+00 -.374E-02 -.132E-01
   0.837E+01 0.108E+02 0.403E+00   -.857E+01 -.111E+02 -.412E+00   0.214E+00 0.309E+00 0.259E-01
   0.326E+02 -.259E+02 0.309E+01   -.346E+02 0.289E+02 -.297E+01   0.191E+01 -.293E+01 -.121E+00
   0.997E+01 -.510E+01 0.929E+01   -.102E+02 0.537E+01 -.930E+01   0.233E+00 -.250E+00 0.225E-01
   0.183E+02 -.542E+01 0.105E+02   -.187E+02 0.600E+01 -.106E+02   0.284E+00 -.507E+00 0.745E-01
   0.344E+02 -.179E+02 0.628E+01   -.377E+02 0.181E+02 -.636E+01   0.311E+01 -.169E+00 0.119E+00
   0.143E+02 -.160E+02 -.598E+00   -.146E+02 0.161E+02 0.565E+00   0.344E+00 -.267E+00 0.157E-01
   0.292E+01 -.519E+01 -.223E+01   -.280E+01 0.530E+01 0.224E+01   -.979E-01 -.503E-01 -.196E-02
   0.555E+01 -.745E+01 0.189E+01   -.585E+01 0.728E+01 -.185E+01   0.282E+00 0.109E+00 -.292E-01
   0.576E+01 -.113E+02 -.113E+02   -.606E+01 0.119E+02 0.113E+02   0.167E+00 -.338E+00 -.234E-01
   0.970E+00 0.115E+00 -.422E+02   -.125E+01 -.104E+00 0.423E+02   0.259E+00 -.649E-01 -.109E+00
   0.432E+01 0.550E+01 -.291E+02   -.480E+01 -.583E+01 0.291E+02   0.383E+00 0.339E+00 -.654E-02
   0.587E+01 -.532E+01 -.329E+02   -.574E+01 0.530E+01 0.329E+02   -.874E-01 -.215E-01 0.250E-01
   -.514E+01 0.592E+01 -.413E+02   0.527E+01 -.638E+01 0.413E+02   -.103E+00 0.478E+00 -.213E-01
   0.360E+01 0.167E+02 -.449E+02   -.377E+01 -.174E+02 0.452E+02   0.255E+00 0.725E+00 -.347E+00
   0.368E+02 0.312E+02 -.294E+02   -.393E+02 -.344E+02 0.295E+02   0.251E+01 0.312E+01 -.115E+00
   0.117E+02 0.123E+02 -.354E+02   -.121E+02 -.127E+02 0.354E+02   0.347E+00 0.450E+00 -.469E-01
   -.157E+02 0.237E+02 -.275E+02   0.164E+02 -.250E+02 0.278E+02   -.665E+00 0.108E+01 -.311E+00
   -.201E+02 0.304E+02 0.129E+01   0.220E+02 -.342E+02 -.437E+00   -.183E+01 0.392E+01 -.952E+00
   0.120E+02 -.204E+02 -.317E+02   -.138E+02 0.236E+02 0.326E+02   0.166E+01 -.310E+01 -.995E+00
   0.175E+01 -.113E+02 -.245E+02   -.165E+01 0.116E+02 0.245E+02   0.776E-01 -.273E+00 -.307E-01
   -.143E+02 -.274E+02 -.285E+02   0.158E+02 0.304E+02 0.293E+02   -.135E+01 -.265E+01 -.831E+00
   -.580E+01 -.964E+01 -.360E+02   0.559E+01 0.101E+02 0.361E+02   0.136E+00 -.337E+00 -.721E-01
   -.204E+01 -.210E+01 -.100E+02   0.218E+01 0.206E+01 0.100E+02   -.886E-01 -.454E-02 0.246E-01
   -.489E+01 0.350E+01 -.291E+02   0.489E+01 -.363E+01 0.291E+02   -.454E-01 0.150E+00 -.325E-01
   -.761E+01 0.115E+01 -.205E+02   0.774E+01 -.117E+01 0.205E+02   -.158E+00 -.702E-02 -.294E-01
   -.437E+01 0.308E+01 -.979E+01   0.456E+01 -.322E+01 0.983E+01   -.181E+00 0.139E+00 -.410E-01
   -.625E+01 0.265E+01 -.878E+01   0.653E+01 -.273E+01 0.876E+01   -.256E+00 0.925E-01 0.154E-01
   -.155E+02 0.823E+01 -.397E+01   0.161E+02 -.848E+01 0.364E+01   -.643E+00 0.232E+00 0.320E+00
   -.101E+02 0.878E+01 -.167E+02   0.103E+02 -.909E+01 0.168E+02   -.252E+00 0.315E+00 -.825E-01
   -.487E+01 0.203E+01 -.312E+01   0.507E+01 -.215E+01 0.316E+01   -.217E+00 0.919E-01 -.359E-01
   -.873E+01 0.359E+01 0.463E+01   0.922E+01 -.346E+01 -.448E+01   -.480E+00 -.108E+00 -.143E+00
   -.420E+02 -.198E+02 0.440E+02   0.461E+02 0.204E+02 -.431E+02   -.423E+01 -.669E+00 -.751E+00
   -.183E+02 0.455E+00 0.972E+01   0.189E+02 -.590E+00 -.962E+01   -.564E+00 0.166E+00 -.103E+00
   0.386E+00 -.524E+01 0.161E+02   -.494E+00 0.551E+01 -.162E+02   0.126E+00 -.278E+00 0.115E+00
   0.151E+01 0.344E+00 0.202E+02   -.142E+01 -.964E-01 -.201E+02   -.644E-01 -.167E+00 -.762E-01
   -.333E+02 0.119E+02 0.143E+02   0.367E+02 -.118E+02 -.140E+02   -.366E+01 0.397E-01 -.292E+00
   -.635E+01 -.936E+01 0.352E+02   0.666E+01 0.966E+01 -.350E+02   -.225E+00 -.324E+00 -.255E+00
   0.129E+01 -.155E+01 0.111E+02   -.119E+01 0.146E+01 -.111E+02   -.153E+00 0.684E-01 0.148E-01
   -.185E+01 -.393E+01 0.886E+00   0.211E+01 0.375E+01 -.885E+00   -.281E+00 0.126E+00 0.894E-02
   -.701E+01 -.351E+01 -.204E+02   0.715E+01 0.373E+01 0.204E+02   -.146E+00 -.161E+00 0.389E-01
   -.123E+02 -.341E+01 -.732E+01   0.128E+02 0.353E+01 0.741E+01   -.359E+00 -.138E+00 -.810E-01
   -.122E+01 0.434E+00 -.391E+01   0.130E+01 -.391E+00 0.396E+01   -.839E-01 0.127E-01 -.321E-01
   -.132E+02 0.258E+02 -.979E+01   0.343E+02 -.249E+02 0.103E+02   -.203E+02 -.116E+01 -.592E+00
   0.467E+02 0.207E+01 -.338E+02   -.568E+02 0.144E+02 0.345E+02   0.991E+01 -.162E+02 -.792E+00
   -.787E+01 -.549E+02 0.145E+03   -.122E+01 0.700E+02 -.151E+03   0.881E+01 -.147E+02 0.651E+01
   -.267E+02 -.240E+01 -.221E+01   0.354E+02 -.129E+02 0.266E+01   -.805E+01 0.145E+02 -.500E+00
   0.111E+02 0.422E+02 0.302E+02   -.206E+02 -.589E+02 -.318E+02   0.930E+01 0.157E+02 0.170E+01
   0.837E+00 -.261E+01 -.947E+02   -.180E+02 -.520E+01 0.106E+03   0.128E+02 0.619E+01 -.734E+01
   -.284E+02 -.446E+02 0.424E+03   0.397E+02 0.484E+02 -.425E+03   -.748E+01 -.978E+00 -.297E+01
 -----------------------------------------------------------------------------------------------
   -.269E+01 -.613E+01 0.943E+01   -.639E-13 -.711E-13 -.341E-12   0.279E+01 0.609E+01 -.925E+01
 
 
 POSITION                                       TOTAL-FORCE (eV/Angst)
 -----------------------------------------------------------------------------------
      2.83416     -0.02679     10.08010         0.114882     -0.211151     -0.005441
      0.69651      1.20439     10.05473        -0.000215     -0.055523      0.002783
      1.40160     -0.03704     10.05062        -0.099399     -0.009863     -0.002075
      3.54176      1.22697     10.11657         0.090446      0.060554     -0.005488
      2.84539      2.49328     10.08755         0.044662     -0.029601     -0.012768
      0.66227      3.68309     10.01032         0.042591     -0.056071      0.004533
      1.40416      2.45882     10.05428        -0.068394      0.052023     -0.005811
      3.56229      3.75975     10.07338         0.042294     -0.155222     -0.012398
      2.77645      5.00753     10.00978        -0.021601      0.483336     -0.023337
      0.56797      6.16237      9.92412         0.009472      0.051519      0.016155
      1.33445      4.94158      9.98000         0.025322     -0.038797      0.019463
      2.65440      7.41847      9.95278         0.054584     -0.031742      0.002499
      0.50342      8.63515      9.92967         0.063331      0.006198      0.019415
      1.23753      7.41520      9.92545        -0.023644      0.045653      0.030374
      3.37663      8.65896      9.95433        -0.061475     -0.025645      0.044346
      2.65016      9.87551      9.99617        -0.009545     -0.182333     -0.016665
      0.50495     11.10623     10.01266         0.018816      0.053110      0.009040
      1.21596      9.86827      9.97845        -0.004939     -0.061257      0.005599
      3.36424     11.11827     10.06332        -0.123728      0.203787     -0.001017
      6.93079     12.30577     10.18739        -0.001528     -0.054124     -0.042004
      4.96482      1.19148     10.16083        -0.087709      0.030329     -0.020864
      5.68510     -0.05944     10.16730         0.044484     -0.045788     -0.014815
      7.83555      1.14509     10.18677         0.019760      0.045066     -0.025430
      7.11578      2.36712     10.16798         0.102612      0.079845     -0.080420
      5.01270      3.70052     10.09596         0.162836      0.070846     -0.053642
      5.68651      2.42521     10.15897        -0.085066      0.016887     -0.038748
      7.85650      3.56226     10.04520         0.042930     -0.135532     -0.016411
      7.15401      4.75230      9.88833        -0.045743      0.338130     -0.157775
      6.94545      9.84249     10.02586         0.017307     -0.070885     -0.130392
      4.79787     11.08034     10.10601         0.174610     -0.068126     -0.018731
      5.49878      9.82407     10.04899         0.057540      0.142451     -0.066698
      7.64613     11.07530     10.12140        -0.068456      0.101010     -0.056389
     11.41770     -0.06108     10.05647         0.049778     -0.045671      0.002625
      9.26489      1.15302     10.13415        -0.045424      0.020715     -0.029735
      9.80111     12.30404     10.09831        -0.045473     -0.026254     -0.007113
     12.13741      1.17977     10.05557        -0.004053      0.006317      0.000153
     11.41520      2.40907     10.03971         0.015934      0.014235     -0.004227
      9.27144      3.59824      9.98762        -0.071473     -0.010037      0.007054
      9.98795      2.38272     10.06563        -0.024132      0.027636     -0.014567
     12.10417      3.65930      9.99342        -0.025618     -0.023051      0.000170
     11.36162      4.88410      9.92255        -0.016734      0.017998     -0.005661
      9.17413      6.04417      9.71644        -0.318925     -0.115781      0.101984
      9.94065      4.85041      9.88045         0.036544      0.039498     -0.008087
     12.01307      6.14548      9.88258         0.025091     -0.029201      0.024827
     11.24398      7.36827      9.84574         0.025835      0.078227      0.007798
      9.06149      8.61048      9.84508        -0.421050      0.173436      0.032899
      9.79323      7.34690      9.76993         0.079137     -0.050798     -0.003187
     11.94699      8.61062      9.90576        -0.064035     -0.016460      0.009071
     11.22971      9.84333      9.96194        -0.039894     -0.050958      0.010483
      9.08147     11.07393     10.07234        -0.010823      0.045207     -0.013977
      9.79606      9.83215      9.97253         0.084665     -0.025149     -0.002370
     11.94694     11.08673     10.01239        -0.008080      0.061483      0.011097
      3.36977      6.23883      9.98412        -0.953947     -0.362660     -0.097446
      5.79497      4.84971     10.00821         0.657255     -1.102162     -0.134242
      7.81192      5.90952      9.54693         0.484008     -0.851065      0.658953
      4.77614      8.61630      9.95070        -0.023979      0.442369     -0.114285
      7.67214      8.67150      9.80214         0.599031      0.374002      0.280366
      5.27259      6.69399      9.96259        -1.281067     -0.329002      1.522538
      6.58258      7.29782      8.92581         0.870391      1.188043     -1.582006
 -----------------------------------------------------------------------------------
    total drift:                               -0.006821     -0.025179     -0.016961


--------------------------------------------------------------------------------------------------------



  FREE ENERGIE OF THE ION-ELECTRON SYSTEM (eV)
  ---------------------------------------------------
  free  energy   TOTEN  =      -620.98595333 eV

  energy  without entropy=     -620.98582184  energy(sigma->0) =     -620.98588759
 


--------------------------------------------------------------------------------------------------------


    POTLOK:  cpu time    4.1657: real time    4.1724


--------------------------------------------------------------------------------------------------------


 stress matrix after NEB project (eV)
    -41.12789     -0.00630     -1.00877
     -0.00636    -42.15697     -1.02697
     -1.00887     -1.02722      0.75596
  FORCES: max atom, RMS     2.161428    0.501962
  FORCE total and by dimension    3.855641    1.582006
  Stress total and by dimension   58.935811   42.156967
 writing wavefunctions
     LOOP+:  cpu time44698.9611: real time44743.5246
    4ORBIT:  cpu time    0.0000: real time    0.0000
 


 total charge     
 
# of ion       s       p       d       tot
------------------------------------------
    1        0.862   1.760   0.000   2.622
    2        0.864   1.752   0.000   2.616
    3        0.863   1.768   0.000   2.631
    4        0.860   1.758   0.000   2.618
    5        0.857   1.723   0.000   2.579
    6        0.864   1.760   0.000   2.625
    7        0.859   1.756   0.000   2.614
    8        0.844   1.728   0.000   2.572
    9        0.853   1.695   0.000   2.548
   10        0.867   1.753   0.000   2.619
   11        0.860   1.762   0.000   2.622
   12        0.860   1.757   0.000   2.617
   13        0.864   1.776   0.000   2.640
   14        0.870   1.789   0.000   2.659
   15        0.857   1.738   0.000   2.596
   16        0.866   1.768   0.000   2.634
   17        0.865   1.760   0.000   2.624
   18        0.864   1.770   0.000   2.634
   19        0.863   1.763   0.000   2.626
   20        0.866   1.781   0.000   2.647
   21        0.865   1.755   0.000   2.620
   22        0.861   1.763   0.000   2.624
   23        0.867   1.783   0.000   2.650
   24        0.872   1.778   0.000   2.650
   25        0.850   1.697   0.000   2.547
   26        0.862   1.767   0.000   2.628
   27        0.877   1.833   0.000   2.710
   28        0.869   1.742   0.000   2.611
   29        0.852   1.733   0.000   2.586
   30        0.862   1.755   0.000   2.617
   31        0.846   1.711   0.000   2.557
   32        0.866   1.773   0.000   2.639
   33        0.864   1.759   0.000   2.624
   34        0.867   1.767   0.000   2.634
   35        0.864   1.773   0.000   2.636
   36        0.863   1.766   0.000   2.630
   37        0.868   1.766   0.000   2.634
   38        0.872   1.786   0.000   2.658
   39        0.868   1.784   0.000   2.652
   40        0.863   1.766   0.000   2.628
   41        0.869   1.767   0.000   2.636
   42        0.859   1.715   0.000   2.575
   43        0.866   1.791   0.000   2.657
   44        0.861   1.770   0.000   2.631
   45        0.858   1.738   0.000   2.596
   46        0.851   1.696   0.000   2.547
   47        0.847   1.746   0.000   2.593
   48        0.863   1.772   0.000   2.635
   49        0.864   1.756   0.000   2.620
   50        0.865   1.755   0.000   2.620
   51        0.862   1.769   0.000   2.632
   52        0.864   1.764   0.000   2.628
   53        1.235   2.688   0.000   3.922
   54        1.229   2.692   0.000   3.921
   55        1.234   2.716   0.000   3.950
   56        1.213   2.661   0.000   3.874
   57        1.227   2.684   0.000   3.911
   58        0.461   0.559   6.611   7.630
   59        0.478   0.548   4.080   5.107
--------------------------------------------------
tot         51.913 105.958  10.691 168.562
 


 magnetization (x)
 
# of ion       s       p       d       tot
------------------------------------------
    1       -0.000  -0.005   0.000  -0.006
    2       -0.000  -0.003   0.000  -0.004
    3        0.000   0.006   0.000   0.007
    4        0.000   0.001   0.000   0.002
    5       -0.000  -0.002   0.000  -0.002
    6       -0.001  -0.006   0.000  -0.007
    7        0.000   0.005   0.000   0.006
    8        0.000   0.002   0.000   0.002
    9       -0.001  -0.007   0.000  -0.008
   10       -0.000   0.000   0.000   0.000
   11       -0.000   0.002   0.000   0.001
   12       -0.000  -0.006   0.000  -0.007
   13       -0.001  -0.007   0.000  -0.008
   14        0.000   0.002   0.000   0.002
   15        0.002   0.016   0.000   0.017
   16       -0.000  -0.004   0.000  -0.005
   17       -0.000  -0.003   0.000  -0.004
   18        0.001   0.005   0.000   0.006
   19        0.001   0.008   0.000   0.008
   20       -0.000  -0.001   0.000  -0.001
   21       -0.000  -0.000   0.000  -0.001
   22       -0.000  -0.001   0.000  -0.001
   23        0.000   0.001   0.000   0.001
   24       -0.000  -0.001   0.000  -0.001
   25       -0.000  -0.004   0.000  -0.004
   26        0.000   0.001   0.000   0.001
   27       -0.000  -0.004   0.000  -0.004
   28        0.001   0.009   0.000   0.010
   29        0.001   0.005   0.000   0.006
   30       -0.000  -0.001   0.000  -0.001
   31        0.000   0.002   0.000   0.002
   32        0.000   0.001   0.000   0.001
   33       -0.000  -0.004   0.000  -0.005
   34        0.000   0.001   0.000   0.001
   35        0.000   0.001   0.000   0.001
   36        0.000   0.003   0.000   0.003
   37       -0.000  -0.002   0.000  -0.002
   38        0.000   0.003   0.000   0.003
   39       -0.000   0.000   0.000   0.000
   40        0.000   0.002   0.000   0.002
   41       -0.000  -0.003   0.000  -0.003
   42        0.001   0.006   0.000   0.007
   43       -0.000  -0.002   0.000  -0.002
   44        0.000   0.002   0.000   0.002
   45       -0.000  -0.003   0.000  -0.003
   46        0.001   0.001   0.000   0.002
   47        0.000   0.001   0.000   0.001
   48        0.000   0.003   0.000   0.003
   49       -0.000  -0.002   0.000  -0.002
   50       -0.000  -0.003   0.000  -0.003
   51        0.000   0.001   0.000   0.001
   52        0.000   0.003   0.000   0.003
   53       -0.006  -0.005   0.000  -0.012
   54        0.002   0.006   0.000   0.008
   55       -0.008  -0.039   0.000  -0.046
   56        0.001  -0.005   0.000  -0.004
   57       -0.005  -0.036   0.000  -0.041
   58       -0.008   0.011  -2.291  -2.287
   59        0.047   0.004   2.231   2.282
--------------------------------------------------
tot          0.027  -0.046  -0.060  -0.079
 

 total amount of memory used by VASP MPI-rank0   231094. kBytes
=======================================================================

   base      :      30000. kBytes
   nonl-proj :       7143. kBytes
   fftplans  :      17540. kBytes
   grid      :      46049. kBytes
   one-center:         93. kBytes
   HF        :         23. kBytes
   nonlr-proj:      26491. kBytes
   wavefun   :     103755. kBytes
 
  
  
 General timing and accounting informations for this job:
 ========================================================
  
                  Total CPU time used (sec):    44749.410
                            User time (sec):    44695.843
                          System time (sec):       53.566
                         Elapsed time (sec):    44800.312
  
                   Maximum memory used (kb):      469040.
                   Average memory used (kb):           0.
  
                          Minor page faults:      2363752
                          Major page faults:          219
                 Voluntary context switches:       485660
