 vasp.5.4.4.18Apr17-6-g9f103f2a35 (build Feb 25 2019 10:51:38) complex          
  
 executed on             LinuxIFC date 2021.08.06  10:57:39
 running on   32 total cores
 distrk:  each k-point on   32 cores,    1 groups
 distr:  one band on NCORES_PER_BAND=  32 cores,    1 groups


--------------------------------------------------------------------------------------------------------


 INCAR:
 POTCAR:    PAW_PBE C 08Apr2002                   
 POTCAR:    PAW_PBE N 08Apr2002                   
 POTCAR:    PAW_PBE Co 02Aug2007                  
 POTCAR:    PAW_PBE Fe 06Sep2000                  

 ----------------------------------------------------------------------------- 
|                                                                             |
|           W    W    AA    RRRRR   N    N  II  N    N   GGGG   !!!           |
|           W    W   A  A   R    R  NN   N  II  NN   N  G    G  !!!           |
|           W    W  A    A  R    R  N N  N  II  N N  N  G       !!!           |
|           W WW W  AAAAAA  RRRRR   N  N N  II  N  N N  G  GGG   !            |
|           WW  WW  A    A  R   R   N   NN  II  N   NN  G    G                |
|           W    W  A    A  R    R  N    N  II  N    N   GGGG   !!!           |
|                                                                             |
|      For optimal performance we recommend to set                            |
|        NCORE= 4 - approx SQRT( number of cores)                             |
|      NCORE specifies how many cores store one orbital (NPAR=cpu/NCORE).     |
|      This setting can  greatly improve the performance of VASP for DFT.     |
|      The default,   NCORE=1            might be grossly inefficient         |
|      on modern multi-core architectures or massively parallel machines.     |
|      Do your own testing !!!!                                               |
|      Unfortunately you need to use the default for GW and RPA calculations. |
|      (for HF NCORE is supported but not extensively tested yet)             |
|                                                                             |
 ----------------------------------------------------------------------------- 

 POTCAR:    PAW_PBE C 08Apr2002                   
   VRHFIN =C: s2p2                                                              
   LEXCH  = PE                                                                  
   EATOM  =   147.1560 eV,   10.8157 Ry                                         
                                                                                
   TITEL  = PAW_PBE C 08Apr2002                                                 
   LULTRA =        F    use ultrasoft PP ?                                      
   IUNSCR =        1    unscreen: 0-lin 1-nonlin 2-no                           
   RPACOR =    1.200    partial core radius                                     
   POMASS =   12.011; ZVAL   =    4.000    mass and valenz                      
   RCORE  =    1.500    outmost cutoff radius                                   
   RWIGS  =    1.630; RWIGS  =    0.863    wigner-seitz radius (au A)           
   ENMAX  =  400.000; ENMIN  =  300.000 eV                                      
   ICORE  =        2    local potential                                         
   LCOR   =        T    correct aug charges                                     
   LPAW   =        T    paw PP                                                  
   EAUG   =  644.873                                                            
   DEXC   =    0.000                                                            
   RMAX   =    1.529    core radius for proj-oper                               
   RAUG   =    1.300    factor for augmentation sphere                          
   RDEP   =    1.501    radius for radial grids                                 
   RDEPT  =    1.300    core radius for aug-charge                              
                                                                                
   Atomic configuration                                                         
    4 entries                                                                   
     n  l   j            E        occ.                                          
     1  0  0.50      -273.3789   2.0000                                         
     2  0  0.50       -13.7508   2.0000                                         
     2  1  0.50        -5.2854   2.0000                                         
     3  2  1.50        -5.4423   0.0000                                         
   Description                                                                  
     l       E           TYP  RCUT    TYP  RCUT                                 
     0    -13.7508458     23  1.200                                             
     0     -8.2022199     23  1.200                                             
     1     -5.2854383     23  1.500                                             
     1     34.0145650     23  1.500                                             
     2     -5.4423304      7  1.500                                             
  local pseudopotential read in
  partial core-charges read in
  partial kinetic energy density read in
  atomic valenz-charges read in
  non local Contribution for L=           0  read in
    real space projection operators read in
  non local Contribution for L=           0  read in
    real space projection operators read in
  non local Contribution for L=           1  read in
    real space projection operators read in
  non local Contribution for L=           1  read in
    real space projection operators read in
    PAW grid and wavefunctions read in
 
   number of l-projection  operators is LMAX  =           4
   number of lm-projection operators is LMMAX =           8
 
 POTCAR:    PAW_PBE N 08Apr2002                   
   VRHFIN =N: s2p3                                                              
   LEXCH  = PE                                                                  
   EATOM  =   264.5486 eV,   19.4438 Ry                                         
                                                                                
   TITEL  = PAW_PBE N 08Apr2002                                                 
   LULTRA =        F    use ultrasoft PP ?                                      
   IUNSCR =        1    unscreen: 0-lin 1-nonlin 2-no                           
   RPACOR =    1.200    partial core radius                                     
   POMASS =   14.001; ZVAL   =    5.000    mass and valenz                      
   RCORE  =    1.500    outmost cutoff radius                                   
   RWIGS  =    1.400; RWIGS  =    0.741    wigner-seitz radius (au A)           
   ENMAX  =  400.000; ENMIN  =  300.000 eV                                      
   ICORE  =        2    local potential                                         
   LCOR   =        T    correct aug charges                                     
   LPAW   =        T    paw PP                                                  
   EAUG   =  627.112                                                            
   DEXC   =    0.000                                                            
   RMAX   =    1.529    core radius for proj-oper                               
   RAUG   =    1.300    factor for augmentation sphere                          
   RDEP   =    1.514    radius for radial grids                                 
   RDEPT  =    1.338    core radius for aug-charge                              
                                                                                
   Atomic configuration                                                         
    4 entries                                                                   
     n  l   j            E        occ.                                          
     1  0  0.50      -384.7179   2.0000                                         
     2  0  0.50       -18.5828   2.0000                                         
     2  1  0.50        -7.0898   3.0000                                         
     3  2  1.50        -6.8029   0.0000                                         
   Description                                                                  
     l       E           TYP  RCUT    TYP  RCUT                                 
     0    -18.5828119     23  1.200                                             
     0    -13.5018863     23  1.200                                             
     1     -7.0897853     23  1.500                                             
     1      9.5240782     23  1.500                                             
     2     -6.8029130      7  1.500                                             
  local pseudopotential read in
  partial core-charges read in
  partial kinetic energy density read in
  atomic valenz-charges read in
  non local Contribution for L=           0  read in
    real space projection operators read in
  non local Contribution for L=           0  read in
    real space projection operators read in
  non local Contribution for L=           1  read in
    real space projection operators read in
  non local Contribution for L=           1  read in
    real space projection operators read in
    PAW grid and wavefunctions read in
 
   number of l-projection  operators is LMAX  =           4
   number of lm-projection operators is LMMAX =           8
 
 POTCAR:    PAW_PBE Co 02Aug2007                  
   VRHFIN =Co: d8 s1                                                            
   LEXCH  = PE                                                                  
   EATOM  =   813.3670 eV,   59.7808 Ry                                         
                                                                                
   TITEL  = PAW_PBE Co 02Aug2007                                                
   LULTRA =        F    use ultrasoft PP ?                                      
   IUNSCR =        1    unscreen: 0-lin 1-nonlin 2-no                           
   RPACOR =    2.000    partial core radius                                     
   POMASS =   58.933; ZVAL   =    9.000    mass and valenz                      
   RCORE  =    2.300    outmost cutoff radius                                   
   RWIGS  =    2.460; RWIGS  =    1.302    wigner-seitz radius (au A)           
   ENMAX  =  267.968; ENMIN  =  200.976 eV                                      
   RCLOC  =    1.203    cutoff for local pot                                    
   LCOR   =        T    correct aug charges                                     
   LPAW   =        T    paw PP                                                  
   EAUG   =  477.818                                                            
   DEXC   =    0.000                                                            
   RMAX   =    2.360    core radius for proj-oper                               
   RAUG   =    1.300    factor for augmentation sphere                          
   RDEP   =    2.393    radius for radial grids                                 
   RDEPT  =    1.864    core radius for aug-charge                              
                                                                                
   Atomic configuration                                                         
    9 entries                                                                   
     n  l   j            E        occ.                                          
     1  0  0.50     -7587.6674   2.0000                                         
     2  0  0.50      -893.6084   2.0000                                         
     2  1  1.50      -764.5805   6.0000                                         
     3  0  0.50       -97.5973   2.0000                                         
     3  1  1.50       -60.9648   6.0000                                         
     3  2  2.50        -4.2382   8.0000                                         
     4  0  0.50        -4.3746   1.0000                                         
     4  1  1.50        -4.0817   0.0000                                         
     4  3  2.50        -1.3606   0.0000                                         
   Description                                                                  
     l       E           TYP  RCUT    TYP  RCUT                                 
     2     -4.2382362     23  2.300                                             
     2     -5.5988188     23  2.300                                             
     0     -4.3745797     23  2.300                                             
     0      5.7660125     23  2.300                                             
     1     -2.7211652     23  2.300                                             
     1     16.9860234     23  2.300                                             
  local pseudopotential read in
  partial core-charges read in
  partial kinetic energy density read in
  atomic valenz-charges read in
  non local Contribution for L=           2  read in
    real space projection operators read in
  non local Contribution for L=           2  read in
    real space projection operators read in
  non local Contribution for L=           0  read in
    real space projection operators read in
  non local Contribution for L=           0  read in
    real space projection operators read in
  non local Contribution for L=           1  read in
    real space projection operators read in
  non local Contribution for L=           1  read in
    real space projection operators read in
    PAW grid and wavefunctions read in
 
   number of l-projection  operators is LMAX  =           6
   number of lm-projection operators is LMMAX =          18
 
 POTCAR:    PAW_PBE Fe 06Sep2000                  
   VRHFIN =Fe:  d7 s1                                                           
   LEXCH  = PE                                                                  
   EATOM  =   594.3153 eV,   43.6809 Ry                                         
                                                                                
   TITEL  = PAW_PBE Fe 06Sep2000                                                
   LULTRA =        F    use ultrasoft PP ?                                      
   IUNSCR =        1    unscreen: 0-lin 1-nonlin 2-no                           
   RPACOR =    2.000    partial core radius                                     
   POMASS =   55.847; ZVAL   =    8.000    mass and valenz                      
   RCORE  =    2.300    outmost cutoff radius                                   
   RWIGS  =    2.460; RWIGS  =    1.302    wigner-seitz radius (au A)           
   ENMAX  =  267.882; ENMIN  =  200.911 eV                                      
   RCLOC  =    1.701    cutoff for local pot                                    
   LCOR   =        T    correct aug charges                                     
   LPAW   =        T    paw PP                                                  
   EAUG   =  511.368                                                            
   DEXC   =    0.000                                                            
   RMAX   =    2.356    core radius for proj-oper                               
   RAUG   =    1.300    factor for augmentation sphere                          
   RDEP   =    2.442    radius for radial grids                                 
   RDEPT  =    1.890    core radius for aug-charge                              
                                                                                
   Atomic configuration                                                         
    9 entries                                                                   
     n  l   j            E        occ.                                          
     1  0  0.50     -6993.8440   2.0000                                         
     2  0  0.50      -814.6047   2.0000                                         
     2  1  1.50      -693.3689   6.0000                                         
     3  0  0.50       -89.4732   2.0000                                         
     3  1  1.50       -55.6373   6.0000                                         
     3  2  2.50        -3.8151   7.0000                                         
     4  0  0.50        -4.2551   1.0000                                         
     4  1  1.50        -3.4015   0.0000                                         
     4  3  2.50        -1.3606   0.0000                                         
   Description                                                                  
     l       E           TYP  RCUT    TYP  RCUT                                 
     2     -3.8151135     23  2.300                                             
     2     -5.1756961     23  2.300                                             
     0     -4.2550963     23  2.300                                             
     0      7.2035603     23  2.300                                             
     1     -2.7211652     23  2.300                                             
     1     18.4316424     23  2.300                                             
  local pseudopotential read in
  partial core-charges read in
  partial kinetic energy density read in
  atomic valenz-charges read in
  non local Contribution for L=           2  read in
    real space projection operators read in
  non local Contribution for L=           2  read in
    real space projection operators read in
  non local Contribution for L=           0  read in
    real space projection operators read in
  non local Contribution for L=           0  read in
    real space projection operators read in
  non local Contribution for L=           1  read in
    real space projection operators read in
  non local Contribution for L=           1  read in
    real space projection operators read in
    PAW grid and wavefunctions read in
 
   number of l-projection  operators is LMAX  =           6
   number of lm-projection operators is LMMAX =          18
 

 ----------------------------------------------------------------------------- 
|                                                                             |
|  ADVICE TO THIS USER RUNNING 'VASP/VAMP'   (HEAR YOUR MASTER'S VOICE ...):  |
|                                                                             |
|      You have a (more or less) 'large supercell' and for larger cells       |
|      it might be more efficient to use real space projection opertators     |
|      So try LREAL= Auto  in the INCAR   file.                               |
|      Mind:          For very  accurate calculation you might also keep the  |
|      reciprocal projection scheme          (i.e. LREAL=.FALSE.)             |
|                                                                             |
 ----------------------------------------------------------------------------- 

  PAW_PBE C 08Apr2002                   :
 energy of atom  1       EATOM= -147.1560
 kinetic energy error for atom=    0.0076 (will be added to EATOM!!)
  PAW_PBE N 08Apr2002                   :
 energy of atom  2       EATOM= -264.5486
 kinetic energy error for atom=    0.0138 (will be added to EATOM!!)
  PAW_PBE Co 02Aug2007                  :
 energy of atom  3       EATOM= -813.3670
 kinetic energy error for atom=    0.0028 (will be added to EATOM!!)
  PAW_PBE Fe 06Sep2000                  :
 energy of atom  4       EATOM= -594.3153
 kinetic energy error for atom=    0.0026 (will be added to EATOM!!)
 
 
 POSCAR:  C  N Co Fe                             
  positions in cartesian coordinates
  No initial velocities read in
 exchange correlation table for  LEXCH =        8
   RHO(1)=    0.500       N(1)  =     2000
   RHO(2)=  100.500       N(2)  =     4000

 VTST: version 3.2, (02/03/18)

 CHAIN: initializing optimizer
 
 OPT: Using VASP Conjugate-Gradient optimizer
 CHAIN: Read ICHAIN            0
 
 POSCAR:  C  N Co Fe                             
  positions in cartesian coordinates
  No initial velocities read in
 


--------------------------------------------------------------------------------------------------------


 ion  position               nearest neighbor table
   1  0.221  1.000  0.500-   3 1.41   4 1.43  20 1.43
   2  0.055  0.101  0.500-  34 1.42   3 1.44   7 1.44
   3  0.109  1.000  0.500-   1 1.41  18 1.44   2 1.44
   4  0.276  0.100  0.500-  22 1.41   5 1.43   1 1.43
   5  0.224  0.201  0.500-   7 1.43   4 1.43   8 1.45
   6  0.055  0.301  0.500-  38 1.43   7 1.44  11 1.45
   7  0.111  0.201  0.500-   5 1.43   6 1.44   2 1.44
   8  0.283  0.300  0.500-  51 1.42   9 1.44   5 1.45
   9  0.225  0.400  0.500-  11 1.43   8 1.44  12 1.45
  10  0.056  0.501  0.500-  15 1.44  11 1.44  42 1.44
  11  0.113  0.401  0.500-   9 1.43  10 1.44   6 1.45
  12  0.283  0.500  0.500-  53 1.34  13 1.45   9 1.45
  13  0.227  0.601  0.500-  15 1.44  16 1.45  12 1.45
  14  0.056  0.699  0.500-  46 1.43  19 1.43  15 1.44
  15  0.114  0.600  0.500-  14 1.44  13 1.44  10 1.44
  16  0.284  0.701  0.500-  55 1.39  13 1.45  17 1.45
  17  0.224  0.800  0.500-  20 1.42  19 1.43  16 1.45
  18  0.055  0.899  0.500-  50 1.42   3 1.44  19 1.44
  19  0.111  0.799  0.500-  17 1.43  14 1.43  18 1.44
  20  0.276  0.900  0.500-  28 1.42  17 1.42   1 1.43
  21  0.555  0.999  0.500-  23 1.41  30 1.42  24 1.42
  22  0.388  0.098  0.500-  26 1.41   4 1.41  23 1.42
  23  0.444  0.999  0.500-  21 1.41  28 1.42  22 1.42
  24  0.611  0.098  0.500-  25 1.41  32 1.41  21 1.42
  25  0.555  0.195  0.500-  24 1.41  26 1.42  52 1.42
  26  0.443  0.195  0.500-  22 1.41  25 1.42  51 1.42
  27  0.555  0.802  0.500-  56 1.38  30 1.41  29 1.42
  28  0.388  0.901  0.500-  29 1.41  20 1.42  23 1.42
  29  0.443  0.802  0.500-  55 1.38  28 1.41  27 1.42
  30  0.610  0.901  0.500-  27 1.41  48 1.42  21 1.42
  31  0.889  1.000  0.500-  33 1.41  50 1.44  34 1.44
  32  0.722  0.099  0.500-  24 1.41  37 1.43  33 1.43
  33  0.778  1.000  0.500-  31 1.41  32 1.43  48 1.43
  34  0.943  0.101  0.500-   2 1.42  31 1.44  35 1.44
  35  0.887  0.201  0.500-  37 1.43  38 1.44  34 1.44
  36  0.715  0.300  0.500-  52 1.42  41 1.44  37 1.45
  37  0.775  0.201  0.500-  35 1.43  32 1.43  36 1.45
  38  0.943  0.301  0.500-   6 1.43  35 1.44  39 1.45
  39  0.886  0.401  0.500-  41 1.43  42 1.44  38 1.45
  40  0.715  0.500  0.500-  54 1.34  45 1.45  41 1.45
  41  0.773  0.400  0.500-  39 1.43  36 1.44  40 1.45
  42  0.942  0.501  0.500-  43 1.44  39 1.44  10 1.44
  43  0.885  0.600  0.500-  46 1.44  45 1.44  42 1.44
  44  0.714  0.701  0.500-  56 1.39  45 1.45  49 1.45
  45  0.771  0.601  0.500-  43 1.44  44 1.45  40 1.45
  46  0.943  0.699  0.500-  14 1.43  47 1.43  43 1.44
  47  0.887  0.799  0.500-  49 1.43  46 1.43  50 1.44
  48  0.722  0.900  0.500-  30 1.42  49 1.42  33 1.43
  49  0.774  0.800  0.500-  48 1.42  47 1.43  44 1.45
  50  0.943  0.899  0.500-  18 1.42  31 1.44  47 1.44
  51  0.395  0.297  0.500-  26 1.42   8 1.42  57 1.93
  52  0.603  0.297  0.500-  25 1.42  36 1.42  57 1.93
  53  0.389  0.498  0.500-  12 1.34  57 1.78  58 1.82
  54  0.610  0.498  0.500-  40 1.34  57 1.78  58 1.82
  55  0.393  0.704  0.500-  29 1.38  16 1.39  58 1.96
  56  0.605  0.704  0.500-  27 1.38  44 1.39  58 1.96
  57  0.499  0.410  0.500-  54 1.78  53 1.78  51 1.93  52 1.93  58 2.25
  58  0.499  0.590  0.500-  53 1.82  54 1.82  56 1.96  55 1.96  57 2.25
 
  LATTYP: Found a triclinic cell.
 ALAT       =    12.4821376089
 B/A-ratio  =     1.4265359774
 C/A-ratio  =     1.6056882017
 COS(alpha) =     0.0000656710
 COS(beta)  =     0.0003155486
 COS(gamma) =     0.7009925147
  
  Lattice vectors:
  
 A1 = (  -0.0007742574,  12.4821375848,  -0.0000573306)
 A2 = (  12.6980620820,  12.4828134707,  -0.0000441083)
 A3 = (  -0.0043503253,   0.0062320323, -20.0424196500)


Analysis of symmetry for initial positions (statically):
=====================================================================
 Subroutine PRICEL returns:
 Original cell was already a primitive cell.
 

 Routine SETGRP: Setting up the symmetry group for a 
 triclinic supercell.


 Subroutine GETGRP returns: Found  1 space group operations
 (whereof  1 operations were pure point group operations)
 out of a pool of  2 trial point group operations.


The static configuration has the point symmetry C_1 .


Analysis of symmetry for dynamics (positions and initial velocities):
=====================================================================
 Subroutine PRICEL returns:
 Original cell was already a primitive cell.
 

 Routine SETGRP: Setting up the symmetry group for a 
 triclinic supercell.


 Subroutine GETGRP returns: Found  1 space group operations
 (whereof  1 operations were pure point group operations)
 out of a pool of  2 trial point group operations.


The dynamic configuration has the point symmetry C_1 .


Analysis of structural, dynamic, and magnetic symmetry:
=====================================================================
 Subroutine PRICEL returns:
 Original cell was already a primitive cell.
 

 Routine SETGRP: Setting up the symmetry group for a 
 triclinic supercell.


 Subroutine GETGRP returns: Found  1 space group operations
 (whereof  1 operations were pure point group operations)
 out of a pool of  2 trial point group operations.


The magnetic configuration has the point symmetry C_1 .


 Subroutine INISYM returns: Found  1 space group operations
 (whereof  1 operations are pure point group operations),
 and found     1 'primitive' translations

 
 
 KPOINTS: KPOINTS created by Atomic Simulation Env

Automatic generation of k-mesh.
Space group operators:
 irot       det(A)        alpha          n_x          n_y          n_z        tau_x        tau_y        tau_z
    1     1.000000     0.000000     1.000000     0.000000     0.000000     0.000000     0.000000     0.000000
 
 Subroutine IBZKPT returns following result:
 ===========================================
 
 Found      2 irreducible k-points:
 
 Following reciprocal coordinates:
            Coordinates               Weight
  0.250000  0.250000  0.000000      2.000000
 -0.250000  0.250000  0.000000      2.000000
 
 Following cartesian coordinates:
            Coordinates               Weight
  0.019686  0.020030  0.000002      2.000000
 -0.019688  0.020027  0.000011      2.000000
 
 
 Subroutine IBZKPT_HF returns following result:
 ==============================================
 
 Found      4 k-points in 1st BZ
 the following      4 k-points will be used (e.g. in the exchange kernel)
 Following reciprocal coordinates:   # in IRBZ
  0.250000  0.250000  0.000000    0.25000000   1 t-inv F
 -0.250000  0.250000  0.000000    0.25000000   2 t-inv F
 -0.250000 -0.250000 -0.000000    0.25000000   1 t-inv T
  0.250000 -0.250000 -0.000000    0.25000000   2 t-inv T


--------------------------------------------------------------------------------------------------------




 Dimension of arrays:
   k-points           NKPTS =      2   k-points in BZ     NKDIM =      4   number of bands    NBANDS=    156
   number of dos      NEDOS =    301   number of ions     NIONS =     58
   non local maximal  LDIM  =      6   non local SUM 2l+1 LMDIM =     18
   total plane-waves  NPLWV = ******
   max r-space proj   IRMAX =      1   max aug-charges    IRDMAX=  17359
   dimension x,y,z NGX =    96 NGY =   96 NGZ =  150
   dimension x,y,z NGXF=   192 NGYF=  192 NGZF=  300
   support grid    NGXF=   192 NGYF=  192 NGZF=  300
   ions per type =              52   4   1   1
   NGX,Y,Z   is equivalent  to a cutoff of  12.57, 12.79, 12.44 a.u.
   NGXF,Y,Z  is equivalent  to a cutoff of  25.14, 25.57, 24.88 a.u.

 SYSTEM =  unknown system                          
 POSCAR =   C  N Co Fe                             

 Startparameter for this run:
   NWRITE =      2    write-flag & timer
   PREC   = accura    normal or accurate (medium, high low for compatibility)
   ISTART =      1    job   : 0-new  1-cont  2-samecut
   ICHARG =      0    charge: 1-file 2-atom 10-const
   ISPIN  =      2    spin polarized calculation?
   LNONCOLLINEAR =      F non collinear calculations
   LSORBIT =      F    spin-orbit coupling
   INIWAV =      1    electr: 0-lowe 1-rand  2-diag
   LASPH  =      T    aspherical Exc in radial PAW
   METAGGA=      F    non-selfconsistent MetaGGA calc.

 Electronic Relaxation 1
   ENCUT  =  500.0 eV  36.75 Ry    6.06 a.u.  23.15 22.76 36.54*2*pi/ulx,y,z
   ENINI  =  500.0     initial cutoff
   ENAUG  =  644.9 eV  augmentation charge cutoff
   NELM   =    250;   NELMIN=  2; NELMDL=  0     # of ELM steps 
   EDIFF  = 0.1E-03   stopping-criterion for ELM
   LREAL  =      F    real-space projection
   NLSPLINE    = F    spline interpolate recip. space projectors
   LCOMPAT=      F    compatible to vasp.4.4
   GGA_COMPAT  = T    GGA compatible to vasp.4.4-vasp.4.6
   LMAXPAW     = -100 max onsite density
   LMAXMIX     =    2 max onsite mixed and CHGCAR
   VOSKOWN=      0    Vosko Wilk Nusair interpolation
   ROPT   =    0.00000   0.00000   0.00000   0.00000
 Ionic relaxation
   EDIFFG = -.3E-01   stopping-criterion for IOM
   NSW    =      0    number of steps for IOM
   NBLOCK =      1;   KBLOCK =      1    inner block; outer block 
   IBRION =     -1    ionic relax: 0-MD 1-quasi-New 2-CG
   NFREE  =      1    steps in history (QN), initial steepest desc. (CG)
   ISIF   =      2    stress and relaxation
   IWAVPR =     10    prediction:  0-non 1-charg 2-wave 3-comb
   ISYM   =      3    0-nonsym 1-usesym 2-fastsym
   LCORR  =      T    Harris-Foulkes like correction to forces

   POTIM  = 0.5000    time-step for ionic-motion
   TEIN   =    0.0    initial temperature
   TEBEG  =    0.0;   TEEND  =   0.0 temperature during run
   SMASS  =  -3.00    Nose mass-parameter (am)
   estimated Nose-frequenzy (Omega)   =  0.10E-29 period in steps =****** mass=  -0.369E-26a.u.
   SCALEE = 1.0000    scale energy and forces
   NPACO  =    256;   APACO  = 16.0  distance and # of slots for P.C.
   PSTRESS=    0.0 pullay stress

  Mass of Ions in am
   POMASS =  12.01 14.00 58.93 55.85
  Ionic Valenz
   ZVAL   =   4.00  5.00  9.00  8.00
  Atomic Wigner-Seitz radii
   RWIGS  =  -1.00 -1.00 -1.00 -1.00
  virtual crystal weights 
   VCA    =   1.00  1.00  1.00  1.00
   NELECT =     245.0000    total number of electrons
   NUPDOWN=      -1.0000    fix difference up-down

 DOS related values:
   EMIN   =  10.00;   EMAX   =-10.00  energy-range for DOS
   EFERMI =   0.00
   ISMEAR =     0;   SIGMA  =   0.10  broadening in eV -4-tet -1-fermi 0-gaus

 Electronic relaxation 2 (details)
   IALGO  =     53    algorithm
   LDIAG  =      T    sub-space diagonalisation (order eigenvalues)
   LSUBROT=      F    optimize rotation matrix (better conditioning)
   TURBO    =      0    0=normal 1=particle mesh
   IRESTART =      0    0=no restart 2=restart with 2 vectors
   NREBOOT  =      0    no. of reboots
   NMIN     =      0    reboot dimension
   EREF     =   0.00    reference energy to select bands
   IMIX   =      4    mixing-type and parameters
     AMIX     =   0.40;   BMIX     =  1.00
     AMIX_MAG =   1.60;   BMIX_MAG =  1.00
     AMIN     =   0.10
     WC   =   100.;   INIMIX=   1;  MIXPRE=   1;  MAXMIX= -45

 Intra band minimization:
   WEIMIN = 0.0000     energy-eigenvalue tresh-hold
   EBREAK =  0.16E-06  absolut break condition
   DEPER  =   0.30     relativ break condition  

   TIME   =   0.20     timestep for ELM

  volume/ion in A,a.u.               =      54.77       369.63
  Fermi-wavevector in a.u.,A,eV,Ry     =   0.696834  1.316825  6.606680  0.485577
  Thomas-Fermi vector in A             =   1.779994
 
 Write flags
   LWAVE        =      T    write WAVECAR
   LDOWNSAMPLE  =      F    k-point downsampling of WAVECAR
   LCHARG       =      T    write CHGCAR
   LVTOT        =      F    write LOCPOT, total local potential
   LVHAR        =      F    write LOCPOT, Hartree potential only
   LELF         =      F    write electronic localiz. function (ELF)
   LORBIT       =     11    0 simple, 1 ext, 2 COOP (PROOUT), +10 PAW based schemes


 Dipole corrections
   LMONO  =      F    monopole corrections only (constant potential shift)
   LDIPOL =      T    correct potential (dipole corrections)
   IDIPOL =      3    1-x, 2-y, 3-z, 4-all directions 
   EPSILON=  1.0000000 bulk dielectric constant

 Exchange correlation treatment:
   GGA     =    PE    GGA type
   LEXCH   =     8    internal setting for exchange type
   VOSKOWN=      0    Vosko Wilk Nusair interpolation
   EXXOEP  =     0    0=HF, 1=EXX-LHF (local Hartree Fock) 2=EXX OEP
   LHFCALC =     T    Hartree Fock is set to
   LSYMGRAD=     F    symmetrize gradient (conserves proper symmetry)
   PRECFOCK=normal    Normal, Fast or Accurate (Low or Medium for compatibility)
   LRHFCALC=     F    long range Hartree Fock
   LRSCOR  =     F    long range correlation only (use DFT for short range part)
   LTHOMAS =     F    Thomas Fermi screening in HF
   LMODELHF=     F    short range full HF, long range fraction AEXX
   ENCUT4O =  -1.0   cutoff for four orbital integrals eV
   LMAXFOCK=     4    L truncation for augmentation on plane wave grid
   LMAXFOCKAE=  -1    L truncation for all-electron charge restoration on plane wave grid
   NMAXFOCKAE=   1    number of basis functions for all-electron charge restoration
   LFOCKAEDFT=     F  apply the AE augmentation even for DFT
   NKREDX  =     1    reduce k-point grid by
   NKREDY  =     1    reduce k-point grid by
   NKREDZ  =     1    reduce k-point grid by
   SHIFTRED=     F    shift reduced grid of Gamma
   HFKIDENT=     F    idential grid for each k-point
   ODDONLY =     F    use only odd q-grid points
   EVENONLY=     F    use only even q-grid points
   HFALPHA =   -1.0000 decay constant for conv. correction
   MCALPHA =    0.0000 extent of test-charge in conv. correction in multipole expansion
   AEXX    =    0.2500 exact exchange contribution
   HFSCREEN=    0.2000 screening length (either q_TF or 0.3 A-1)
   HFSCREENC=   0.2000 screening length for correlation (either q_TF or 0.3 A-1)
   HFRCUT  =    0.0000 spherical cutoff for potential kernel
   ALDAX   =    0.7500 LDA exchange part
   AGGAX   =    0.7500 GGA exchange part
   ALDAC   =    1.0000 LDA correlation
   AGGAC   =    1.0000 GGA correlation
   ENCUTFOCK=  -1.0 apply spherical cutoff to Coloumb kernel
   NBANDSGWLOW=     1    first orbital included in HF term
   NBLOCK_FOCK=    64    blocking factor in FOCK_ACC
 Linear response parameters
   LEPSILON=     F    determine dielectric tensor
   LRPA    =     F    only Hartree local field effects (RPA)
   LNABLA  =     F    use nabla operator in PAW spheres
   LVEL    =     F    velocity operator in full k-point grid
   LINTERFAST=   F  fast interpolation
   KINTER  =     0    interpolate to denser k-point grid
   CSHIFT  =0.1000    complex shift for real part using Kramers Kronig
   OMEGAMAX=  -1.0    maximum frequency
   DEG_THRESHOLD= 0.2000000E-02 threshold for treating states as degnerate
   RTIME   =   -0.100 relaxation time in fs
  (WPLASMAI=    0.000 imaginary part of plasma frequency in eV, 0.658/RTIME)
   DFIELD  = 0.0000000 0.0000000 0.0000000 field for delta impulse in time
 
 Orbital magnetization related:
   ORBITALMAG=     F  switch on orbital magnetization
   LCHIMAG   =     F  perturbation theory with respect to B field
   DQ        =  0.001000  dq finite difference perturbation B field
   LLRAUG    =     F  two centre corrections for induced B field



--------------------------------------------------------------------------------------------------------


 Static calculation
 charge density and potential will be updated during run
 spin polarized calculation
 Conjugate gradient for all bands (Freysoldt, et al. PRB 79, 241103 (2009))
 perform sub-space diagonalisation
    before iterative eigenvector-optimisation
 modified Broyden-mixing scheme, WC =      100.0
 initial mixing is a Kerker type mixing with AMIX =  0.4000 and BMIX =      1.0000
 Hartree-type preconditioning will be used
 using additional bands           33
 reciprocal scheme for non local part
 use partial core corrections
 no Harris-corrections to forces 
 use gradient corrections 
 use of overlap-Matrix (Vanderbilt PP)
 Gauss-broadening in eV      SIGMA  =   0.10


--------------------------------------------------------------------------------------------------------


  energy-cutoff  :      500.00
  volume of cell :     3176.90
      direct lattice vectors                 reciprocal lattice vectors
    12.698836339  0.000675886  0.000013222     0.078747373  0.000004885 -0.000017091
    -0.000774257 12.482137585 -0.000057331    -0.000004264  0.080114483  0.000024912
     0.004350325 -0.006232032 20.042419650    -0.000000052  0.000000229  0.049894175

  length of vectors
    12.698836357 12.482137609 20.042421091     0.078747375  0.080114487  0.049894175


 
 old parameters found on file WAVECAR:
  energy-cutoff  :      500.00
  volume of cell :     3176.90
      direct lattice vectors                 reciprocal lattice vectors
    12.668300000  0.000000000  0.000000000     0.078937190  0.000009093 -0.000016943
    -0.001435819 12.464599917  0.000000000     0.000000000  0.080227204  0.000024362
     0.004319056 -0.006109387 20.118998609     0.000000000  0.000000000  0.049704263

  length of vectors

 
 k-points in units of 2pi/SCALE and weight: KPOINTS created by Atomic Simulation Env
   0.01968578  0.02002984  0.00000196       0.500
  -0.01968791  0.02002740  0.00001050       0.500
 
 k-points in reciprocal lattice and weights: KPOINTS created by Atomic Simulation Env
   0.25000000  0.25000000  0.00000000       0.500
  -0.25000000  0.25000000  0.00000000       0.500
 
 position of ions in fractional coordinates (direct lattice) 
   0.22063108  0.99993637  0.50001769
   0.05512793  0.10072513  0.50001536
   0.10948889  0.99969546  0.50000776
   0.27624925  0.09950304  0.50000044
   0.22372662  0.20060560  0.49996926
   0.05537170  0.30084716  0.50001742
   0.11140181  0.20081202  0.50000761
   0.28326484  0.30012139  0.49987643
   0.22539094  0.39971282  0.49989827
   0.05599898  0.50072702  0.50001797
   0.11284675  0.40076530  0.49999088
   0.28309638  0.50001363  0.49983388
   0.22714605  0.60086107  0.49994830
   0.05558090  0.69903317  0.50002421
   0.11367942  0.60014606  0.50001030
   0.28407850  0.70112237  0.49996970
   0.22390809  0.79962058  0.50000899
   0.05514962  0.89878208  0.50000245
   0.11131867  0.79878592  0.50001009
   0.27649792  0.90032511  0.50002337
   0.55467001  0.99907312  0.50004775
   0.38751205  0.09763775  0.49999633
   0.44375325  0.99907797  0.50004614
   0.61092186  0.09762799  0.49999985
   0.55494629  0.19475926  0.49989293
   0.44349620  0.19476363  0.49989034
   0.55525575  0.80248309  0.50001075
   0.38803164  0.90060455  0.50004175
   0.44315152  0.80248798  0.50000901
   0.61038174  0.90059448  0.50004406
   0.88893339  0.99968597  0.50000942
   0.72218426  0.09948730  0.50000649
   0.77779153  0.99991835  0.50002119
   0.94330558  0.10071721  0.50001743
   0.88704164  0.20080231  0.50001356
   0.71518319  0.30010201  0.49988334
   0.77471658  0.20058724  0.49997732
   0.94307492  0.30084027  0.50002108
   0.88559566  0.40075313  0.49999588
   0.71533593  0.49998744  0.49982969
   0.77305318  0.39969282  0.49990204
   0.94243086  0.50072106  0.50001966
   0.88473695  0.60013364  0.50001159
   0.71432839  0.70110238  0.49997127
   0.77126939  0.60084146  0.49994801
   0.94282775  0.69902601  0.50002441
   0.88708873  0.79877507  0.50000978
   0.72191530  0.90030865  0.50002605
   0.77449852  0.79960184  0.50001032
   0.94326282  0.89877418  0.50000230
   0.39535792  0.29714445  0.49978318
   0.60308974  0.29713641  0.49978788
   0.38862970  0.49786779  0.49966319
   0.60980347  0.49785192  0.49965004
   0.39320973  0.70432690  0.49994364
   0.60519701  0.70431757  0.49994657
   0.49921505  0.41046222  0.49962676
   0.49921815  0.59032327  0.49973858
 
 position of ions in cartesian coordinates  (Angst):
   2.80315896 12.47837630 10.02150998
   0.70215776  1.25418608 10.02151267
   1.39178270 12.47529420 10.02130953
   3.51014216  1.23908136 10.02121667
   2.84308743  2.50102205 10.02058509
   0.70509844  3.75213696 10.02154249
   1.41669312  2.50352248 10.02135227
   3.59907606  3.74323269 10.01871965
   2.86406795  4.98630740 10.01915104
   0.71290947  6.24706532 10.02154207
   1.43488717  4.99936796 10.02100549
   3.59678192  6.23831527 10.01785541
   2.88620028  7.49706842 10.02014227
   0.70744685  8.72234959 10.02165578
   1.44530692  7.48806646 10.02138333
   3.60909854  8.74858201 10.02056617
   2.84492824  9.97800938 10.02134708
   0.70181529 11.21564288 10.02120821
   1.41517436  9.96751490 10.02136769
   3.51268002 11.23505266 10.02163027
   7.04506555 12.46782678 10.02211682
   4.92305170  1.21587370 10.02113584
   5.63655174 12.46781230 10.02208310
   7.76009627  1.21590291 10.02120934
   7.04919600  2.42827163 10.01905996
   5.63390954  2.42825083 10.01900674
   7.05265574 10.01396350 10.02138665
   4.92902839 11.23861590 10.02200004
   5.62906247 10.01394884 10.02135025
   7.75261591 11.23864043 10.02204928
  11.28982081 12.47570258 10.02135306
   9.17299791  1.23918627 10.02134371
   9.87844836 12.47852794 10.02158748
  11.98098039  1.25468751 10.02156594
  11.26641634  2.50392554 10.02148187
   9.08393661  3.74328271 10.01886399
   9.84001884  2.50116528 10.02075402
  11.97789634  3.75265094 10.02162761
  11.24789926  4.99973832 10.02111594
   9.08572119  6.23828060 10.01777729
   9.81874112  4.98642782 10.01923384
  11.96956275  6.24758994 10.02158758
  11.23684026  7.48843258 10.02141951
   9.07277151  8.74862328 10.02060331
   9.79593352  7.49719134 10.02014358
  11.97444931  8.72285986 10.02167141
  11.26655134  9.96790387 10.02137175
   9.16896250 11.23514814 10.02168994
   9.83678611  9.97814760 10.02138108
  11.97981952 11.21614442 10.02121682
   5.02252962  3.70615045 10.01685249
   7.66048203  3.70619050 10.01694946
   4.93693315  6.21160297 10.01443599
   7.74558265  6.21155444 10.01417526
   4.99493556  8.78865538 10.02004508
   7.68692745  8.78868218 10.02010666
   6.34130597  5.12066965 10.01371222
   6.34120653  7.36571934 10.01594312
 


--------------------------------------------------------------------------------------------------------


 k-point  1 :   0.2500 0.2500 0.0000  plane waves:   80648
 k-point  2 :  -0.2500 0.2500 0.0000  plane waves:   80653

 maximum and minimum number of plane-waves per node :      2554     2498

 maximum number of plane-waves:     80653
 maximum index in each direction: 
   IXMAX=   23   IYMAX=   22   IZMAX=   36
   IXMIN=  -23   IYMIN=  -23   IZMIN=  -36


 parallel 3D FFT for wavefunctions:
    minimum data exchange during FFTs selected (reduces bandwidth)
 parallel 3D FFT for charge:
    minimum data exchange during FFTs selected (reduces bandwidth)


 FFT grid for exact exchange (Hartree Fock) 
  NGX = 70; NGY = 70; NGZ =112

 
 Radii for the augmentation spheres in the non-local exchange
 for species   1 augmentation radius   0.874 (default was   0.699)
       energy cutoff for augmentation   2000.0
 for species   2 augmentation radius   0.886 (default was   0.709)
       energy cutoff for augmentation   2000.0
 for species   3 augmentation radius   1.307 (default was   1.045)
       energy cutoff for augmentation   2000.0
 for species   4 augmentation radius   1.263 (default was   1.010)
       energy cutoff for augmentation   2000.0

 real space projection operators:
  total allocation   :       2471.09 KBytes
  max/ min on nodes  :        131.19         37.69

 Maximum index for augmentation-charges in exchange          141
  SETUP_FOCK is finished

 total amount of memory used by VASP MPI-rank0   165812. kBytes
=======================================================================

   base      :      30000. kBytes
   nonl-proj :       5328. kBytes
   fftplans  :      14250. kBytes
   grid      :      36827. kBytes
   one-center:         62. kBytes
   HF        :         23. kBytes
   nonlr-proj:       1808. kBytes
   wavefun   :      77514. kBytes
 
     INWAV:  cpu time    3.4962: real time    3.4972
 Broyden mixing: mesh for mixing (old mesh)
   NGX = 47   NGY = 45   NGZ = 73
  (NGX  =192   NGY  =192   NGZ  =300)
  gives a total of 154395 points

 charge density for first step will be calculated from the start-wavefunctions


--------------------------------------------------------------------------------------------------------


 Maximum index for augmentation-charges          790 (set IRDMAX)


--------------------------------------------------------------------------------------------------------


 initial charge from wavefunction
 First call to EWALD:  gamma=   0.121
 Maximum number of real-space cells 3x 3x 2
 Maximum number of reciprocal cells 2x 2x 4

    FEWALD:  cpu time    0.0032: real time    0.0032


--------------------------------------- Iteration      1(   1)  ---------------------------------------


    POTLOK:  cpu time    1.3809: real time    1.3815
    SETDIJ:  cpu time    2.0836: real time    2.0847
    TRIAL :  cpu time  526.4442: real time  526.5562
    CORREC:  cpu time    0.0017: real time    0.0020
    CHARGE:  cpu time    1.6865: real time    1.6868
    --------------------------------------------
      LOOP:  cpu time  531.6134: real time  531.7298

 eigenvalue-minimisations  :     0
 total energy-change (2. order) :-0.6066436E+03  (-0.4758502E+00)
 number of electron     245.0000004 magnetization       1.0000159
 augmentation part       14.9127779 magnetization       0.8269956

 DIPCOR: dipole corrections for dipol
 direction  3 min pos     1,
 dipolmoment          -0.000000      0.000000     -0.000359 electrons x Angstroem
 Tr[quadrupol]     -6767.521964

 energy correction for charged system         0.000000 eV
 dipol+quadrupol energy correction            0.000000 eV
 added-field ion interaction          0.000000 eV  (added to PSCEN)


 Free energy of the ion-electron system (eV)
  ---------------------------------------------------
  alpha Z        PSCENC =        99.29574911
  Ewald energy   TEWEN  =     39942.20943173
  -Hartree energ DENC   =    -48562.24041891
  -exchange      EXHF   =       552.50255643
  -V(xc)+E(xc)   XCENC  =       624.50146258
  PAW double counting   =     26525.60678980   -26613.17171397
  entropy T*S    EENTRO =        -0.00000508
  eigenvalues    EBANDS =     -3179.87541613
  atomic energy  EATOM  =     10004.52798163
  ---------------------------------------------------
  free energy    TOTEN  =      -606.64360141 eV

  energy without entropy =     -606.64359634  energy(sigma->0) =     -606.64359888
  exchange ACFDT corr.  =        -0.00002255  see jH, gK, PRB 81, 115126


--------------------------------------------------------------------------------------------------------




--------------------------------------- Iteration      1(   2)  ---------------------------------------


    POTLOK:  cpu time    1.3955: real time    1.3957
    SETDIJ:  cpu time    2.0848: real time    2.0851
    TRIAL :  cpu time  524.9379: real time  525.0291
    CORREC:  cpu time    0.0016: real time    0.0019
    CHARGE:  cpu time    1.6801: real time    1.6805
    --------------------------------------------
      LOOP:  cpu time  530.1024: real time  530.1947

 eigenvalue-minimisations  :     0
 total energy-change (2. order) :-0.3741926E+00  (-0.4293533E+00)
 number of electron     245.0000004 magnetization       1.0000013
 augmentation part       14.8733804 magnetization       0.8297651

 DIPCOR: dipole corrections for dipol
 direction  3 min pos     1,
 dipolmoment          -0.000000      0.000000     -0.000619 electrons x Angstroem
 Tr[quadrupol]     -6767.356545

 energy correction for charged system         0.000000 eV
 dipol+quadrupol energy correction            0.000000 eV
 added-field ion interaction          0.000000 eV  (added to PSCEN)


 Free energy of the ion-electron system (eV)
  ---------------------------------------------------
  alpha Z        PSCENC =        99.29574912
  Ewald energy   TEWEN  =     39942.20943173
  -Hartree energ DENC   =    -48549.84278266
  -exchange      EXHF   =       552.38111650
  -V(xc)+E(xc)   XCENC  =       624.14068025
  PAW double counting   =     26651.19812144   -26738.98859514
  entropy T*S    EENTRO =        -0.00000035
  eigenvalues    EBANDS =     -3191.93949175
  atomic energy  EATOM  =     10004.52798163
  ---------------------------------------------------
  free energy    TOTEN  =      -607.01779397 eV

  energy without entropy =     -607.01779363  energy(sigma->0) =     -607.01779380
  exchange ACFDT corr.  =        -0.00000396  see jH, gK, PRB 81, 115126


--------------------------------------------------------------------------------------------------------




--------------------------------------- Iteration      1(   3)  ---------------------------------------


    POTLOK:  cpu time    1.4026: real time    1.4027
    SETDIJ:  cpu time    2.0868: real time    2.0872
    TRIAL :  cpu time  525.0075: real time  525.0987
    CORREC:  cpu time    0.0015: real time    0.0018
    CHARGE:  cpu time    1.6769: real time    1.6771
    --------------------------------------------
      LOOP:  cpu time  530.1771: real time  530.2693

 eigenvalue-minimisations  :     0
 total energy-change (2. order) :-0.3271997E+00  (-0.2517570E+00)
 number of electron     245.0000004 magnetization       1.0000004
 augmentation part       14.8504790 magnetization       0.8299308

 DIPCOR: dipole corrections for dipol
 direction  3 min pos     1,
 dipolmoment          -0.000000      0.000000     -0.000626 electrons x Angstroem
 Tr[quadrupol]     -6767.170851

 energy correction for charged system         0.000000 eV
 dipol+quadrupol energy correction            0.000000 eV
 added-field ion interaction          0.000000 eV  (added to PSCEN)


 Free energy of the ion-electron system (eV)
  ---------------------------------------------------
  alpha Z        PSCENC =        99.29574912
  Ewald energy   TEWEN  =     39942.20943173
  -Hartree energ DENC   =    -48532.82377356
  -exchange      EXHF   =       552.27088105
  -V(xc)+E(xc)   XCENC  =       623.69410526
  PAW double counting   =     26805.74883714   -26892.48327455
  entropy T*S    EENTRO =        -0.00000002
  eigenvalues    EBANDS =     -3209.78493118
  atomic energy  EATOM  =     10004.52798163
  ---------------------------------------------------
  free energy    TOTEN  =      -607.34499370 eV

  energy without entropy =     -607.34499368  energy(sigma->0) =     -607.34499369
  exchange ACFDT corr.  =        -0.00000021  see jH, gK, PRB 81, 115126


--------------------------------------------------------------------------------------------------------




--------------------------------------- Iteration      1(   4)  ---------------------------------------


    POTLOK:  cpu time    1.4062: real time    1.4064
    SETDIJ:  cpu time    2.0838: real time    2.0842
    TRIAL :  cpu time  524.9225: real time  525.0109
    CORREC:  cpu time    0.0013: real time    0.0016
    CHARGE:  cpu time    1.6773: real time    1.6775
    --------------------------------------------
      LOOP:  cpu time  530.0938: real time  530.1864

 eigenvalue-minimisations  :     0
 total energy-change (2. order) :-0.1985577E+00  (-0.1698164E+00)
 number of electron     245.0000003 magnetization       1.0000003
 augmentation part       14.8551313 magnetization       0.8258833

 DIPCOR: dipole corrections for dipol
 direction  3 min pos     1,
 dipolmoment          -0.000000      0.000000     -0.000532 electrons x Angstroem
 Tr[quadrupol]     -6767.103462

 energy correction for charged system         0.000000 eV
 dipol+quadrupol energy correction            0.000000 eV
 added-field ion interaction          0.000000 eV  (added to PSCEN)


 Free energy of the ion-electron system (eV)
  ---------------------------------------------------
  alpha Z        PSCENC =        99.29574912
  Ewald energy   TEWEN  =     39942.20943173
  -Hartree energ DENC   =    -48524.92556715
  -exchange      EXHF   =       552.40015558
  -V(xc)+E(xc)   XCENC  =       623.51516615
  PAW double counting   =     26941.14447831   -27027.45885317
  entropy T*S    EENTRO =        -0.00000000
  eigenvalues    EBANDS =     -3218.25209361
  atomic energy  EATOM  =     10004.52798163
  ---------------------------------------------------
  free energy    TOTEN  =      -607.54355143 eV

  energy without entropy =     -607.54355143  energy(sigma->0) =     -607.54355143
  exchange ACFDT corr.  =        -0.00000001  see jH, gK, PRB 81, 115126


--------------------------------------------------------------------------------------------------------




--------------------------------------- Iteration      1(   5)  ---------------------------------------


    POTLOK:  cpu time    1.4064: real time    1.4065
    SETDIJ:  cpu time    2.0811: real time    2.0815
    TRIAL :  cpu time  522.7564: real time  522.8541
    CORREC:  cpu time    0.0011: real time    0.0014
    CHARGE:  cpu time    1.6747: real time    1.6749
    --------------------------------------------
      LOOP:  cpu time  527.9227: real time  528.0234

 eigenvalue-minimisations  :     0
 total energy-change (2. order) :-0.1402297E+00  (-0.1240690E+00)
 number of electron     245.0000003 magnetization       1.0000003
 augmentation part       14.8653659 magnetization       0.8166368

 DIPCOR: dipole corrections for dipol
 direction  3 min pos     1,
 dipolmoment          -0.000000      0.000000     -0.000440 electrons x Angstroem
 Tr[quadrupol]     -6767.142522

 energy correction for charged system         0.000000 eV
 dipol+quadrupol energy correction            0.000000 eV
 added-field ion interaction          0.000000 eV  (added to PSCEN)


 Free energy of the ion-electron system (eV)
  ---------------------------------------------------
  alpha Z        PSCENC =        99.29574911
  Ewald energy   TEWEN  =     39942.20943173
  -Hartree energ DENC   =    -48526.41997274
  -exchange      EXHF   =       552.71330064
  -V(xc)+E(xc)   XCENC  =       623.58903269
  PAW double counting   =     27042.45380807   -27129.04033120
  entropy T*S    EENTRO =        -0.00000000
  eigenvalues    EBANDS =     -3217.01278103
  atomic energy  EATOM  =     10004.52798163
  ---------------------------------------------------
  free energy    TOTEN  =      -607.68378111 eV

  energy without entropy =     -607.68378111  energy(sigma->0) =     -607.68378111
  exchange ACFDT corr.  =        -0.00000000  see jH, gK, PRB 81, 115126


--------------------------------------------------------------------------------------------------------




--------------------------------------- Iteration      1(   6)  ---------------------------------------


    POTLOK:  cpu time    1.4023: real time    1.4027
    SETDIJ:  cpu time    2.0811: real time    2.0813
    TRIAL :  cpu time  520.9342: real time  521.0208
    CORREC:  cpu time    0.0010: real time    0.0013
    CHARGE:  cpu time    1.6772: real time    1.6774
    --------------------------------------------
      LOOP:  cpu time  526.0981: real time  526.1857

 eigenvalue-minimisations  :     0
 total energy-change (2. order) :-0.1083136E+00  (-0.9730502E-01)
 number of electron     245.0000003 magnetization       1.0000003
 augmentation part       14.8707981 magnetization       0.8052019

 DIPCOR: dipole corrections for dipol
 direction  3 min pos     1,
 dipolmoment          -0.000000      0.000000     -0.000357 electrons x Angstroem
 Tr[quadrupol]     -6767.210769

 energy correction for charged system         0.000000 eV
 dipol+quadrupol energy correction            0.000000 eV
 added-field ion interaction          0.000000 eV  (added to PSCEN)


 Free energy of the ion-electron system (eV)
  ---------------------------------------------------
  alpha Z        PSCENC =        99.29574911
  Ewald energy   TEWEN  =     39942.20943173
  -Hartree energ DENC   =    -48530.69704681
  -exchange      EXHF   =       553.05631734
  -V(xc)+E(xc)   XCENC  =       623.74510752
  PAW double counting   =     27109.84312689   -27196.64965288
  entropy T*S    EENTRO =        -0.00000000
  eigenvalues    EBANDS =     -3213.12310921
  atomic energy  EATOM  =     10004.52798163
  ---------------------------------------------------
  free energy    TOTEN  =      -607.79209467 eV

  energy without entropy =     -607.79209467  energy(sigma->0) =     -607.79209467
  exchange ACFDT corr.  =        -0.00000000  see jH, gK, PRB 81, 115126


--------------------------------------------------------------------------------------------------------




--------------------------------------- Iteration      1(   7)  ---------------------------------------


    POTLOK:  cpu time    1.4020: real time    1.4021
    SETDIJ:  cpu time    2.1102: real time    2.1104
    TRIAL :  cpu time  521.0959: real time  521.1947
    CORREC:  cpu time    0.0010: real time    0.0014
    CHARGE:  cpu time    1.6700: real time    1.6703
    --------------------------------------------
      LOOP:  cpu time  526.2819: real time  526.3838

 eigenvalue-minimisations  :     0
 total energy-change (2. order) :-0.8650927E-01  (-0.7806912E-01)
 number of electron     245.0000003 magnetization       1.0000003
 augmentation part       14.8737400 magnetization       0.7943802

 DIPCOR: dipole corrections for dipol
 direction  3 min pos     1,
 dipolmoment          -0.000000      0.000000     -0.000302 electrons x Angstroem
 Tr[quadrupol]     -6767.262777

 energy correction for charged system         0.000000 eV
 dipol+quadrupol energy correction            0.000000 eV
 added-field ion interaction          0.000000 eV  (added to PSCEN)


 Free energy of the ion-electron system (eV)
  ---------------------------------------------------
  alpha Z        PSCENC =        99.29574911
  Ewald energy   TEWEN  =     39942.20943173
  -Hartree energ DENC   =    -48534.05535761
  -exchange      EXHF   =       553.34437826
  -V(xc)+E(xc)   XCENC  =       623.88595286
  PAW double counting   =     27150.68704377   -27237.55266179
  entropy T*S    EENTRO =        -0.00000000
  eigenvalues    EBANDS =     -3210.22112189
  atomic energy  EATOM  =     10004.52798163
  ---------------------------------------------------
  free energy    TOTEN  =      -607.87860394 eV

  energy without entropy =     -607.87860394  energy(sigma->0) =     -607.87860394
  exchange ACFDT corr.  =        -0.00000000  see jH, gK, PRB 81, 115126


--------------------------------------------------------------------------------------------------------




--------------------------------------- Iteration      1(   8)  ---------------------------------------


    POTLOK:  cpu time    1.4000: real time    1.4001
    SETDIJ:  cpu time    2.0791: real time    2.0794
    TRIAL :  cpu time  520.9305: real time  521.0169
    CORREC:  cpu time    0.0010: real time    0.0013
    CHARGE:  cpu time    1.6711: real time    1.6712
    --------------------------------------------
      LOOP:  cpu time  526.0838: real time  526.1735

 eigenvalue-minimisations  :     0
 total energy-change (2. order) :-0.7101156E-01  (-0.6510910E-01)
 number of electron     245.0000003 magnetization       1.0000003
 augmentation part       14.8764983 magnetization       0.7845723

 DIPCOR: dipole corrections for dipol
 direction  3 min pos     1,
 dipolmoment          -0.000000      0.000000     -0.000278 electrons x Angstroem
 Tr[quadrupol]     -6767.289759

 energy correction for charged system         0.000000 eV
 dipol+quadrupol energy correction            0.000000 eV
 added-field ion interaction          0.000000 eV  (added to PSCEN)


 Free energy of the ion-electron system (eV)
  ---------------------------------------------------
  alpha Z        PSCENC =        99.29574911
  Ewald energy   TEWEN  =     39942.20943173
  -Hartree energ DENC   =    -48535.92294990
  -exchange      EXHF   =       553.56032879
  -V(xc)+E(xc)   XCENC  =       623.98772473
  PAW double counting   =     27174.03133754   -27260.95984292
  entropy T*S    EENTRO =        -0.00000000
  eigenvalues    EBANDS =     -3208.67937621
  atomic energy  EATOM  =     10004.52798163
  ---------------------------------------------------
  free energy    TOTEN  =      -607.94961550 eV

  energy without entropy =     -607.94961550  energy(sigma->0) =     -607.94961550
  exchange ACFDT corr.  =        -0.00000000  see jH, gK, PRB 81, 115126


--------------------------------------------------------------------------------------------------------




--------------------------------------- Iteration      1(   9)  ---------------------------------------


    POTLOK:  cpu time    1.3959: real time    1.3962
    SETDIJ:  cpu time    2.0794: real time    2.0796
    TRIAL :  cpu time  520.4950: real time  520.5957
    CORREC:  cpu time    0.0010: real time    0.0013
    CHARGE:  cpu time    1.6643: real time    1.6646
    --------------------------------------------
      LOOP:  cpu time  525.6374: real time  525.7393

 eigenvalue-minimisations  :     0
 total energy-change (2. order) :-0.5994251E-01  (-0.5508152E-01)
 number of electron     245.0000003 magnetization       1.0000003
 augmentation part       14.8786856 magnetization       0.7754046

 DIPCOR: dipole corrections for dipol
 direction  3 min pos     1,
 dipolmoment          -0.000000      0.000000     -0.000268 electrons x Angstroem
 Tr[quadrupol]     -6767.298151

 energy correction for charged system         0.000000 eV
 dipol+quadrupol energy correction            0.000000 eV
 added-field ion interaction          0.000000 eV  (added to PSCEN)


 Free energy of the ion-electron system (eV)
  ---------------------------------------------------
  alpha Z        PSCENC =        99.29574911
  Ewald energy   TEWEN  =     39942.20943173
  -Hartree energ DENC   =    -48536.64663291
  -exchange      EXHF   =       553.71592880
  -V(xc)+E(xc)   XCENC  =       624.05325905
  PAW double counting   =     27187.11621922   -27274.13991514
  entropy T*S    EENTRO =        -0.00000000
  eigenvalues    EBANDS =     -3208.14157950
  atomic energy  EATOM  =     10004.52798163
  ---------------------------------------------------
  free energy    TOTEN  =      -608.00955801 eV

  energy without entropy =     -608.00955801  energy(sigma->0) =     -608.00955801
  exchange ACFDT corr.  =        -0.00000000  see jH, gK, PRB 81, 115126


--------------------------------------------------------------------------------------------------------




--------------------------------------- Iteration      1(  10)  ---------------------------------------


    POTLOK:  cpu time    1.3933: real time    1.3934
    SETDIJ:  cpu time    2.1146: real time    2.1148
    TRIAL :  cpu time  521.1253: real time  521.2164
    CORREC:  cpu time    0.0010: real time    0.0013
    CHARGE:  cpu time    1.6597: real time    1.6599
    --------------------------------------------
      LOOP:  cpu time  526.2961: real time  526.3881

 eigenvalue-minimisations  :     0
 total energy-change (2. order) :-0.5126405E-01  (-0.4727475E-01)
 number of electron     245.0000003 magnetization       1.0000003
 augmentation part       14.8798118 magnetization       0.7668770

 DIPCOR: dipole corrections for dipol
 direction  3 min pos     1,
 dipolmoment          -0.000000      0.000000     -0.000258 electrons x Angstroem
 Tr[quadrupol]     -6767.297497

 energy correction for charged system         0.000000 eV
 dipol+quadrupol energy correction            0.000000 eV
 added-field ion interaction          0.000000 eV  (added to PSCEN)


 Free energy of the ion-electron system (eV)
  ---------------------------------------------------
  alpha Z        PSCENC =        99.29574911
  Ewald energy   TEWEN  =     39942.20943173
  -Hartree energ DENC   =    -48536.67329878
  -exchange      EXHF   =       553.83186071
  -V(xc)+E(xc)   XCENC  =       624.09413817
  PAW double counting   =     27194.50240663   -27281.60383736
  entropy T*S    EENTRO =        -0.00000000
  eigenvalues    EBANDS =     -3208.24525389
  atomic energy  EATOM  =     10004.52798163
  ---------------------------------------------------
  free energy    TOTEN  =      -608.06082206 eV

  energy without entropy =     -608.06082206  energy(sigma->0) =     -608.06082206
  exchange ACFDT corr.  =        -0.00000000  see jH, gK, PRB 81, 115126


--------------------------------------------------------------------------------------------------------




--------------------------------------- Iteration      1(  11)  ---------------------------------------


    POTLOK:  cpu time    1.3882: real time    1.3884
    SETDIJ:  cpu time    2.0800: real time    2.0803
    TRIAL :  cpu time  521.5811: real time  521.6676
    CORREC:  cpu time    0.0010: real time    0.0013
    CHARGE:  cpu time    1.6754: real time    1.6755
    --------------------------------------------
      LOOP:  cpu time  526.7278: real time  526.8153

 eigenvalue-minimisations  :     0
 total energy-change (2. order) :-0.4428468E-01  (-0.4080279E-01)
 number of electron     245.0000003 magnetization       1.0000003
 augmentation part       14.8803869 magnetization       0.7592308

 DIPCOR: dipole corrections for dipol
 direction  3 min pos     1,
 dipolmoment          -0.000000      0.000000     -0.000244 electrons x Angstroem
 Tr[quadrupol]     -6767.295179

 energy correction for charged system         0.000000 eV
 dipol+quadrupol energy correction            0.000000 eV
 added-field ion interaction          0.000000 eV  (added to PSCEN)


 Free energy of the ion-electron system (eV)
  ---------------------------------------------------
  alpha Z        PSCENC =        99.29574911
  Ewald energy   TEWEN  =     39942.20943173
  -Hartree energ DENC   =    -48536.44002713
  -exchange      EXHF   =       553.92752474
  -V(xc)+E(xc)   XCENC  =       624.12415153
  PAW double counting   =     27198.95056740   -27286.10136306
  entropy T*S    EENTRO =        -0.00000000
  eigenvalues    EBANDS =     -3208.59912271
  atomic energy  EATOM  =     10004.52798163
  ---------------------------------------------------
  free energy    TOTEN  =      -608.10510674 eV

  energy without entropy =     -608.10510674  energy(sigma->0) =     -608.10510674
  exchange ACFDT corr.  =        -0.00000000  see jH, gK, PRB 81, 115126


--------------------------------------------------------------------------------------------------------




--------------------------------------- Iteration      1(  12)  ---------------------------------------


    POTLOK:  cpu time    1.3884: real time    1.3887
    SETDIJ:  cpu time    2.0739: real time    2.0741
    TRIAL :  cpu time  521.2767: real time  521.3638
    CORREC:  cpu time    0.0010: real time    0.0014
    CHARGE:  cpu time    1.6583: real time    1.6586
    --------------------------------------------
      LOOP:  cpu time  526.4003: real time  526.4886

 eigenvalue-minimisations  :     0
 total energy-change (2. order) :-0.3842627E-01  (-0.3536933E-01)
 number of electron     245.0000003 magnetization       1.0000003
 augmentation part       14.8809880 magnetization       0.7523695

 DIPCOR: dipole corrections for dipol
 direction  3 min pos     1,
 dipolmoment          -0.000000      0.000000     -0.000230 electrons x Angstroem
 Tr[quadrupol]     -6767.294590

 energy correction for charged system         0.000000 eV
 dipol+quadrupol energy correction            0.000000 eV
 added-field ion interaction          0.000000 eV  (added to PSCEN)


 Free energy of the ion-electron system (eV)
  ---------------------------------------------------
  alpha Z        PSCENC =        99.29574911
  Ewald energy   TEWEN  =     39942.20943173
  -Hartree energ DENC   =    -48536.25027282
  -exchange      EXHF   =       554.01464801
  -V(xc)+E(xc)   XCENC  =       624.15268390
  PAW double counting   =     27202.21955712   -27289.41545197
  entropy T*S    EENTRO =        -0.00000000
  eigenvalues    EBANDS =     -3208.89785972
  atomic energy  EATOM  =     10004.52798163
  ---------------------------------------------------
  free energy    TOTEN  =      -608.14353301 eV

  energy without entropy =     -608.14353301  energy(sigma->0) =     -608.14353301
  exchange ACFDT corr.  =        -0.00000000  see jH, gK, PRB 81, 115126


--------------------------------------------------------------------------------------------------------




--------------------------------------- Iteration      1(  13)  ---------------------------------------


    POTLOK:  cpu time    1.3878: real time    1.3880
    SETDIJ:  cpu time    2.0768: real time    2.0770
    TRIAL :  cpu time  520.9844: real time  521.0739
    CORREC:  cpu time    0.0010: real time    0.0014
    CHARGE:  cpu time    1.6606: real time    1.6609
    --------------------------------------------
      LOOP:  cpu time  526.1122: real time  526.2027

 eigenvalue-minimisations  :     0
 total energy-change (2. order) :-0.3342890E-01  (-0.3067314E-01)
 number of electron     245.0000003 magnetization       1.0000003
 augmentation part       14.8817327 magnetization       0.7459702

 DIPCOR: dipole corrections for dipol
 direction  3 min pos     1,
 dipolmoment          -0.000000      0.000000     -0.000215 electrons x Angstroem
 Tr[quadrupol]     -6767.295491

 energy correction for charged system         0.000000 eV
 dipol+quadrupol energy correction            0.000000 eV
 added-field ion interaction          0.000000 eV  (added to PSCEN)


 Free energy of the ion-electron system (eV)
  ---------------------------------------------------
  alpha Z        PSCENC =        99.29574911
  Ewald energy   TEWEN  =     39942.20943173
  -Hartree energ DENC   =    -48536.16232718
  -exchange      EXHF   =       554.09609045
  -V(xc)+E(xc)   XCENC  =       624.18166662
  PAW double counting   =     27205.29142385   -27292.53886492
  entropy T*S    EENTRO =        -0.00000000
  eigenvalues    EBANDS =     -3209.07811319
  atomic energy  EATOM  =     10004.52798163
  ---------------------------------------------------
  free energy    TOTEN  =      -608.17696191 eV

  energy without entropy =     -608.17696191  energy(sigma->0) =     -608.17696191
  exchange ACFDT corr.  =        -0.00000000  see jH, gK, PRB 81, 115126


--------------------------------------------------------------------------------------------------------




--------------------------------------- Iteration      1(  14)  ---------------------------------------


    POTLOK:  cpu time    1.3826: real time    1.3831
    SETDIJ:  cpu time    2.0778: real time    2.0780
    TRIAL :  cpu time  521.0010: real time  521.0850
    CORREC:  cpu time    0.0010: real time    0.0014
    CHARGE:  cpu time    1.6588: real time    1.6589
    --------------------------------------------
      LOOP:  cpu time  526.1226: real time  526.2078

 eigenvalue-minimisations  :     0
 total energy-change (2. order) :-0.2907214E-01  (-0.2660645E-01)
 number of electron     245.0000003 magnetization       1.0000003
 augmentation part       14.8825380 magnetization       0.7398726

 DIPCOR: dipole corrections for dipol
 direction  3 min pos     1,
 dipolmoment          -0.000000      0.000000     -0.000200 electrons x Angstroem
 Tr[quadrupol]     -6767.296594

 energy correction for charged system         0.000000 eV
 dipol+quadrupol energy correction            0.000000 eV
 added-field ion interaction          0.000000 eV  (added to PSCEN)


 Free energy of the ion-electron system (eV)
  ---------------------------------------------------
  alpha Z        PSCENC =        99.29574911
  Ewald energy   TEWEN  =     39942.20943173
  -Hartree energ DENC   =    -48536.11004483
  -exchange      EXHF   =       554.17083966
  -V(xc)+E(xc)   XCENC  =       624.20938344
  PAW double counting   =     27208.57117509   -27295.86979075
  entropy T*S    EENTRO =        -0.00000000
  eigenvalues    EBANDS =     -3209.21075913
  atomic energy  EATOM  =     10004.52798163
  ---------------------------------------------------
  free energy    TOTEN  =      -608.20603405 eV

  energy without entropy =     -608.20603405  energy(sigma->0) =     -608.20603405
  exchange ACFDT corr.  =        -0.00000000  see jH, gK, PRB 81, 115126


--------------------------------------------------------------------------------------------------------




--------------------------------------- Iteration      1(  15)  ---------------------------------------


    POTLOK:  cpu time    1.3828: real time    1.3830
    SETDIJ:  cpu time    2.0703: real time    2.0705
    TRIAL :  cpu time  520.6931: real time  520.7909
    CORREC:  cpu time    0.0010: real time    0.0014
    CHARGE:  cpu time    1.6592: real time    1.6594
    --------------------------------------------
      LOOP:  cpu time  525.8084: real time  525.9073

 eigenvalue-minimisations  :     0
 total energy-change (2. order) :-0.2527603E-01  (-0.2307374E-01)
 number of electron     245.0000003 magnetization       1.0000003
 augmentation part       14.8833117 magnetization       0.7340744

 DIPCOR: dipole corrections for dipol
 direction  3 min pos     1,
 dipolmoment          -0.000000      0.000000     -0.000188 electrons x Angstroem
 Tr[quadrupol]     -6767.297332

 energy correction for charged system         0.000000 eV
 dipol+quadrupol energy correction            0.000000 eV
 added-field ion interaction          0.000000 eV  (added to PSCEN)


 Free energy of the ion-electron system (eV)
  ---------------------------------------------------
  alpha Z        PSCENC =        99.29574911
  Ewald energy   TEWEN  =     39942.20943173
  -Hartree energ DENC   =    -48536.05147444
  -exchange      EXHF   =       554.23847947
  -V(xc)+E(xc)   XCENC  =       624.23476482
  PAW double counting   =     27212.12791751   -27299.47226252
  entropy T*S    EENTRO =        -0.00000000
  eigenvalues    EBANDS =     -3209.34189739
  atomic energy  EATOM  =     10004.52798163
  ---------------------------------------------------
  free energy    TOTEN  =      -608.23131007 eV

  energy without entropy =     -608.23131007  energy(sigma->0) =     -608.23131007
  exchange ACFDT corr.  =        -0.00000000  see jH, gK, PRB 81, 115126


--------------------------------------------------------------------------------------------------------




--------------------------------------- Iteration      1(  16)  ---------------------------------------


    POTLOK:  cpu time    1.3799: real time    1.3801
    SETDIJ:  cpu time    2.0756: real time    2.0759
    TRIAL :  cpu time  520.9694: real time  521.0618
    CORREC:  cpu time    0.0010: real time    0.0013
    CHARGE:  cpu time    1.6592: real time    1.6594
    --------------------------------------------
      LOOP:  cpu time  526.0868: real time  526.1802

 eigenvalue-minimisations  :     0
 total energy-change (2. order) :-0.2195850E-01  (-0.2000370E-01)
 number of electron     245.0000003 magnetization       1.0000003
 augmentation part       14.8840298 magnetization       0.7285794

 DIPCOR: dipole corrections for dipol
 direction  3 min pos     1,
 dipolmoment          -0.000000      0.000000     -0.000175 electrons x Angstroem
 Tr[quadrupol]     -6767.297801

 energy correction for charged system         0.000000 eV
 dipol+quadrupol energy correction            0.000000 eV
 added-field ion interaction          0.000000 eV  (added to PSCEN)


 Free energy of the ion-electron system (eV)
  ---------------------------------------------------
  alpha Z        PSCENC =        99.29574911
  Ewald energy   TEWEN  =     39942.20943173
  -Hartree energ DENC   =    -48535.99068904
  -exchange      EXHF   =       554.29993260
  -V(xc)+E(xc)   XCENC  =       624.25815042
  PAW double counting   =     27215.81045198   -27303.19631396
  entropy T*S    EENTRO =        -0.00000000
  eigenvalues    EBANDS =     -3209.46796304
  atomic energy  EATOM  =     10004.52798163
  ---------------------------------------------------
  free energy    TOTEN  =      -608.25326857 eV

  energy without entropy =     -608.25326857  energy(sigma->0) =     -608.25326857
  exchange ACFDT corr.  =        -0.00000000  see jH, gK, PRB 81, 115126


--------------------------------------------------------------------------------------------------------




--------------------------------------- Iteration      1(  17)  ---------------------------------------


    POTLOK:  cpu time    1.3789: real time    1.3791
    SETDIJ:  cpu time    2.0779: real time    2.0783
    TRIAL :  cpu time  520.8705: real time  520.9644
    CORREC:  cpu time    0.0010: real time    0.0013
    CHARGE:  cpu time    1.6609: real time    1.6613
    --------------------------------------------
      LOOP:  cpu time  525.9914: real time  526.0885

 eigenvalue-minimisations  :     0
 total energy-change (2. order) :-0.1906747E-01  (-0.1734307E-01)
 number of electron     245.0000003 magnetization       1.0000003
 augmentation part       14.8846546 magnetization       0.7233504

 DIPCOR: dipole corrections for dipol
 direction  3 min pos     1,
 dipolmoment          -0.000000      0.000000     -0.000165 electrons x Angstroem
 Tr[quadrupol]     -6767.298157

 energy correction for charged system         0.000000 eV
 dipol+quadrupol energy correction            0.000000 eV
 added-field ion interaction          0.000000 eV  (added to PSCEN)


 Free energy of the ion-electron system (eV)
  ---------------------------------------------------
  alpha Z        PSCENC =        99.29574911
  Ewald energy   TEWEN  =     39942.20943173
  -Hartree energ DENC   =    -48535.94069341
  -exchange      EXHF   =       554.35634528
  -V(xc)+E(xc)   XCENC  =       624.28020477
  PAW double counting   =     27219.36775158   -27306.79383941
  entropy T*S    EENTRO =        -0.00000000
  eigenvalues    EBANDS =     -3209.57526732
  atomic energy  EATOM  =     10004.52798163
  ---------------------------------------------------
  free energy    TOTEN  =      -608.27233605 eV

  energy without entropy =     -608.27233605  energy(sigma->0) =     -608.27233605
  exchange ACFDT corr.  =        -0.00000000  see jH, gK, PRB 81, 115126


--------------------------------------------------------------------------------------------------------




--------------------------------------- Iteration      1(  18)  ---------------------------------------


    POTLOK:  cpu time    1.3763: real time    1.3765
    SETDIJ:  cpu time    2.0756: real time    2.0758
    TRIAL :  cpu time  520.7266: real time  520.8166
    CORREC:  cpu time    0.0010: real time    0.0010
    CHARGE:  cpu time    1.6604: real time    1.6610
    --------------------------------------------
      LOOP:  cpu time  525.8416: real time  525.9324

 eigenvalue-minimisations  :     0
 total energy-change (2. order) :-0.1655560E-01  (-0.1504782E-01)
 number of electron     245.0000003 magnetization       1.0000003
 augmentation part       14.8851818 magnetization       0.7183131

 DIPCOR: dipole corrections for dipol
 direction  3 min pos     1,
 dipolmoment          -0.000000      0.000000     -0.000157 electrons x Angstroem
 Tr[quadrupol]     -6767.298329

 energy correction for charged system         0.000000 eV
 dipol+quadrupol energy correction            0.000000 eV
 added-field ion interaction          0.000000 eV  (added to PSCEN)


 Free energy of the ion-electron system (eV)
  ---------------------------------------------------
  alpha Z        PSCENC =        99.29574911
  Ewald energy   TEWEN  =     39942.20943173
  -Hartree energ DENC   =    -48535.89281182
  -exchange      EXHF   =       554.40815083
  -V(xc)+E(xc)   XCENC  =       624.30097495
  PAW double counting   =     27222.60241371   -27310.06646021
  entropy T*S    EENTRO =        -0.00000000
[...]
  augment   152.82427   165.77877   182.78709    -0.00417     0.02349     0.00117
  Kinetic  3575.73359  3626.55787  4114.72016    -0.01020     0.00500    -0.00130
  Fock     -324.53643  -331.78099  -317.46280     0.00213    -0.00555    -0.00108
  -------------------------------------------------------------------------------------
  Total     -43.52113   -40.65001    -0.36100     0.00320     0.00446    -0.00018
  in kB     -21.94865   -20.50068    -0.18206     0.00161     0.00225    -0.00009
  external pressure =      -14.21 kB  Pullay stress =        0.00 kB


 VOLUME and BASIS-vectors are now :
 -----------------------------------------------------------------------------
  energy-cutoff  :      500.00
  volume of cell :     3176.90
      direct lattice vectors                 reciprocal lattice vectors
    12.698836339  0.000675886  0.000013222     0.078747373  0.000004885 -0.000017091
    -0.000774257 12.482137585 -0.000057331    -0.000004264  0.080114483  0.000024912
     0.004350325 -0.006232032 20.042419650    -0.000000052  0.000000229  0.049894175

  length of vectors
    12.698836357 12.482137609 20.042421091     0.078747375  0.080114487  0.049894175


 FORCES acting on ions:
    Electron-Ion                     Ewald-Force                    Non-Local-Force
 -----------------------------------------------------------------------------------------------
   0.456E+01 -.218E+01 -.214E+00   -.478E+01 0.270E+01 0.215E+00   0.122E+00 -.592E+00 -.978E-03
   -.188E+01 -.218E+01 -.180E+00   0.178E+01 0.246E+01 0.181E+00   -.189E-01 -.222E+00 -.553E-03
   0.116E+02 -.177E+01 -.867E-01   -.117E+02 0.185E+01 0.861E-01   0.129E+00 -.124E+00 0.124E-02
   0.143E+02 -.340E+00 -.233E+00   -.142E+02 0.901E+00 0.231E+00   0.759E-02 -.425E+00 0.957E-03
   0.739E+01 -.473E+01 -.129E+00   -.691E+01 0.532E+01 0.129E+00   -.430E+00 -.609E+00 -.818E-03
   0.269E+00 -.152E+01 -.316E+00   -.407E+00 0.150E+01 0.315E+00   0.872E-02 -.574E-01 -.232E-03
   0.735E+01 -.819E+00 -.233E+00   -.705E+01 0.993E+00 0.232E+00   -.298E+00 -.139E+00 0.396E-04
   0.195E+02 0.667E+01 0.200E+00   -.176E+02 -.673E+01 -.203E+00   -.156E+01 -.331E-01 0.212E-02
   0.188E+02 0.809E+01 0.887E-01   -.187E+02 -.911E+01 -.908E-01   -.335E+00 0.113E+01 0.211E-02
   0.530E+01 0.155E+01 -.343E+00   -.542E+01 -.149E+01 0.342E+00   0.146E+00 0.856E-01 0.249E-03
   0.105E+02 0.245E+01 -.269E+00   -.102E+02 -.227E+01 0.269E+00   -.637E-01 -.778E-01 -.156E-02
   0.672E+02 0.282E+01 0.234E+00   -.711E+02 -.312E+01 -.222E+00   0.395E+01 0.422E+00 -.115E-01
   0.245E+02 -.222E+01 -.150E+00   -.249E+02 0.174E+01 0.151E+00   0.465E+00 0.305E+00 -.273E-02
   0.369E+01 0.217E+01 -.280E+00   -.384E+01 -.249E+01 0.281E+00   0.611E-01 0.238E+00 -.726E-03
   0.819E+01 0.150E+01 -.323E+00   -.849E+01 -.184E+01 0.322E+00   0.119E+00 0.215E+00 -.853E-03
   0.488E+02 0.178E-01 -.183E+00   -.526E+02 -.597E+00 0.183E+00   0.398E+01 0.450E+00 -.194E-02
   0.176E+02 0.360E+00 -.217E+00   -.183E+02 0.422E-01 0.218E+00   0.537E+00 -.257E+00 -.110E-02
   -.804E+00 -.252E+00 -.379E-01   0.794E+00 0.237E+00 0.386E-01   0.290E-01 -.465E-02 0.505E-03
   0.842E+01 -.872E+00 -.133E+00   -.880E+01 0.770E+00 0.132E+00   0.419E+00 0.171E+00 0.117E-02
   0.168E+02 -.963E+01 -.237E+00   -.173E+02 0.100E+02 0.235E+00   0.384E+00 -.430E+00 0.150E-02
   -.600E+01 -.542E+01 -.497E+00   0.584E+01 0.613E+01 0.497E+00   0.137E+00 -.713E+00 -.449E-03
   0.785E+01 0.490E+01 -.320E+00   -.785E+01 -.421E+01 0.321E+00   -.116E+00 -.705E+00 -.206E-02
   0.600E+01 -.541E+01 -.490E+00   -.584E+01 0.613E+01 0.490E+00   -.137E+00 -.713E+00 -.430E-03
   -.785E+01 0.490E+01 -.333E+00   0.785E+01 -.420E+01 0.334E+00   0.116E+00 -.704E+00 -.192E-02
   -.114E+02 0.133E+02 0.110E+00   0.117E+02 -.115E+02 -.115E+00   -.380E-01 -.141E+01 0.364E-02
   0.114E+02 0.133E+02 0.124E+00   -.117E+02 -.115E+02 -.129E+00   0.370E-01 -.141E+01 0.388E-02
   0.281E+00 -.415E+02 -.399E+00   -.168E+01 0.449E+02 0.403E+00   0.137E+01 -.325E+01 -.444E-02
   0.890E+01 -.159E+02 -.434E+00   -.887E+01 0.169E+02 0.435E+00   0.802E-01 -.921E+00 -.139E-02
   -.278E+00 -.416E+02 -.388E+00   0.168E+01 0.449E+02 0.392E+00   -.137E+01 -.325E+01 -.430E-02
   -.890E+01 -.159E+02 -.443E+00   0.887E+01 0.169E+02 0.444E+00   -.793E-01 -.920E+00 -.138E-02
   -.116E+02 -.180E+01 -.888E-01   0.117E+02 0.188E+01 0.882E-01   -.129E+00 -.123E+00 0.128E-02
   -.143E+02 -.350E+00 -.259E+00   0.142E+02 0.911E+00 0.258E+00   -.794E-02 -.424E+00 0.885E-03
   -.455E+01 -.216E+01 -.224E+00   0.478E+01 0.268E+01 0.226E+00   -.122E+00 -.590E+00 -.932E-03
   0.188E+01 -.215E+01 -.189E+00   -.178E+01 0.243E+01 0.189E+00   0.186E-01 -.221E+00 -.523E-03
   -.735E+01 -.840E+00 -.263E+00   0.705E+01 0.101E+01 0.263E+00   0.297E+00 -.139E+00 -.905E-04
   -.195E+02 0.668E+01 0.163E+00   0.176E+02 -.673E+01 -.167E+00   0.156E+01 -.315E-01 0.213E-02
   -.740E+01 -.472E+01 -.169E+00   0.691E+01 0.530E+01 0.169E+00   0.428E+00 -.608E+00 -.968E-03
   -.272E+00 -.151E+01 -.338E+00   0.410E+00 0.149E+01 0.337E+00   -.103E-01 -.569E-01 -.399E-03
   -.105E+02 0.245E+01 -.300E+00   0.102E+02 -.227E+01 0.300E+00   0.624E-01 -.771E-01 -.192E-02
   -.672E+02 0.284E+01 0.258E+00   0.711E+02 -.314E+01 -.245E+00   -.395E+01 0.423E+00 -.122E-01
   -.188E+02 0.807E+01 0.676E-01   0.187E+02 -.910E+01 -.695E-01   0.333E+00 0.113E+01 0.182E-02
   -.531E+01 0.154E+01 -.352E+00   0.543E+01 -.148E+01 0.351E+00   -.146E+00 0.858E-01 0.294E-03
   -.819E+01 0.150E+01 -.332E+00   0.849E+01 -.184E+01 0.331E+00   -.118E+00 0.216E+00 -.988E-03
   -.488E+02 0.265E-01 -.192E+00   0.526E+02 -.606E+00 0.192E+00   -.398E+01 0.451E+00 -.177E-02
   -.245E+02 -.225E+01 -.149E+00   0.249E+02 0.176E+01 0.150E+00   -.464E+00 0.307E+00 -.272E-02
   -.369E+01 0.217E+01 -.280E+00   0.384E+01 -.250E+01 0.281E+00   -.599E-01 0.238E+00 -.703E-03
   -.842E+01 -.887E+00 -.125E+00   0.880E+01 0.785E+00 0.124E+00   -.418E+00 0.171E+00 0.136E-02
   -.168E+02 -.963E+01 -.246E+00   0.173E+02 0.100E+02 0.245E+00   -.384E+00 -.429E+00 0.144E-02
   -.176E+02 0.362E+00 -.220E+00   0.183E+02 0.398E-01 0.221E+00   -.535E+00 -.256E+00 -.111E-02
   0.805E+00 -.224E+00 -.319E-01   -.794E+00 0.209E+00 0.325E-01   -.281E-01 -.384E-02 0.647E-03
   0.199E+02 -.177E+01 0.662E+00   -.162E+02 0.675E+01 -.677E+00   -.390E+01 -.539E+01 0.181E-01
   -.198E+02 -.181E+01 0.633E+00   0.162E+02 0.679E+01 -.648E+00   0.390E+01 -.539E+01 0.181E-01
   0.811E+02 -.405E+01 0.175E+01   -.694E+02 0.262E+01 -.182E+01   -.114E+02 0.126E+01 0.718E-01
   -.811E+02 -.407E+01 0.190E+01   0.694E+02 0.264E+01 -.198E+01   0.114E+02 0.126E+01 0.785E-01
   0.200E+02 0.193E+02 -.181E+00   -.109E+02 -.355E+02 0.168E+00   -.906E+01 0.154E+02 0.122E-01
   -.200E+02 0.193E+02 -.211E+00   0.109E+02 -.355E+02 0.199E+00   0.906E+01 0.154E+02 0.108E-01
   -.256E-02 0.148E+03 0.312E+01   0.300E-02 -.158E+03 -.310E+01   -.359E-03 0.784E+01 -.184E-01
   0.219E-01 -.100E+03 0.156E+01   -.216E-01 0.104E+03 -.153E+01   -.142E-02 -.161E+01 -.224E-01
 -----------------------------------------------------------------------------------------------
   0.505E-02 -.168E+02 -.150E+00   0.549E-12 -.313E-12 -.666E-15   -.341E-02 0.149E+02 0.132E+00
 
 
 POSITION                                       TOTAL-FORCE (eV/Angst)
 -----------------------------------------------------------------------------------
      2.80316     12.47838     10.02151        -0.108132     -0.101572      0.000151
      0.70216      1.25419     10.02151        -0.127512      0.042970     -0.000065
      1.39178     12.47529     10.02131         0.136245     -0.055333      0.000698
      3.51014      1.23908     10.02122         0.154688      0.115099     -0.000772
      2.84309      2.50102     10.02059         0.030406     -0.064057     -0.000822
      0.70510      3.75214     10.02154        -0.133300     -0.083335     -0.000782
      1.41669      2.50352     10.02135        -0.011094      0.029057     -0.000638
      3.59908      3.74323     10.01872         0.240831     -0.088273     -0.000586
      2.86407      4.98631     10.01915        -0.257121      0.156275      0.000089
      0.71291      6.24707     10.02154         0.035574      0.152277     -0.000906
      1.43489      4.99937     10.02101         0.259832      0.099209     -0.001533
      3.59678      6.23832     10.01786         0.223787      0.143087     -0.000183
      2.88620      7.49707     10.02014         0.083598     -0.165707     -0.001950
      0.70745      8.72235     10.02166        -0.076779     -0.072146     -0.000506
      1.44531      7.48807     10.02138        -0.181592     -0.116465     -0.001287
      3.60910      8.74858     10.02057         0.393300     -0.104297     -0.001485
      2.84493      9.97801     10.02135        -0.099096      0.140287     -0.000150
      0.70182     11.21564     10.02121         0.011747     -0.018512      0.001219
      1.41517      9.96751     10.02137         0.062941      0.076312      0.000404
      3.51268     11.23505     10.02163        -0.030272     -0.048297      0.000245
      7.04507     12.46783     10.02212        -0.022654     -0.038346     -0.001030
      4.92305      1.21587     10.02114        -0.129262     -0.036527     -0.001297
      5.63655     12.46781     10.02208         0.022920     -0.038406     -0.000930
      7.76010      1.21590     10.02121         0.128798     -0.035689     -0.001211
      7.04920      2.42827     10.01906         0.290476      0.293401     -0.001030
      5.63391      2.42825     10.01901        -0.291528      0.293332     -0.001009
      7.05266     10.01396     10.02139         0.042801     -0.099035     -0.001027
      4.92903     11.23862     10.02200         0.117799     -0.000109     -0.000329
      5.62906     10.01395     10.02135        -0.041459     -0.098926     -0.000863
      7.75262     11.23864     10.02205        -0.117001      0.000891     -0.000324
     11.28982     12.47570     10.02135        -0.135929     -0.054857      0.000790
      9.17300      1.23919     10.02134        -0.155046      0.115719     -0.000821
      9.87845     12.47853     10.02159         0.108299     -0.100478      0.000227
     11.98098      1.25469     10.02157         0.127222      0.043521     -0.000066
     11.26642      2.50393     10.02148         0.009908      0.029487     -0.000871
      9.08394      3.74328     10.01886        -0.242275     -0.087102     -0.000813
      9.84002      2.50117     10.02075        -0.031490     -0.063005     -0.000984
     11.97790      3.75265     10.02163         0.131978     -0.082892     -0.000937
     11.24790      4.99974     10.02112        -0.260848      0.099646     -0.001917
      9.08572      6.23828     10.01778        -0.224418      0.144781      0.000166
      9.81874      4.98643     10.01923         0.255848      0.157199     -0.000009
     11.96956      6.24759     10.02159        -0.035954      0.152730     -0.001001
     11.23684      7.48843     10.02142         0.182305     -0.115893     -0.001394
      9.07277      8.74862     10.02060        -0.391841     -0.103424     -0.001612
      9.79593      7.49719     10.02014        -0.082483     -0.164347     -0.001970
     11.97445      8.72286     10.02167         0.077912     -0.071529     -0.000493
     11.26655      9.96790     10.02137        -0.061938      0.076738      0.000586
      9.16896     11.23515     10.02169         0.031111     -0.047766      0.000254
      9.83679      9.97815     10.02138         0.100502      0.141553     -0.000143
     11.97982     11.21614     10.02122        -0.010906     -0.017882      0.001321
      5.02253      3.70615     10.01685        -0.424762     -0.702227      0.003971
      7.66048      3.70619     10.01695         0.423000     -0.701453      0.003848
      4.93693      6.21160     10.01444        -0.684709     -0.058867      0.004838
      7.74558      6.21155     10.01418         0.684745     -0.058091      0.005477
      4.99494      8.78866     10.02005        -0.695472      0.506732      0.000101
      7.68693      8.78868     10.02011         0.697223      0.507756     -0.000115
      6.34131      5.12067     10.01371        -0.000037     -0.992822      0.004348
      6.34121      7.36572     10.01594        -0.000888      1.169605      0.005130
 -----------------------------------------------------------------------------------
    total drift:                                0.001547     -0.006360     -0.000574


--------------------------------------------------------------------------------------------------------



  FREE ENERGIE OF THE ION-ELECTRON SYSTEM (eV)
  ---------------------------------------------------
  free  energy   TOTEN  =      -608.41321472 eV

  energy  without entropy=     -608.41321472  energy(sigma->0) =     -608.41321472
 


--------------------------------------------------------------------------------------------------------


    POTLOK:  cpu time    3.4379: real time    3.4385


--------------------------------------------------------------------------------------------------------


 stress matrix after NEB project (eV)
    -43.52113      0.00320     -0.00018
      0.00320    -40.65001      0.00478
     -0.00018      0.00446     -0.36100
  FORCES: max atom, RMS     1.169617    0.373179
  FORCE total and by dimension    2.842046    1.169605
  Stress total and by dimension   59.553699   43.521134
 writing wavefunctions
     LOOP+:  cpu time39558.2106: real time39567.7637
    4ORBIT:  cpu time    0.0000: real time    0.0000
 


 total charge     
 
# of ion       s       p       d       tot
------------------------------------------
    1        0.868   1.779   0.000   2.647
    2        0.864   1.761   0.000   2.626
    3        0.867   1.767   0.000   2.634
    4        0.869   1.781   0.000   2.649
    5        0.864   1.752   0.000   2.616
    6        0.862   1.753   0.000   2.616
    7        0.864   1.753   0.000   2.618
    8        0.860   1.738   0.000   2.598
    9        0.862   1.748   0.000   2.609
   10        0.858   1.745   0.000   2.603
   11        0.862   1.743   0.000   2.604
   12        0.861   1.727   0.000   2.588
   13        0.855   1.756   0.000   2.611
   14        0.863   1.756   0.000   2.619
   15        0.859   1.743   0.000   2.602
   16        0.854   1.703   0.000   2.557
   17        0.863   1.764   0.000   2.628
   18        0.864   1.763   0.000   2.627
   19        0.863   1.759   0.000   2.622
   20        0.870   1.772   0.000   2.642
   21        0.872   1.795   0.000   2.667
   22        0.876   1.799   0.000   2.675
   23        0.872   1.795   0.000   2.667
   24        0.876   1.799   0.000   2.675
   25        0.885   1.790   0.000   2.675
   26        0.885   1.790   0.000   2.675
   27        0.867   1.767   0.000   2.634
   28        0.873   1.801   0.000   2.674
   29        0.867   1.767   0.000   2.634
   30        0.873   1.801   0.000   2.674
   31        0.867   1.767   0.000   2.634
   32        0.869   1.781   0.000   2.649
   33        0.868   1.779   0.000   2.647
   34        0.864   1.761   0.000   2.626
   35        0.864   1.753   0.000   2.618
   36        0.860   1.738   0.000   2.598
   37        0.864   1.752   0.000   2.616
   38        0.862   1.753   0.000   2.616
   39        0.862   1.743   0.000   2.604
   40        0.861   1.728   0.000   2.588
   41        0.862   1.748   0.000   2.609
   42        0.858   1.745   0.000   2.603
   43        0.859   1.743   0.000   2.602
   44        0.854   1.703   0.000   2.557
   45        0.855   1.756   0.000   2.611
   46        0.863   1.756   0.000   2.619
   47        0.863   1.759   0.000   2.622
   48        0.870   1.772   0.000   2.642
   49        0.863   1.764   0.000   2.628
   50        0.864   1.763   0.000   2.627
   51        0.872   1.650   0.000   2.523
   52        0.872   1.650   0.000   2.523
   53        1.251   2.591   0.000   3.843
   54        1.251   2.591   0.000   3.843
   55        1.229   2.654   0.000   3.883
   56        1.229   2.654   0.000   3.883
   57        0.566   0.814   7.356   8.735
   58        0.468   0.728   6.296   7.492
--------------------------------------------------
tot         50.986 103.365  13.653 168.004
 


 magnetization (x)
 
# of ion       s       p       d       tot
------------------------------------------
    1        0.000   0.002   0.000   0.002
    2        0.000   0.000   0.000   0.000
    3       -0.000  -0.001   0.000  -0.001
    4       -0.000  -0.004   0.000  -0.004
    5        0.000   0.001   0.000   0.001
    6       -0.000  -0.001   0.000  -0.001
    7       -0.000  -0.001   0.000  -0.001
    8       -0.000  -0.002   0.000  -0.003
    9       -0.001   0.001   0.000  -0.000
   10        0.000   0.002   0.000   0.002
   11       -0.000  -0.003   0.000  -0.004
   12       -0.000  -0.001   0.000  -0.001
   13        0.001   0.005   0.000   0.006
   14        0.000  -0.000   0.000  -0.000
   15        0.000  -0.001   0.000  -0.001
   16       -0.000  -0.006   0.000  -0.006
   17        0.000   0.001   0.000   0.001
   18        0.000  -0.000   0.000  -0.000
   19       -0.000  -0.001   0.000  -0.001
   20       -0.000  -0.006   0.000  -0.007
   21        0.000   0.001   0.000   0.001
   22        0.000   0.003   0.000   0.004
   23        0.000   0.001   0.000   0.001
   24        0.000   0.003   0.000   0.004
   25        0.000  -0.005   0.000  -0.005
   26        0.000  -0.005   0.000  -0.005
   27       -0.000  -0.003   0.000  -0.003
   28       -0.000  -0.000   0.000  -0.000
   29       -0.000  -0.003   0.000  -0.003
   30       -0.000  -0.000   0.000  -0.000
   31       -0.000  -0.001   0.000  -0.001
   32       -0.000  -0.004   0.000  -0.004
   33        0.000   0.002   0.000   0.002
   34        0.000   0.000   0.000   0.000
   35       -0.000  -0.001   0.000  -0.001
   36       -0.000  -0.002   0.000  -0.003
   37        0.000   0.001   0.000   0.001
   38       -0.000  -0.001   0.000  -0.001
   39       -0.000  -0.003   0.000  -0.004
   40       -0.000  -0.001   0.000  -0.001
   41       -0.001   0.001   0.000  -0.000
   42        0.000   0.002   0.000   0.002
   43        0.000  -0.001   0.000  -0.001
   44       -0.000  -0.006   0.000  -0.006
   45        0.001   0.005   0.000   0.006
   46        0.000  -0.000   0.000  -0.000
   47       -0.000  -0.001   0.000  -0.001
   48       -0.000  -0.006   0.000  -0.007
   49        0.000   0.001   0.000   0.001
   50        0.000  -0.000   0.000  -0.000
   51        0.006   0.025   0.000   0.031
   52        0.006   0.025   0.000   0.031
   53       -0.001   0.002   0.000   0.001
   54       -0.001   0.002   0.000   0.001
   55       -0.004  -0.017   0.000  -0.021
   56       -0.004  -0.017   0.000  -0.021
   57       -0.008  -0.020  -1.303  -1.331
   58        0.055   0.021   2.166   2.242
--------------------------------------------------
tot          0.047  -0.019   0.863   0.892
 

 total amount of memory used by VASP MPI-rank0   180635. kBytes
=======================================================================

   base      :      30000. kBytes
   nonl-proj :       5328. kBytes
   fftplans  :      14250. kBytes
   grid      :      36827. kBytes
   one-center:         62. kBytes
   HF        :         23. kBytes
   nonlr-proj:      16631. kBytes
   wavefun   :      77514. kBytes
 
  
  
 General timing and accounting informations for this job:
 ========================================================
  
                  Total CPU time used (sec):    39651.348
                            User time (sec):    39588.249
                          System time (sec):       63.097
                         Elapsed time (sec):    39662.229
  
                   Maximum memory used (kb):      431976.
                   Average memory used (kb):           0.
  
                          Minor page faults:       290101
                          Major page faults:            0
                 Voluntary context switches:         1128
