 vasp.5.4.4.18Apr17-6-g9f103f2a35 (build Feb 25 2019 10:51:38) complex          
  
 executed on             LinuxIFC date 2022.01.30  03:01:00
 running on   32 total cores
 distrk:  each k-point on   32 cores,    1 groups
 distr:  one band on NCORES_PER_BAND=  32 cores,    1 groups


--------------------------------------------------------------------------------------------------------


 INCAR:
 POTCAR:    PAW_PBE C 08Apr2002                   
 POTCAR:    PAW_PBE N 08Apr2002                   
 POTCAR:    PAW_PBE Zn 06Sep2000                  
 POTCAR:    PAW_PBE Fe 06Sep2000                  

 ----------------------------------------------------------------------------- 
|                                                                             |
|           W    W    AA    RRRRR   N    N  II  N    N   GGGG   !!!           |
|           W    W   A  A   R    R  NN   N  II  NN   N  G    G  !!!           |
|           W    W  A    A  R    R  N N  N  II  N N  N  G       !!!           |
|           W WW W  AAAAAA  RRRRR   N  N N  II  N  N N  G  GGG   !            |
|           WW  WW  A    A  R   R   N   NN  II  N   NN  G    G                |
|           W    W  A    A  R    R  N    N  II  N    N   GGGG   !!!           |
|                                                                             |
|      For optimal performance we recommend to set                            |
|        NCORE= 4 - approx SQRT( number of cores)                             |
|      NCORE specifies how many cores store one orbital (NPAR=cpu/NCORE).     |
|      This setting can  greatly improve the performance of VASP for DFT.     |
|      The default,   NCORE=1            might be grossly inefficient         |
|      on modern multi-core architectures or massively parallel machines.     |
|      Do your own testing !!!!                                               |
|      Unfortunately you need to use the default for GW and RPA calculations. |
|      (for HF NCORE is supported but not extensively tested yet)             |
|                                                                             |
 ----------------------------------------------------------------------------- 

 POTCAR:    PAW_PBE C 08Apr2002                   
   VRHFIN =C: s2p2                                                              
   LEXCH  = PE                                                                  
   EATOM  =   147.1560 eV,   10.8157 Ry                                         
                                                                                
   TITEL  = PAW_PBE C 08Apr2002                                                 
   LULTRA =        F    use ultrasoft PP ?                                      
   IUNSCR =        1    unscreen: 0-lin 1-nonlin 2-no                           
   RPACOR =    1.200    partial core radius                                     
   POMASS =   12.011; ZVAL   =    4.000    mass and valenz                      
   RCORE  =    1.500    outmost cutoff radius                                   
   RWIGS  =    1.630; RWIGS  =    0.863    wigner-seitz radius (au A)           
   ENMAX  =  400.000; ENMIN  =  300.000 eV                                      
   ICORE  =        2    local potential                                         
   LCOR   =        T    correct aug charges                                     
   LPAW   =        T    paw PP                                                  
   EAUG   =  644.873                                                            
   DEXC   =    0.000                                                            
   RMAX   =    1.529    core radius for proj-oper                               
   RAUG   =    1.300    factor for augmentation sphere                          
   RDEP   =    1.501    radius for radial grids                                 
   RDEPT  =    1.300    core radius for aug-charge                              
                                                                                
   Atomic configuration                                                         
    4 entries                                                                   
     n  l   j            E        occ.                                          
     1  0  0.50      -273.3789   2.0000                                         
     2  0  0.50       -13.7508   2.0000                                         
     2  1  0.50        -5.2854   2.0000                                         
     3  2  1.50        -5.4423   0.0000                                         
   Description                                                                  
     l       E           TYP  RCUT    TYP  RCUT                                 
     0    -13.7508458     23  1.200                                             
     0     -8.2022199     23  1.200                                             
     1     -5.2854383     23  1.500                                             
     1     34.0145650     23  1.500                                             
     2     -5.4423304      7  1.500                                             
  local pseudopotential read in
  partial core-charges read in
  partial kinetic energy density read in
  atomic valenz-charges read in
  non local Contribution for L=           0  read in
    real space projection operators read in
  non local Contribution for L=           0  read in
    real space projection operators read in
  non local Contribution for L=           1  read in
    real space projection operators read in
  non local Contribution for L=           1  read in
    real space projection operators read in
    PAW grid and wavefunctions read in
 
   number of l-projection  operators is LMAX  =           4
   number of lm-projection operators is LMMAX =           8
 
 POTCAR:    PAW_PBE N 08Apr2002                   
   VRHFIN =N: s2p3                                                              
   LEXCH  = PE                                                                  
   EATOM  =   264.5486 eV,   19.4438 Ry                                         
                                                                                
   TITEL  = PAW_PBE N 08Apr2002                                                 
   LULTRA =        F    use ultrasoft PP ?                                      
   IUNSCR =        1    unscreen: 0-lin 1-nonlin 2-no                           
   RPACOR =    1.200    partial core radius                                     
   POMASS =   14.001; ZVAL   =    5.000    mass and valenz                      
   RCORE  =    1.500    outmost cutoff radius                                   
   RWIGS  =    1.400; RWIGS  =    0.741    wigner-seitz radius (au A)           
   ENMAX  =  400.000; ENMIN  =  300.000 eV                                      
   ICORE  =        2    local potential                                         
   LCOR   =        T    correct aug charges                                     
   LPAW   =        T    paw PP                                                  
   EAUG   =  627.112                                                            
   DEXC   =    0.000                                                            
   RMAX   =    1.529    core radius for proj-oper                               
   RAUG   =    1.300    factor for augmentation sphere                          
   RDEP   =    1.514    radius for radial grids                                 
   RDEPT  =    1.338    core radius for aug-charge                              
                                                                                
   Atomic configuration                                                         
    4 entries                                                                   
     n  l   j            E        occ.                                          
     1  0  0.50      -384.7179   2.0000                                         
     2  0  0.50       -18.5828   2.0000                                         
     2  1  0.50        -7.0898   3.0000                                         
     3  2  1.50        -6.8029   0.0000                                         
   Description                                                                  
     l       E           TYP  RCUT    TYP  RCUT                                 
     0    -18.5828119     23  1.200                                             
     0    -13.5018863     23  1.200                                             
     1     -7.0897853     23  1.500                                             
     1      9.5240782     23  1.500                                             
     2     -6.8029130      7  1.500                                             
  local pseudopotential read in
  partial core-charges read in
  partial kinetic energy density read in
  atomic valenz-charges read in
  non local Contribution for L=           0  read in
    real space projection operators read in
  non local Contribution for L=           0  read in
    real space projection operators read in
  non local Contribution for L=           1  read in
    real space projection operators read in
  non local Contribution for L=           1  read in
    real space projection operators read in
    PAW grid and wavefunctions read in
 
   number of l-projection  operators is LMAX  =           4
   number of lm-projection operators is LMMAX =           8
 
 POTCAR:    PAW_PBE Zn 06Sep2000                  
   VRHFIN =Zn: d10 p2                                                           
   LEXCH  = PE                                                                  
   EATOM  =  1748.8345 eV,  128.5357 Ry                                         
                                                                                
   TITEL  = PAW_PBE Zn 06Sep2000                                                
   LULTRA =        F    use ultrasoft PP ?                                      
   IUNSCR =        1    unscreen: 0-lin 1-nonlin 2-no                           
   RPACOR =    2.000    partial core radius                                     
   POMASS =   65.390; ZVAL   =   12.000    mass and valenz                      
   RCORE  =    2.300    outmost cutoff radius                                   
   RWIGS  =    2.400; RWIGS  =    1.270    wigner-seitz radius (au A)           
   ENMAX  =  276.723; ENMIN  =  207.542 eV                                      
   RCLOC  =    1.828    cutoff for local pot                                    
   LCOR   =        T    correct aug charges                                     
   LPAW   =        T    paw PP                                                  
   EAUG   =  575.892                                                            
   DEXC   =    0.000                                                            
   RMAX   =    2.347    core radius for proj-oper                               
   RAUG   =    1.300    factor for augmentation sphere                          
   RDEP   =    2.324    radius for radial grids                                 
   RDEPT  =    1.788    core radius for aug-charge                              
                                                                                
   Atomic configuration                                                         
    9 entries                                                                   
     n  l   j            E        occ.                                          
     1  0  0.50     -9524.6913   2.0000                                         
     2  0  0.50     -1158.1882   2.0000                                         
     2  1  1.50     -1003.8506   6.0000                                         
     3  0  0.50      -129.2194   2.0000                                         
     3  1  1.50       -83.3890   6.0000                                         
     3  2  2.50       -10.1410  10.0000                                         
     4  0  0.50        -5.9785   2.0000                                         
     4  1  0.50        -4.0817   0.0000                                         
     4  3  2.50        -1.3606   0.0000                                         
   Description                                                                  
     l       E           TYP  RCUT    TYP  RCUT                                 
     2    -10.1410010     23  2.300                                             
     2    -11.5015836     23  2.300                                             
     0     -5.9785163     23  2.300                                             
     0      1.1858015     23  2.300                                             
     1     -2.7211652     23  2.300                                             
     1     13.2444212     23  2.300                                             
  local pseudopotential read in
  partial core-charges read in
  partial kinetic energy density read in
  atomic valenz-charges read in
  non local Contribution for L=           2  read in
    real space projection operators read in
  non local Contribution for L=           2  read in
    real space projection operators read in
  non local Contribution for L=           0  read in
    real space projection operators read in
  non local Contribution for L=           0  read in
    real space projection operators read in
  non local Contribution for L=           1  read in
    real space projection operators read in
  non local Contribution for L=           1  read in
    real space projection operators read in
    PAW grid and wavefunctions read in
 
   number of l-projection  operators is LMAX  =           6
   number of lm-projection operators is LMMAX =          18
 
 POTCAR:    PAW_PBE Fe 06Sep2000                  
   VRHFIN =Fe:  d7 s1                                                           
   LEXCH  = PE                                                                  
   EATOM  =   594.3153 eV,   43.6809 Ry                                         
                                                                                
   TITEL  = PAW_PBE Fe 06Sep2000                                                
   LULTRA =        F    use ultrasoft PP ?                                      
   IUNSCR =        1    unscreen: 0-lin 1-nonlin 2-no                           
   RPACOR =    2.000    partial core radius                                     
   POMASS =   55.847; ZVAL   =    8.000    mass and valenz                      
   RCORE  =    2.300    outmost cutoff radius                                   
   RWIGS  =    2.460; RWIGS  =    1.302    wigner-seitz radius (au A)           
   ENMAX  =  267.882; ENMIN  =  200.911 eV                                      
   RCLOC  =    1.701    cutoff for local pot                                    
   LCOR   =        T    correct aug charges                                     
   LPAW   =        T    paw PP                                                  
   EAUG   =  511.368                                                            
   DEXC   =    0.000                                                            
   RMAX   =    2.356    core radius for proj-oper                               
   RAUG   =    1.300    factor for augmentation sphere                          
   RDEP   =    2.442    radius for radial grids                                 
   RDEPT  =    1.890    core radius for aug-charge                              
                                                                                
   Atomic configuration                                                         
    9 entries                                                                   
     n  l   j            E        occ.                                          
     1  0  0.50     -6993.8440   2.0000                                         
     2  0  0.50      -814.6047   2.0000                                         
     2  1  1.50      -693.3689   6.0000                                         
     3  0  0.50       -89.4732   2.0000                                         
     3  1  1.50       -55.6373   6.0000                                         
     3  2  2.50        -3.8151   7.0000                                         
     4  0  0.50        -4.2551   1.0000                                         
     4  1  1.50        -3.4015   0.0000                                         
     4  3  2.50        -1.3606   0.0000                                         
   Description                                                                  
     l       E           TYP  RCUT    TYP  RCUT                                 
     2     -3.8151135     23  2.300                                             
     2     -5.1756961     23  2.300                                             
     0     -4.2550963     23  2.300                                             
     0      7.2035603     23  2.300                                             
     1     -2.7211652     23  2.300                                             
     1     18.4316424     23  2.300                                             
  local pseudopotential read in
  partial core-charges read in
  partial kinetic energy density read in
  atomic valenz-charges read in
  non local Contribution for L=           2  read in
    real space projection operators read in
  non local Contribution for L=           2  read in
    real space projection operators read in
  non local Contribution for L=           0  read in
    real space projection operators read in
  non local Contribution for L=           0  read in
    real space projection operators read in
  non local Contribution for L=           1  read in
    real space projection operators read in
  non local Contribution for L=           1  read in
    real space projection operators read in
    PAW grid and wavefunctions read in
 
   number of l-projection  operators is LMAX  =           6
   number of lm-projection operators is LMMAX =          18
 

 ----------------------------------------------------------------------------- 
|                                                                             |
|  ADVICE TO THIS USER RUNNING 'VASP/VAMP'   (HEAR YOUR MASTER'S VOICE ...):  |
|                                                                             |
|      You have a (more or less) 'large supercell' and for larger cells       |
|      it might be more efficient to use real space projection opertators     |
|      So try LREAL= Auto  in the INCAR   file.                               |
|      Mind:          For very  accurate calculation you might also keep the  |
|      reciprocal projection scheme          (i.e. LREAL=.FALSE.)             |
|                                                                             |
 ----------------------------------------------------------------------------- 

  PAW_PBE C 08Apr2002                   :
 energy of atom  1       EATOM= -147.1560
 kinetic energy error for atom=    0.0076 (will be added to EATOM!!)
  PAW_PBE N 08Apr2002                   :
 energy of atom  2       EATOM= -264.5486
 kinetic energy error for atom=    0.0138 (will be added to EATOM!!)
  PAW_PBE Zn 06Sep2000                  :
 energy of atom  3       EATOM=-1748.8345
 kinetic energy error for atom=    0.0029 (will be added to EATOM!!)
  PAW_PBE Fe 06Sep2000                  :
 energy of atom  4       EATOM= -594.3153
 kinetic energy error for atom=    0.0026 (will be added to EATOM!!)
 
 
 POSCAR:  C  N Zn Fe                             
  positions in cartesian coordinates
  No initial velocities read in
 exchange correlation table for  LEXCH =        8
   RHO(1)=    0.500       N(1)  =     2000
   RHO(2)=  100.500       N(2)  =     4000

 VTST: version 3.2, (02/03/18)

 CHAIN: initializing optimizer
 
 OPT: Using VASP Conjugate-Gradient optimizer
 CHAIN: Read ICHAIN            0
 
 POSCAR:  C  N Zn Fe                             
  positions in cartesian coordinates
  No initial velocities read in
 


--------------------------------------------------------------------------------------------------------


 ion  position               nearest neighbor table
   1  0.220  0.999  0.500-   3 1.42   4 1.43  20 1.43
   2  0.054  0.100  0.500-  34 1.42   7 1.44   3 1.44
   3  0.109  1.000  0.500-   1 1.42  18 1.44   2 1.44
   4  0.275  0.098  0.500-  22 1.42   5 1.43   1 1.43
   5  0.221  0.198  0.500-   7 1.43   4 1.43   8 1.44
   6  0.055  0.300  0.500-  38 1.43   7 1.44  11 1.45
   7  0.110  0.200  0.500-   5 1.43   6 1.44   2 1.44
   8  0.280  0.296  0.500-  55 1.37   5 1.44   9 1.46
   9  0.225  0.398  0.500-  11 1.43   8 1.46  12 1.46
  10  0.056  0.499  0.500-  42 1.43  11 1.45  15 1.45
  11  0.113  0.399  0.500-   9 1.43   6 1.45  10 1.45
  12  0.279  0.500  0.500-  56 1.32  13 1.45   9 1.46
  13  0.223  0.601  0.500-  15 1.42  16 1.45  12 1.45
  14  0.055  0.700  0.500-  46 1.42  19 1.44  15 1.45
  15  0.112  0.600  0.500-  13 1.42  14 1.45  10 1.45
  16  0.282  0.700  0.500-  53 1.43  17 1.45  13 1.45
  17  0.223  0.800  0.500-  20 1.43  19 1.43  16 1.45
  18  0.055  0.899  0.500-  50 1.43   3 1.44  19 1.44
  19  0.111  0.800  0.500-  17 1.43  18 1.44  14 1.44
  20  0.276  0.900  0.500-  28 1.43  17 1.43   1 1.43
  21  0.555  1.000  0.500-  23 1.42  24 1.42  30 1.43
  22  0.387  0.097  0.500-  26 1.41  23 1.42   4 1.42
  23  0.444  0.999  0.500-  21 1.42  22 1.42  28 1.42
  24  0.610  0.098  0.500-  21 1.42  25 1.42  32 1.43
  25  0.554  0.196  0.500-  51 1.41  24 1.42  26 1.46
  26  0.440  0.195  0.500-  55 1.37  22 1.41  25 1.46
  27  0.556  0.803  0.500-  30 1.41  54 1.43  29 1.43
  28  0.388  0.901  0.500-  29 1.41  23 1.42  20 1.43
  29  0.444  0.804  0.500-  28 1.41  53 1.42  27 1.43
  30  0.611  0.901  0.500-  27 1.41  48 1.42  21 1.43
  31  0.888  0.000  0.500-  33 1.42  50 1.44  34 1.44
  32  0.721  0.100  0.500-  24 1.43  37 1.43  33 1.44
  33  0.778  0.000  0.500-  31 1.42  48 1.43  32 1.44
  34  0.943  0.100  0.500-   2 1.42  35 1.44  31 1.44
  35  0.888  0.200  0.500-  37 1.43  34 1.44  38 1.44
  36  0.718  0.299  0.500-  51 1.41  37 1.45  41 1.46
  37  0.776  0.200  0.500-  35 1.43  32 1.43  36 1.45
  38  0.943  0.300  0.500-   6 1.43  35 1.44  39 1.45
  39  0.887  0.400  0.500-  41 1.43  38 1.45  42 1.45
  40  0.722  0.502  0.500-  52 1.38  45 1.45  41 1.45
  41  0.775  0.400  0.500-  39 1.43  40 1.45  36 1.46
  42  0.944  0.500  0.500-  10 1.43  43 1.45  39 1.45
  43  0.889  0.601  0.500-  45 1.42  46 1.44  42 1.45
  44  0.718  0.701  0.500-  54 1.43  49 1.45  45 1.45
  45  0.778  0.602  0.500-  43 1.42  40 1.45  44 1.45
  46  0.944  0.700  0.500-  14 1.42  47 1.44  43 1.44
  47  0.888  0.800  0.500-  49 1.43  50 1.44  46 1.44
  48  0.722  0.901  0.500-  30 1.42  49 1.43  33 1.43
  49  0.776  0.800  0.500-  48 1.43  47 1.43  44 1.45
  50  0.943  0.900  0.500-  18 1.43  47 1.44  31 1.44
  51  0.609  0.294  0.500-  36 1.41  25 1.41  57 1.95
  52  0.614  0.517  0.500-  40 1.38  58 1.74  57 2.08
  53  0.393  0.704  0.500-  29 1.42  16 1.43  58 1.97
  54  0.607  0.702  0.500-  27 1.43  44 1.43  58 2.01
  55  0.387  0.290  0.500-  26 1.37   8 1.37  57 2.00
  56  0.382  0.507  0.500-  12 1.32  58 1.78  57 1.99
  57  0.498  0.401  0.500-  51 1.95  56 1.99  55 2.00  52 2.08  58 2.33
  58  0.497  0.587  0.499-  52 1.74  56 1.78  53 1.97  54 2.01  57 2.33
 
  LATTYP: Found a triclinic cell.
 ALAT       =    17.8774918304
 B/A-ratio  =     0.7000346420
 C/A-ratio  =     1.1087174352
 COS(alpha) =     0.0000221238
 COS(beta)  =     0.0002160785
 COS(gamma) =     0.6977131310
  
  Lattice vectors:
  
 A1 = ( -12.7797030232,  12.5013560878,   0.0008675036)
 A2 = (   0.0273858459,  12.5148335793,   0.0011293400)
 A3 = (  -0.0051471487,   0.0022384398, -19.8210860944)


Analysis of symmetry for initial positions (statically):
=====================================================================
 Subroutine PRICEL returns:
 Original cell was already a primitive cell.
 

 Routine SETGRP: Setting up the symmetry group for a 
 triclinic supercell.


 Subroutine GETGRP returns: Found  1 space group operations
 (whereof  1 operations were pure point group operations)
 out of a pool of  2 trial point group operations.


The static configuration has the point symmetry C_1 .


Analysis of symmetry for dynamics (positions and initial velocities):
=====================================================================
 Subroutine PRICEL returns:
 Original cell was already a primitive cell.
 

 Routine SETGRP: Setting up the symmetry group for a 
 triclinic supercell.


 Subroutine GETGRP returns: Found  1 space group operations
 (whereof  1 operations were pure point group operations)
 out of a pool of  2 trial point group operations.


The dynamic configuration has the point symmetry C_1 .


Analysis of structural, dynamic, and magnetic symmetry:
=====================================================================
 Subroutine PRICEL returns:
 Original cell was already a primitive cell.
 

 Routine SETGRP: Setting up the symmetry group for a 
 triclinic supercell.


 Subroutine GETGRP returns: Found  1 space group operations
 (whereof  1 operations were pure point group operations)
 out of a pool of  2 trial point group operations.


The magnetic configuration has the point symmetry C_1 .


 Subroutine INISYM returns: Found  1 space group operations
 (whereof  1 operations are pure point group operations),
 and found     1 'primitive' translations

 
 
 KPOINTS: KPOINTS created by Atomic Simulation Env

Automatic generation of k-mesh.
Space group operators:
 irot       det(A)        alpha          n_x          n_y          n_z        tau_x        tau_y        tau_z
    1     1.000000     0.000000     1.000000     0.000000     0.000000     0.000000     0.000000     0.000000
 
 Subroutine IBZKPT returns following result:
 ===========================================
 
 Found      1 irreducible k-points:
 
 Following reciprocal coordinates:
            Coordinates               Weight
  0.000000  0.000000  0.000000      1.000000
 
 Following cartesian coordinates:
            Coordinates               Weight
  0.000000  0.000000  0.000000      1.000000
 
 
 Subroutine IBZKPT_HF returns following result:
 ==============================================
 
 Found      1 k-points in 1st BZ
 the following      1 k-points will be used (e.g. in the exchange kernel)
 Following reciprocal coordinates:   # in IRBZ
  0.000000  0.000000  0.000000    1.00000000   1 t-inv F


--------------------------------------------------------------------------------------------------------




 Dimension of arrays:
   k-points           NKPTS =      1   k-points in BZ     NKDIM =      1   number of bands    NBANDS=    157
   number of dos      NEDOS =    301   number of ions     NIONS =     58
   non local maximal  LDIM  =      6   non local SUM 2l+1 LMDIM =     18
   total plane-waves  NPLWV = ******
   max r-space proj   IRMAX =      1   max aug-charges    IRDMAX=  15698
   dimension x,y,z NGX =    96 NGY =   96 NGZ =  150
   dimension x,y,z NGXF=   192 NGYF=  192 NGZF=  300
   support grid    NGXF=   192 NGYF=  192 NGZF=  300
   ions per type =              54   2   1   1
   NGX,Y,Z   is equivalent  to a cutoff of  12.46, 12.75, 12.58 a.u.
   NGXF,Y,Z  is equivalent  to a cutoff of  24.92, 25.51, 25.16 a.u.

 SYSTEM =  unknown system                          
 POSCAR =   C  N Zn Fe                             

 Startparameter for this run:
   NWRITE =      2    write-flag & timer
   PREC   = accura    normal or accurate (medium, high low for compatibility)
   ISTART =      1    job   : 0-new  1-cont  2-samecut
   ICHARG =      0    charge: 1-file 2-atom 10-const
   ISPIN  =      2    spin polarized calculation?
   LNONCOLLINEAR =      F non collinear calculations
   LSORBIT =      F    spin-orbit coupling
   INIWAV =      1    electr: 0-lowe 1-rand  2-diag
   LASPH  =      T    aspherical Exc in radial PAW
   METAGGA=      F    non-selfconsistent MetaGGA calc.

 Electronic Relaxation 1
   ENCUT  =  500.0 eV  36.75 Ry    6.06 a.u.  23.35 22.82 36.14*2*pi/ulx,y,z
   ENINI  =  500.0     initial cutoff
   ENAUG  =  644.9 eV  augmentation charge cutoff
   NELM   =    250;   NELMIN=  2; NELMDL=  0     # of ELM steps 
   EDIFF  = 0.1E-03   stopping-criterion for ELM
   LREAL  =      F    real-space projection
   NLSPLINE    = F    spline interpolate recip. space projectors
   LCOMPAT=      F    compatible to vasp.4.4
   GGA_COMPAT  = T    GGA compatible to vasp.4.4-vasp.4.6
   LMAXPAW     = -100 max onsite density
   LMAXMIX     =    2 max onsite mixed and CHGCAR
   VOSKOWN=      0    Vosko Wilk Nusair interpolation
   ROPT   =    0.00000   0.00000   0.00000   0.00000
 Ionic relaxation
   EDIFFG = -.3E-01   stopping-criterion for IOM
   NSW    =      0    number of steps for IOM
   NBLOCK =      1;   KBLOCK =      1    inner block; outer block 
   IBRION =     -1    ionic relax: 0-MD 1-quasi-New 2-CG
   NFREE  =      1    steps in history (QN), initial steepest desc. (CG)
   ISIF   =      2    stress and relaxation
   IWAVPR =     10    prediction:  0-non 1-charg 2-wave 3-comb
   ISYM   =      3    0-nonsym 1-usesym 2-fastsym
   LCORR  =      T    Harris-Foulkes like correction to forces

   POTIM  = 0.5000    time-step for ionic-motion
   TEIN   =    0.0    initial temperature
   TEBEG  =    0.0;   TEEND  =   0.0 temperature during run
   SMASS  =  -3.00    Nose mass-parameter (am)
   estimated Nose-frequenzy (Omega)   =  0.10E-29 period in steps =****** mass=  -0.375E-26a.u.
   SCALEE = 1.0000    scale energy and forces
   NPACO  =    256;   APACO  = 16.0  distance and # of slots for P.C.
   PSTRESS=    0.0 pullay stress

  Mass of Ions in am
   POMASS =  12.01 14.00 65.39 55.85
  Ionic Valenz
   ZVAL   =   4.00  5.00 12.00  8.00
  Atomic Wigner-Seitz radii
   RWIGS  =  -1.00 -1.00 -1.00 -1.00
  virtual crystal weights 
   VCA    =   1.00  1.00  1.00  1.00
   NELECT =     246.0000    total number of electrons
   NUPDOWN=      -1.0000    fix difference up-down

 DOS related values:
   EMIN   =  10.00;   EMAX   =-10.00  energy-range for DOS
   EFERMI =   0.00
   ISMEAR =     0;   SIGMA  =   0.10  broadening in eV -4-tet -1-fermi 0-gaus

 Electronic relaxation 2 (details)
   IALGO  =     53    algorithm
   LDIAG  =      T    sub-space diagonalisation (order eigenvalues)
   LSUBROT=      F    optimize rotation matrix (better conditioning)
   TURBO    =      0    0=normal 1=particle mesh
   IRESTART =      0    0=no restart 2=restart with 2 vectors
   NREBOOT  =      0    no. of reboots
   NMIN     =      0    reboot dimension
   EREF     =   0.00    reference energy to select bands
   IMIX   =      4    mixing-type and parameters
     AMIX     =   0.40;   BMIX     =  1.00
     AMIX_MAG =   1.60;   BMIX_MAG =  1.00
     AMIN     =   0.10
     WC   =   100.;   INIMIX=   1;  MIXPRE=   1;  MAXMIX= -45

 Intra band minimization:
   WEIMIN = 0.0000     energy-eigenvalue tresh-hold
   EBREAK =  0.16E-06  absolut break condition
   DEPER  =   0.30     relativ break condition  

   TIME   =   0.20     timestep for ELM

  volume/ion in A,a.u.               =      54.77       369.63
  Fermi-wavevector in a.u.,A,eV,Ry     =   0.697781  1.318615  6.624656  0.486898
  Thomas-Fermi vector in A             =   1.781203
 
 Write flags
   LWAVE        =      T    write WAVECAR
   LDOWNSAMPLE  =      F    k-point downsampling of WAVECAR
   LCHARG       =      T    write CHGCAR
   LVTOT        =      F    write LOCPOT, total local potential
   LVHAR        =      F    write LOCPOT, Hartree potential only
   LELF         =      F    write electronic localiz. function (ELF)
   LORBIT       =     11    0 simple, 1 ext, 2 COOP (PROOUT), +10 PAW based schemes


 Dipole corrections
   LMONO  =      F    monopole corrections only (constant potential shift)
   LDIPOL =      T    correct potential (dipole corrections)
   IDIPOL =      3    1-x, 2-y, 3-z, 4-all directions 
   EPSILON=  1.0000000 bulk dielectric constant

 Exchange correlation treatment:
   GGA     =    PE    GGA type
   LEXCH   =     8    internal setting for exchange type
   VOSKOWN=      0    Vosko Wilk Nusair interpolation
   EXXOEP  =     0    0=HF, 1=EXX-LHF (local Hartree Fock) 2=EXX OEP
   LHFCALC =     T    Hartree Fock is set to
   LSYMGRAD=     F    symmetrize gradient (conserves proper symmetry)
   PRECFOCK=normal    Normal, Fast or Accurate (Low or Medium for compatibility)
   LRHFCALC=     F    long range Hartree Fock
   LRSCOR  =     F    long range correlation only (use DFT for short range part)
   LTHOMAS =     F    Thomas Fermi screening in HF
   LMODELHF=     F    short range full HF, long range fraction AEXX
   ENCUT4O =  -1.0   cutoff for four orbital integrals eV
   LMAXFOCK=     4    L truncation for augmentation on plane wave grid
   LMAXFOCKAE=  -1    L truncation for all-electron charge restoration on plane wave grid
   NMAXFOCKAE=   1    number of basis functions for all-electron charge restoration
   LFOCKAEDFT=     F  apply the AE augmentation even for DFT
   NKREDX  =     1    reduce k-point grid by
   NKREDY  =     1    reduce k-point grid by
   NKREDZ  =     1    reduce k-point grid by
   SHIFTRED=     F    shift reduced grid of Gamma
   HFKIDENT=     F    idential grid for each k-point
   ODDONLY =     F    use only odd q-grid points
   EVENONLY=     F    use only even q-grid points
   HFALPHA =   -1.0000 decay constant for conv. correction
   MCALPHA =    0.0000 extent of test-charge in conv. correction in multipole expansion
   AEXX    =    0.2500 exact exchange contribution
   HFSCREEN=    0.2000 screening length (either q_TF or 0.3 A-1)
   HFSCREENC=   0.2000 screening length for correlation (either q_TF or 0.3 A-1)
   HFRCUT  =    0.0000 spherical cutoff for potential kernel
   ALDAX   =    0.7500 LDA exchange part
   AGGAX   =    0.7500 GGA exchange part
   ALDAC   =    1.0000 LDA correlation
   AGGAC   =    1.0000 GGA correlation
   ENCUTFOCK=  -1.0 apply spherical cutoff to Coloumb kernel
   NBANDSGWLOW=     1    first orbital included in HF term
   NBLOCK_FOCK=    64    blocking factor in FOCK_ACC
 Linear response parameters
   LEPSILON=     F    determine dielectric tensor
   LRPA    =     F    only Hartree local field effects (RPA)
   LNABLA  =     F    use nabla operator in PAW spheres
   LVEL    =     F    velocity operator in full k-point grid
   LINTERFAST=   F  fast interpolation
   KINTER  =     0    interpolate to denser k-point grid
   CSHIFT  =0.1000    complex shift for real part using Kramers Kronig
   OMEGAMAX=  -1.0    maximum frequency
   DEG_THRESHOLD= 0.2000000E-02 threshold for treating states as degnerate
   RTIME   =   -0.100 relaxation time in fs
  (WPLASMAI=    0.000 imaginary part of plasma frequency in eV, 0.658/RTIME)
   DFIELD  = 0.0000000 0.0000000 0.0000000 field for delta impulse in time
 
 Orbital magnetization related:
   ORBITALMAG=     F  switch on orbital magnetization
   LCHIMAG   =     F  perturbation theory with respect to B field
   DQ        =  0.001000  dq finite difference perturbation B field
   LLRAUG    =     F  two centre corrections for induced B field



--------------------------------------------------------------------------------------------------------


 Static calculation
 charge density and potential will be updated during run
 spin polarized calculation
 Conjugate gradient for all bands (Freysoldt, et al. PRB 79, 241103 (2009))
 perform sub-space diagonalisation
    before iterative eigenvector-optimisation
 modified Broyden-mixing scheme, WC =      100.0
 initial mixing is a Kerker type mixing with AMIX =  0.4000 and BMIX =      1.0000
 Hartree-type preconditioning will be used
 using additional bands           34
 reciprocal scheme for non local part
 use partial core corrections
 no Harris-corrections to forces 
 use gradient corrections 
 use of overlap-Matrix (Vanderbilt PP)
 Gauss-broadening in eV      SIGMA  =   0.10


--------------------------------------------------------------------------------------------------------


  energy-cutoff  :      500.00
  volume of cell :     3176.89
      direct lattice vectors                 reciprocal lattice vectors
    12.807088869  0.013477492  0.000261836     0.078081937 -0.000170863 -0.000020296
     0.027385846 12.514833579  0.001129340    -0.000084088  0.079905361  0.000009046
     0.005147149 -0.002238440 19.821086094    -0.000001027 -0.000004550  0.050451322

  length of vectors
    12.807095963 12.514863594 19.821086889     0.078082127  0.079905406  0.050451322


 
 old parameters found on file WAVECAR:
  energy-cutoff  :      500.00
  volume of cell :     3176.89
      direct lattice vectors                 reciprocal lattice vectors
    12.758200000  0.000000000  0.000000000     0.078380963 -0.000088784 -0.000018759
     0.014144935 12.487591989  0.000000000     0.000000000  0.080079490  0.000015396
     0.004767951 -0.003833685 19.940399061     0.000000000  0.000000000  0.050149448

  length of vectors

 
 k-points in units of 2pi/SCALE and weight: KPOINTS created by Atomic Simulation Env
   0.00000000  0.00000000  0.00000000       1.000
 
 k-points in reciprocal lattice and weights: KPOINTS created by Atomic Simulation Env
   0.00000000  0.00000000  0.00000000       1.000
 
 position of ions in fractional coordinates (direct lattice) 
   0.22013194  0.99892163  0.50002617
   0.05447006  0.09999133  0.50001814
   0.10940444  0.99953778  0.50002245
   0.27542851  0.09810707  0.49999516
   0.22138219  0.19815190  0.49997065
   0.05495854  0.29988132  0.49999367
   0.10984016  0.19964222  0.50000114
   0.28023359  0.29627247  0.49988538
   0.22474251  0.39809817  0.49990607
   0.05607582  0.49935631  0.49999265
   0.11274868  0.39906835  0.49997263
   0.27911729  0.50035224  0.49985220
   0.22267286  0.60120480  0.49995083
   0.05548452  0.70015617  0.50001897
   0.11181273  0.59984341  0.49999857
   0.28159100  0.70017468  0.49999011
   0.22307990  0.79970294  0.50002878
   0.05492026  0.89933734  0.50002483
   0.11127927  0.79973399  0.50002410
   0.27644764  0.89979932  0.50004434
   0.55470479  0.99950262  0.50003081
   0.38665800  0.09704077  0.49998438
   0.44382001  0.99938806  0.50003307
   0.61004584  0.09798150  0.49997364
   0.55399742  0.19646518  0.49989296
   0.44037144  0.19491611  0.49989214
   0.55567791  0.80335601  0.50002288
   0.38778550  0.90130254  0.50006122
   0.44381976  0.80413330  0.50005358
   0.61116487  0.90091596  0.50005169
   0.88839823  0.00003566  0.50002345
   0.72149793  0.09988938  0.49998951
   0.77759302  0.00004972  0.50002355
   0.94327451  0.10025315  0.50001631
   0.88787270  0.20016887  0.49999536
   0.71833168  0.29943023  0.49990804
   0.77611185  0.19979985  0.49996650
   0.94335227  0.30014500  0.49999154
   0.88675408  0.40031465  0.49997450
   0.72155340  0.50234793  0.49989613
   0.77532498  0.40044551  0.49992606
   0.94418486  0.49984611  0.49999244
   0.88862684  0.60060859  0.49999722
   0.71837286  0.70128690  0.49996015
   0.77785528  0.60229083  0.49995626
   0.94447593  0.70049989  0.50001724
   0.88795855  0.80008730  0.50002588
   0.72236078  0.90064120  0.50003675
   0.77620385  0.80044021  0.50002192
   0.94345422  0.89958530  0.50002720
   0.60877047  0.29395744  0.49985771
   0.61446854  0.51720865  0.49971278
   0.39294795  0.70372860  0.50000151
   0.60677875  0.70183235  0.49991100
   0.38694736  0.28973327  0.49979898
   0.38196306  0.50694881  0.49970043
   0.49845321  0.40123607  0.49965002
   0.49664540  0.58736303  0.49940834
 
 position of ions in cartesian coordinates  (Angst):
   2.84917931 12.50318552  9.91224761
   0.70291486  1.25098975  9.91102982
   1.43109928 12.50940419  9.91214545
   3.53269774  1.23038659  9.91063008
   2.84326141  2.48170260  9.91024314
   0.71464497  3.75258630  9.91077070
   1.41477361  2.49885027  9.91081993
   3.59966311  3.71045859  9.90867904
   2.89177262  4.98404232  9.90918971
   0.73441679  6.24899771  9.91097607
   1.45748461  4.99467434  9.91048070
   3.59095536  6.26446789  9.90825173
   2.87082889  7.52585993  9.91030575
   0.73234323  8.76196647  9.91172432
   1.45099634  7.50732822  9.91122148
   3.62810938  8.76524556  9.91121139
   2.88147841 10.01003643  9.91207509
   0.73057150 11.25467804  9.91206520
   1.44963863 10.00891834  9.91195296
   3.56770507 11.26344526  9.91251040
   7.13409945 12.51496570  9.91242766
   4.95719444  1.21854104  9.91044419
   5.71398510 12.51203754  9.91244341
   7.81816804  1.23332489  9.91029091
   7.10304758  2.46507650  9.90878843
   5.64778718  2.44415876  9.90874060
   7.14119062 10.06023664  9.91204938
   4.99366012 11.28375825  9.91287597
   5.70863483 10.06845663  9.91262934
   7.85448897 11.28193100  9.91274511
  11.38036972  0.01130036  9.91124051
   9.24559716  1.25870372  9.91063693
   9.96127795  0.00998298  9.91121341
  12.08591959  1.26624524  9.91122651
  11.37911996  2.51592722  9.91090953
   9.21051089  3.75588181  9.90924647
   9.94777851  2.50980272  9.91030788
  12.09238960  3.76785949  9.91096135
  11.37027473  5.02070330  9.91072188
   9.25732875  6.29540650  9.90924040
   9.94319563  5.02083935  9.90973272
  12.10852172  6.26709694  9.91120501
  11.39974468  7.52737375  9.91139891
   9.22204381  8.78505155  9.91073322
   9.98112935  7.54693397  9.91055998
  12.11774466  8.77824940  9.91192315
  11.39664885 10.02380755  9.91219212
   9.27857733 11.27999104  9.91247777
   9.96540605 10.02671803  9.91208471
  12.11011159 11.26975647  9.91234505
   7.80720065  3.68591430  9.90821414
   7.88628951  6.47994312  9.90559500
   5.05436504  8.81122310  9.91147062
   7.79286281  8.79037392  9.90973046
   4.96617634  3.63006001  9.90698711
   4.90829009  6.34840931  9.90527783
   6.39729446  5.02700214  9.90418974
   6.37923776  7.35632623  9.89960910
 


--------------------------------------------------------------------------------------------------------


 k-point  1 :   0.0000 0.0000 0.0000  plane waves:   80669

 maximum and minimum number of plane-waves per node :      2530     2512

 maximum number of plane-waves:     80669
 maximum index in each direction: 
   IXMAX=   23   IYMAX=   22   IZMAX=   36
   IXMIN=  -23   IYMIN=  -22   IZMIN=  -36


 parallel 3D FFT for wavefunctions:
    minimum data exchange during FFTs selected (reduces bandwidth)
 parallel 3D FFT for charge:
    minimum data exchange during FFTs selected (reduces bandwidth)


 FFT grid for exact exchange (Hartree Fock) 
  NGX = 72; NGY = 70; NGZ =112

 
 Radii for the augmentation spheres in the non-local exchange
 for species   1 augmentation radius   0.874 (default was   0.699)
       energy cutoff for augmentation   2000.0
 for species   2 augmentation radius   0.886 (default was   0.709)
       energy cutoff for augmentation   2000.0
 for species   3 augmentation radius   1.190 (default was   0.952)
       energy cutoff for augmentation   2000.0
 for species   4 augmentation radius   1.263 (default was   1.010)
       energy cutoff for augmentation   2000.0

 real space projection operators:
  total allocation   :       2442.63 KBytes
  max/ min on nodes  :        137.30         40.99

 Maximum index for augmentation-charges in exchange          115
  SETUP_FOCK is finished

 total amount of memory used by VASP MPI-rank0   124905. kBytes
=======================================================================

   base      :      30000. kBytes
   nonl-proj :       3782. kBytes
   fftplans  :      14253. kBytes
   grid      :      36827. kBytes
   one-center:         62. kBytes
   HF        :         23. kBytes
   nonlr-proj:       1663. kBytes
   wavefun   :      38295. kBytes
 
     INWAV:  cpu time    1.8392: real time    1.8394
 Broyden mixing: mesh for mixing (old mesh)
   NGX = 47   NGY = 45   NGZ = 73
  (NGX  =192   NGY  =192   NGZ  =300)
  gives a total of 154395 points

 charge density for first step will be calculated from the start-wavefunctions


--------------------------------------------------------------------------------------------------------


 Maximum index for augmentation-charges          744 (set IRDMAX)


--------------------------------------------------------------------------------------------------------


 initial charge from wavefunction
 First call to EWALD:  gamma=   0.121
 Maximum number of real-space cells 3x 3x 2
 Maximum number of reciprocal cells 2x 2x 4

    FEWALD:  cpu time    0.0034: real time    0.0034


--------------------------------------- Iteration      1(   1)  ---------------------------------------


    POTLOK:  cpu time    1.3802: real time    1.3805
    SETDIJ:  cpu time    2.1221: real time    2.1277
    TRIAL :  cpu time   63.4174: real time   63.4440
    CORREC:  cpu time    0.0010: real time    0.0013
    CHARGE:  cpu time    0.1906: real time    0.1906
    --------------------------------------------
      LOOP:  cpu time   67.1185: real time   67.1573

 eigenvalue-minimisations  :     0
 total energy-change (2. order) :-0.5676753E+03  (-0.7920549E+01)
 number of electron     245.9999990 magnetization       0.0003311
 augmentation part       17.4725694 magnetization       0.6541759

 DIPCOR: dipole corrections for dipol
 direction  3 min pos     1,
 dipolmoment           0.000001     -0.000001      0.004625 electrons x Angstroem
 Tr[quadrupol]     -6870.176759

 energy correction for charged system         0.000000 eV
 dipol+quadrupol energy correction            0.000001 eV
 added-field ion interaction          0.000000 eV  (added to PSCEN)


 Free energy of the ion-electron system (eV)
  ---------------------------------------------------
  alpha Z        PSCENC =       106.11351602
  Ewald energy   TEWEN  =     38905.08725929
  -Hartree energ DENC   =    -48115.92300971
  -exchange      EXHF   =       557.92834453
  -V(xc)+E(xc)   XCENC  =       644.52185459
  PAW double counting   =     28383.74164622   -28587.13245534
  entropy T*S    EENTRO =        -0.00009161
  eigenvalues    EBANDS =     -3172.72535525
  atomic energy  EATOM  =     10710.71333969
  ---------------------------------------------------
  free energy    TOTEN  =      -567.67533275 eV

  energy without entropy =     -567.67524114  energy(sigma->0) =     -567.67528694
  exchange ACFDT corr.  =        -0.00101691  see jH, gK, PRB 81, 115126


--------------------------------------------------------------------------------------------------------




--------------------------------------- Iteration      1(   2)  ---------------------------------------


    POTLOK:  cpu time    1.4061: real time    1.4061
    SETDIJ:  cpu time    2.1278: real time    2.1278
    TRIAL :  cpu time   63.4478: real time   63.4507
    CORREC:  cpu time    0.0009: real time    0.0012
    CHARGE:  cpu time    0.1898: real time    0.1898
    --------------------------------------------
      LOOP:  cpu time   67.1762: real time   67.1805

 eigenvalue-minimisations  :     0
 total energy-change (2. order) :-0.7165305E+01  (-0.8844218E+01)
 number of electron     245.9999990 magnetization       0.0000229
 augmentation part       17.4655826 magnetization       0.6708666

 DIPCOR: dipole corrections for dipol
 direction  3 min pos     1,
 dipolmoment           0.000001     -0.000000      0.004112 electrons x Angstroem
 Tr[quadrupol]     -6869.954788

 energy correction for charged system         0.000000 eV
 dipol+quadrupol energy correction            0.000000 eV
 added-field ion interaction          0.000000 eV  (added to PSCEN)


 Free energy of the ion-electron system (eV)
  ---------------------------------------------------
  alpha Z        PSCENC =       106.11351589
  Ewald energy   TEWEN  =     38905.08725929
  -Hartree energ DENC   =    -48102.21341646
  -exchange      EXHF   =       557.71547907
  -V(xc)+E(xc)   XCENC  =       644.16232473
  PAW double counting   =     28099.30647143   -28304.12415288
  entropy T*S    EENTRO =        -0.00000743
  eigenvalues    EBANDS =     -3191.60136645
  atomic energy  EATOM  =     10710.71333969
  ---------------------------------------------------
  free energy    TOTEN  =      -574.84063729 eV

  energy without entropy =     -574.84062987  energy(sigma->0) =     -574.84063358
  exchange ACFDT corr.  =        -0.00015549  see jH, gK, PRB 81, 115126


--------------------------------------------------------------------------------------------------------




--------------------------------------- Iteration      1(   3)  ---------------------------------------


    POTLOK:  cpu time    1.4076: real time    1.4077
    SETDIJ:  cpu time    2.1639: real time    2.1639
    TRIAL :  cpu time   63.5101: real time   63.5121
    CORREC:  cpu time    0.0009: real time    0.0011
    CHARGE:  cpu time    0.1902: real time    0.1902
    --------------------------------------------
      LOOP:  cpu time   67.2749: real time   67.2771

 eigenvalue-minimisations  :     0
 total energy-change (2. order) :-0.7570425E+01  (-0.6477778E+01)
 number of electron     245.9999990 magnetization       0.0000008
 augmentation part       17.4486665 magnetization       0.6857970

 DIPCOR: dipole corrections for dipol
 direction  3 min pos     1,
 dipolmoment           0.000001     -0.000000      0.003896 electrons x Angstroem
 Tr[quadrupol]     -6869.718239

 energy correction for charged system         0.000000 eV
 dipol+quadrupol energy correction            0.000000 eV
 added-field ion interaction          0.000000 eV  (added to PSCEN)


 Free energy of the ion-electron system (eV)
  ---------------------------------------------------
  alpha Z        PSCENC =       106.11351584
  Ewald energy   TEWEN  =     38905.08725929
  -Hartree energ DENC   =    -48085.32117566
  -exchange      EXHF   =       557.47561977
  -V(xc)+E(xc)   XCENC  =       643.71884613
  PAW double counting   =     27763.60176317   -27968.84398329
  entropy T*S    EENTRO =        -0.00000027
  eigenvalues    EBANDS =     -3214.95624006
  atomic energy  EATOM  =     10710.71333969
  ---------------------------------------------------
  free energy    TOTEN  =      -582.41106255 eV

  energy without entropy =     -582.41106228  energy(sigma->0) =     -582.41106241
  exchange ACFDT corr.  =        -0.00000972  see jH, gK, PRB 81, 115126


--------------------------------------------------------------------------------------------------------




--------------------------------------- Iteration      1(   4)  ---------------------------------------


    POTLOK:  cpu time    1.4130: real time    1.4130
    SETDIJ:  cpu time    2.1184: real time    2.1184
    TRIAL :  cpu time   63.5135: real time   63.5268
    CORREC:  cpu time    0.0007: real time    0.0009
    CHARGE:  cpu time    0.1899: real time    0.1899
    --------------------------------------------
      LOOP:  cpu time   67.2366: real time   67.2501

 eigenvalue-minimisations  :     0
 total energy-change (2. order) :-0.5379025E+01  (-0.3980414E+01)
 number of electron     245.9999990 magnetization       0.0000001
 augmentation part       17.4427612 magnetization       0.6983424

 DIPCOR: dipole corrections for dipol
 direction  3 min pos     1,
 dipolmoment           0.000001     -0.000000      0.003974 electrons x Angstroem
 Tr[quadrupol]     -6869.630628

 energy correction for charged system         0.000000 eV
 dipol+quadrupol energy correction            0.000000 eV
 added-field ion interaction          0.000000 eV  (added to PSCEN)


 Free energy of the ion-electron system (eV)
  ---------------------------------------------------
  alpha Z        PSCENC =       106.11351586
  Ewald energy   TEWEN  =     38905.08725929
  -Hartree energ DENC   =    -48076.38930265
  -exchange      EXHF   =       557.43711480
  -V(xc)+E(xc)   XCENC  =       643.47166034
  PAW double counting   =     27502.43445504   -27706.81168188
  entropy T*S    EENTRO =        -0.00000001
  eigenvalues    EBANDS =     -3229.84644818
  atomic energy  EATOM  =     10710.71333969
  ---------------------------------------------------
  free energy    TOTEN  =      -587.79008795 eV

  energy without entropy =     -587.79008794  energy(sigma->0) =     -587.79008794
  exchange ACFDT corr.  =        -0.00000028  see jH, gK, PRB 81, 115126


--------------------------------------------------------------------------------------------------------




--------------------------------------- Iteration      1(   5)  ---------------------------------------


    POTLOK:  cpu time    1.4078: real time    1.4078
    SETDIJ:  cpu time    2.1637: real time    2.1637
    TRIAL :  cpu time   63.5214: real time   63.5365
    CORREC:  cpu time    0.0006: real time    0.0009
    CHARGE:  cpu time    0.1897: real time    0.1898
    --------------------------------------------
      LOOP:  cpu time   67.2851: real time   67.3006

 eigenvalue-minimisations  :     0
 total energy-change (2. order) :-0.3269507E+01  (-0.2305415E+01)
 number of electron     245.9999990 magnetization       0.0000001
 augmentation part       17.4522294 magnetization       0.7093564

 DIPCOR: dipole corrections for dipol
 direction  3 min pos     1,
 dipolmoment           0.000001     -0.000000      0.004098 electrons x Angstroem
 Tr[quadrupol]     -6869.692054

 energy correction for charged system         0.000000 eV
 dipol+quadrupol energy correction            0.000000 eV
 added-field ion interaction          0.000000 eV  (added to PSCEN)


 Free energy of the ion-electron system (eV)
  ---------------------------------------------------
  alpha Z        PSCENC =       106.11351589
  Ewald energy   TEWEN  =     38905.08725929
  -Hartree energ DENC   =    -48078.06572782
  -exchange      EXHF   =       557.64316832
  -V(xc)+E(xc)   XCENC  =       643.50293296
  PAW double counting   =     27348.10396697   -27551.53290165
  entropy T*S    EENTRO =        -0.00000000
  eigenvalues    EBANDS =     -3232.62514896
  atomic energy  EATOM  =     10710.71333969
  ---------------------------------------------------
  free energy    TOTEN  =      -591.05959530 eV

  energy without entropy =     -591.05959530  energy(sigma->0) =     -591.05959530
  exchange ACFDT corr.  =        -0.00000000  see jH, gK, PRB 81, 115126


--------------------------------------------------------------------------------------------------------




--------------------------------------- Iteration      1(   6)  ---------------------------------------


    POTLOK:  cpu time    1.4102: real time    1.4104
    SETDIJ:  cpu time    2.1584: real time    2.1585
    TRIAL :  cpu time   63.3043: real time   63.3110
    CORREC:  cpu time    0.0005: real time    0.0005
    CHARGE:  cpu time    0.1893: real time    0.1895
    --------------------------------------------
      LOOP:  cpu time   67.0644: real time   67.0717

 eigenvalue-minimisations  :     0
 total energy-change (2. order) :-0.1901547E+01  (-0.1341749E+01)
 number of electron     245.9999990 magnetization       0.0000001
 augmentation part       17.4677647 magnetization       0.7197754

 DIPCOR: dipole corrections for dipol
 direction  3 min pos     1,
 dipolmoment           0.000001     -0.000000      0.004143 electrons x Angstroem
 Tr[quadrupol]     -6869.801517

 energy correction for charged system         0.000000 eV
 dipol+quadrupol energy correction            0.000000 eV
 added-field ion interaction          0.000000 eV  (added to PSCEN)


 Free energy of the ion-electron system (eV)
  ---------------------------------------------------
  alpha Z        PSCENC =       106.11351590
  Ewald energy   TEWEN  =     38905.08725929
  -Hartree energ DENC   =    -48085.18182798
  -exchange      EXHF   =       557.95783688
  -V(xc)+E(xc)   XCENC  =       643.69596918
  PAW double counting   =     27279.67787899   -27482.93946246
  entropy T*S    EENTRO =        -0.00000000
  eigenvalues    EBANDS =     -3228.08565203
  atomic energy  EATOM  =     10710.71333969
  ---------------------------------------------------
  free energy    TOTEN  =      -592.96114254 eV

  energy without entropy =     -592.96114254  energy(sigma->0) =     -592.96114254
  exchange ACFDT corr.  =        -0.00000000  see jH, gK, PRB 81, 115126


--------------------------------------------------------------------------------------------------------




--------------------------------------- Iteration      1(   7)  ---------------------------------------


    POTLOK:  cpu time    1.4234: real time    1.4233
    SETDIJ:  cpu time    2.1630: real time    2.1630
    TRIAL :  cpu time   63.0284: real time   63.0337
    CORREC:  cpu time    0.0005: real time    0.0008
    CHARGE:  cpu time    0.1890: real time    0.1891
    --------------------------------------------
      LOOP:  cpu time   66.8067: real time   66.8124

 eigenvalue-minimisations  :     0
 total energy-change (2. order) :-0.1116963E+01  (-0.7980729E+00)
 number of electron     245.9999990 magnetization       0.0000001
 augmentation part       17.4809579 magnetization       0.7303424

 DIPCOR: dipole corrections for dipol
 direction  3 min pos     1,
 dipolmoment           0.000001     -0.000000      0.004099 electrons x Angstroem
 Tr[quadrupol]     -6869.880213

 energy correction for charged system         0.000000 eV
 dipol+quadrupol energy correction            0.000000 eV
 added-field ion interaction          0.000000 eV  (added to PSCEN)


 Free energy of the ion-electron system (eV)
  ---------------------------------------------------
  alpha Z        PSCENC =       106.11351589
  Ewald energy   TEWEN  =     38905.08725929
  -Hartree energ DENC   =    -48091.69281130
  -exchange      EXHF   =       558.22931610
  -V(xc)+E(xc)   XCENC  =       643.89204202
  PAW double counting   =     27261.28141525   -27464.88763613
  entropy T*S    EENTRO =        -0.00000000
  eigenvalues    EBANDS =     -3222.81454599
  atomic energy  EATOM  =     10710.71333969
  ---------------------------------------------------
  free energy    TOTEN  =      -594.07810518 eV

  energy without entropy =     -594.07810518  energy(sigma->0) =     -594.07810518
  exchange ACFDT corr.  =        -0.00000000  see jH, gK, PRB 81, 115126


--------------------------------------------------------------------------------------------------------




--------------------------------------- Iteration      1(   8)  ---------------------------------------


    POTLOK:  cpu time    1.4036: real time    1.4038
    SETDIJ:  cpu time    2.1244: real time    2.1245
    TRIAL :  cpu time   62.9761: real time   62.9828
    CORREC:  cpu time    0.0005: real time    0.0008
    CHARGE:  cpu time    0.1886: real time    0.1886
    --------------------------------------------
      LOOP:  cpu time   66.6951: real time   66.7025

 eigenvalue-minimisations  :     0
 total energy-change (2. order) :-0.6702487E+00  (-0.4833525E+00)
 number of electron     245.9999990 magnetization       0.0000001
 augmentation part       17.4881541 magnetization       0.7411917

 DIPCOR: dipole corrections for dipol
 direction  3 min pos     1,
 dipolmoment           0.000001     -0.000000      0.004024 electrons x Angstroem
 Tr[quadrupol]     -6869.907314

 energy correction for charged system         0.000000 eV
 dipol+quadrupol energy correction            0.000000 eV
 added-field ion interaction          0.000000 eV  (added to PSCEN)


 Free energy of the ion-electron system (eV)
  ---------------------------------------------------
  alpha Z        PSCENC =       106.11351587
  Ewald energy   TEWEN  =     38905.08725929
  -Hartree energ DENC   =    -48094.84874103
  -exchange      EXHF   =       558.39109884
  -V(xc)+E(xc)   XCENC  =       644.00800960
  PAW double counting   =     27264.76044130   -27468.68049155
  entropy T*S    EENTRO =        -0.00000000
  eigenvalues    EBANDS =     -3220.29278586
  atomic energy  EATOM  =     10710.71333969
  ---------------------------------------------------
  free energy    TOTEN  =      -594.74835384 eV

  energy without entropy =     -594.74835384  energy(sigma->0) =     -594.74835384
  exchange ACFDT corr.  =        -0.00000000  see jH, gK, PRB 81, 115126


--------------------------------------------------------------------------------------------------------




--------------------------------------- Iteration      1(   9)  ---------------------------------------


    POTLOK:  cpu time    1.4071: real time    1.4071
    SETDIJ:  cpu time    2.1575: real time    2.1575
    TRIAL :  cpu time   63.0582: real time   63.0686
    CORREC:  cpu time    0.0005: real time    0.0005
    CHARGE:  cpu time    0.1881: real time    0.1883
    --------------------------------------------
      LOOP:  cpu time   66.8144: real time   66.8250

 eigenvalue-minimisations  :     0
 total energy-change (2. order) :-0.4084137E+00  (-0.2943251E+00)
 number of electron     245.9999990 magnetization       0.0000001
 augmentation part       17.4908416 magnetization       0.7521167

 DIPCOR: dipole corrections for dipol
 direction  3 min pos     1,
 dipolmoment           0.000001     -0.000000      0.004008 electrons x Angstroem
 Tr[quadrupol]     -6869.899582

 energy correction for charged system         0.000000 eV
 dipol+quadrupol energy correction            0.000000 eV
 added-field ion interaction          0.000000 eV  (added to PSCEN)


 Free energy of the ion-electron system (eV)
  ---------------------------------------------------
  alpha Z        PSCENC =       106.11351587
  Ewald energy   TEWEN  =     38905.08725929
  -Hartree energ DENC   =    -48094.98398329
  -exchange      EXHF   =       558.45585271
  -V(xc)+E(xc)   XCENC  =       644.04246331
  PAW double counting   =     27275.44370872   -27479.39953761
  entropy T*S    EENTRO =        -0.00000000
  eigenvalues    EBANDS =     -3220.62938621
  atomic energy  EATOM  =     10710.71333969
  ---------------------------------------------------
  free energy    TOTEN  =      -595.15676752 eV

  energy without entropy =     -595.15676752  energy(sigma->0) =     -595.15676752
  exchange ACFDT corr.  =        -0.00000000  see jH, gK, PRB 81, 115126


--------------------------------------------------------------------------------------------------------




--------------------------------------- Iteration      1(  10)  ---------------------------------------


    POTLOK:  cpu time    1.4054: real time    1.4054
    SETDIJ:  cpu time    2.1312: real time    2.1313
    TRIAL :  cpu time   62.9584: real time   62.9607
    CORREC:  cpu time    0.0005: real time    0.0005
    CHARGE:  cpu time    0.1877: real time    0.1880
    --------------------------------------------
      LOOP:  cpu time   66.6855: real time   66.6880

 eigenvalue-minimisations  :     0
 total energy-change (2. order) :-0.2496341E+00  (-0.1785671E+00)
 number of electron     245.9999990 magnetization       0.0000001
 augmentation part       17.4931620 magnetization       0.7629587

 DIPCOR: dipole corrections for dipol
 direction  3 min pos     1,
 dipolmoment           0.000001     -0.000000      0.004028 electrons x Angstroem
 Tr[quadrupol]     -6869.883485

 energy correction for charged system         0.000000 eV
 dipol+quadrupol energy correction            0.000000 eV
 added-field ion interaction          0.000000 eV  (added to PSCEN)


 Free energy of the ion-electron system (eV)
  ---------------------------------------------------
  alpha Z        PSCENC =       106.11351587
  Ewald energy   TEWEN  =     38905.08725929
  -Hartree energ DENC   =    -48093.92130053
  -exchange      EXHF   =       558.47285045
  -V(xc)+E(xc)   XCENC  =       644.03750742
  PAW double counting   =     27287.60206044   -27491.43506265
  entropy T*S    EENTRO =        -0.00000000
  eigenvalues    EBANDS =     -3222.07657157
  atomic energy  EATOM  =     10710.71333969
  ---------------------------------------------------
  free energy    TOTEN  =      -595.40640159 eV

  energy without entropy =     -595.40640159  energy(sigma->0) =     -595.40640159
  exchange ACFDT corr.  =        -0.00000000  see jH, gK, PRB 81, 115126


--------------------------------------------------------------------------------------------------------




--------------------------------------- Iteration      1(  11)  ---------------------------------------


    POTLOK:  cpu time    1.4016: real time    1.4018
    SETDIJ:  cpu time    2.1632: real time    2.1631
    TRIAL :  cpu time   63.0052: real time   63.0074
    CORREC:  cpu time    0.0005: real time    0.0005
    CHARGE:  cpu time    0.1877: real time    0.1880
    --------------------------------------------
      LOOP:  cpu time   66.7601: real time   66.7627

 eigenvalue-minimisations  :     0
 total energy-change (2. order) :-0.1524349E+00  (-0.1086892E+00)
 number of electron     245.9999990 magnetization       0.0000001
 augmentation part       17.4963120 magnetization       0.7736136

 DIPCOR: dipole corrections for dipol
 direction  3 min pos     1,
 dipolmoment           0.000001     -0.000000      0.004056 electrons x Angstroem
 Tr[quadrupol]     -6869.875385

 energy correction for charged system         0.000000 eV
 dipol+quadrupol energy correction            0.000000 eV
 added-field ion interaction          0.000000 eV  (added to PSCEN)


 Free energy of the ion-electron system (eV)
  ---------------------------------------------------
  alpha Z        PSCENC =       106.11351588
  Ewald energy   TEWEN  =     38905.08725929
  -Hartree energ DENC   =    -48093.26192911
  -exchange      EXHF   =       558.48515034
  -V(xc)+E(xc)   XCENC  =       644.03435641
  PAW double counting   =     27299.15031646   -27502.94712129
  entropy T*S    EENTRO =        -0.00000000
  eigenvalues    EBANDS =     -3222.93372414
  atomic energy  EATOM  =     10710.71333969
  ---------------------------------------------------
  free energy    TOTEN  =      -595.55883648 eV

  energy without entropy =     -595.55883648  energy(sigma->0) =     -595.55883648
  exchange ACFDT corr.  =        -0.00000000  see jH, gK, PRB 81, 115126


--------------------------------------------------------------------------------------------------------




--------------------------------------- Iteration      1(  12)  ---------------------------------------


    POTLOK:  cpu time    1.3978: real time    1.3978
    SETDIJ:  cpu time    2.1268: real time    2.1268
    TRIAL :  cpu time   63.0654: real time   63.0675
    CORREC:  cpu time    0.0005: real time    0.0005
    CHARGE:  cpu time    0.1882: real time    0.1885
    --------------------------------------------
      LOOP:  cpu time   66.7814: real time   66.7837

 eigenvalue-minimisations  :     0
 total energy-change (2. order) :-0.9367176E-01  (-0.6725707E-01)
 number of electron     245.9999990 magnetization       0.0000001
 augmentation part       17.4989396 magnetization       0.7839693

 DIPCOR: dipole corrections for dipol
 direction  3 min pos     1,
 dipolmoment           0.000001     -0.000000      0.004063 electrons x Angstroem
 Tr[quadrupol]     -6869.876298

 energy correction for charged system         0.000000 eV
 dipol+quadrupol energy correction            0.000000 eV
 added-field ion interaction          0.000000 eV  (added to PSCEN)


 Free energy of the ion-electron system (eV)
  ---------------------------------------------------
  alpha Z        PSCENC =       106.11351588
  Ewald energy   TEWEN  =     38905.08725929
  -Hartree energ DENC   =    -48093.28779519
  -exchange      EXHF   =       558.50562885
  -V(xc)+E(xc)   XCENC  =       644.04329092
  PAW double counting   =     27308.87082672   -27512.74063264
  entropy T*S    EENTRO =        -0.00000000
  eigenvalues    EBANDS =     -3222.95794175
  atomic energy  EATOM  =     10710.71333969
  ---------------------------------------------------
  free energy    TOTEN  =      -595.65250823 eV

  energy without entropy =     -595.65250823  energy(sigma->0) =     -595.65250823
  exchange ACFDT corr.  =        -0.00000000  see jH, gK, PRB 81, 115126


--------------------------------------------------------------------------------------------------------




--------------------------------------- Iteration      1(  13)  ---------------------------------------


    POTLOK:  cpu time    1.3966: real time    1.3967
    SETDIJ:  cpu time    2.1194: real time    2.1194
    TRIAL :  cpu time   63.0915: real time   63.0975
    CORREC:  cpu time    0.0005: real time    0.0005
    CHARGE:  cpu time    0.1883: real time    0.1885
    --------------------------------------------
      LOOP:  cpu time   66.7984: real time   66.8046

 eigenvalue-minimisations  :     0
 total energy-change (2. order) :-0.5873001E-01  (-0.4316145E-01)
 number of electron     245.9999990 magnetization       0.0000001
 augmentation part       17.5001233 magnetization       0.7939900

 DIPCOR: dipole corrections for dipol
 direction  3 min pos     1,
 dipolmoment           0.000001     -0.000000      0.004055 electrons x Angstroem
 Tr[quadrupol]     -6869.880625

 energy correction for charged system         0.000000 eV
 dipol+quadrupol energy correction            0.000000 eV
 added-field ion interaction          0.000000 eV  (added to PSCEN)


 Free energy of the ion-electron system (eV)
  ---------------------------------------------------
  alpha Z        PSCENC =       106.11351588
  Ewald energy   TEWEN  =     38905.08725929
  -Hartree energ DENC   =    -48093.54807137
  -exchange      EXHF   =       558.52937573
  -V(xc)+E(xc)   XCENC  =       644.05619548
  PAW double counting   =     27316.28161377   -27520.22235017
  entropy T*S    EENTRO =        -0.00000000
  eigenvalues    EBANDS =     -3222.72211655
  atomic energy  EATOM  =     10710.71333969
  ---------------------------------------------------
  free energy    TOTEN  =      -595.71123825 eV

  energy without entropy =     -595.71123825  energy(sigma->0) =     -595.71123825
  exchange ACFDT corr.  =        -0.00000000  see jH, gK, PRB 81, 115126


--------------------------------------------------------------------------------------------------------




--------------------------------------- Iteration      1(  14)  ---------------------------------------


    POTLOK:  cpu time    1.3914: real time    1.3914
    SETDIJ:  cpu time    2.1631: real time    2.1631
    TRIAL :  cpu time   63.0783: real time   63.0842
    CORREC:  cpu time    0.0005: real time    0.0008
    CHARGE:  cpu time    0.1880: real time    0.1880
    --------------------------------------------
      LOOP:  cpu time   66.8235: real time   66.8296

 eigenvalue-minimisations  :     0
 total energy-change (2. order) :-0.3829288E-01  (-0.2897487E-01)
 number of electron     245.9999990 magnetization       0.0000001
 augmentation part       17.5003479 magnetization       0.8037635

 DIPCOR: dipole corrections for dipol
 direction  3 min pos     1,
 dipolmoment           0.000001     -0.000000      0.004039 electrons x Angstroem
 Tr[quadrupol]     -6869.884126

 energy correction for charged system         0.000000 eV
 dipol+quadrupol energy correction            0.000000 eV
 added-field ion interaction          0.000000 eV  (added to PSCEN)


 Free energy of the ion-electron system (eV)
  ---------------------------------------------------
  alpha Z        PSCENC =       106.11351587
  Ewald energy   TEWEN  =     38905.08725929
  -Hartree energ DENC   =    -48093.70421648
  -exchange      EXHF   =       558.55130995
  -V(xc)+E(xc)   XCENC  =       644.06652068
  PAW double counting   =     27321.44849481   -27525.40155255
  entropy T*S    EENTRO =        -0.00000000
  eigenvalues    EBANDS =     -3222.62420240
  atomic energy  EATOM  =     10710.71333969
  ---------------------------------------------------
  free energy    TOTEN  =      -595.74953112 eV

  energy without entropy =     -595.74953112  energy(sigma->0) =     -595.74953112
  exchange ACFDT corr.  =        -0.00000000  see jH, gK, PRB 81, 115126


--------------------------------------------------------------------------------------------------------




--------------------------------------- Iteration      1(  15)  ---------------------------------------


    POTLOK:  cpu time    1.3864: real time    1.3865
    SETDIJ:  cpu time    2.1649: real time    2.1648
    TRIAL :  cpu time   63.0466: real time   63.0486
    CORREC:  cpu time    0.0005: real time    0.0008
    CHARGE:  cpu time    0.1885: real time    0.1885
    --------------------------------------------
      LOOP:  cpu time   66.7891: real time   66.7914

 eigenvalue-minimisations  :     0
 total energy-change (2. order) :-0.2610978E-01  (-0.2030929E-01)
 number of electron     245.9999990 magnetization       0.0000001
 augmentation part       17.5005414 magnetization       0.8133911

 DIPCOR: dipole corrections for dipol
 direction  3 min pos     1,
 dipolmoment           0.000001     -0.000000      0.004021 electrons x Angstroem
 Tr[quadrupol]     -6869.885706

 energy correction for charged system         0.000000 eV
 dipol+quadrupol energy correction            0.000000 eV
 added-field ion interaction          0.000000 eV  (added to PSCEN)


 Free energy of the ion-electron system (eV)
  ---------------------------------------------------
  alpha Z        PSCENC =       106.11351587
  Ewald energy   TEWEN  =     38905.08725929
  -Hartree energ DENC   =    -48093.73095626
  -exchange      EXHF   =       558.57079486
  -V(xc)+E(xc)   XCENC  =       644.07421520
  PAW double counting   =     27324.62969096   -27528.56343568
  entropy T*S    EENTRO =        -0.00000000
  eigenvalues    EBANDS =     -3222.67006485
  atomic energy  EATOM  =     10710.71333969
  ---------------------------------------------------
  free energy    TOTEN  =      -595.77564091 eV

  energy without entropy =     -595.77564091  energy(sigma->0) =     -595.77564091
  exchange ACFDT corr.  =        -0.00000000  see jH, gK, PRB 81, 115126


--------------------------------------------------------------------------------------------------------




--------------------------------------- Iteration      1(  16)  ---------------------------------------


    POTLOK:  cpu time    1.3856: real time    1.3856
    SETDIJ:  cpu time    2.1243: real time    2.1243
    TRIAL :  cpu time   62.9983: real time   63.0002
    CORREC:  cpu time    0.0005: real time    0.0008
    CHARGE:  cpu time    0.1886: real time    0.1886
    --------------------------------------------
      LOOP:  cpu time   66.6987: real time   66.7009

 eigenvalue-minimisations  :     0
 total energy-change (2. order) :-0.1855540E-01  (-0.1477894E-01)
 number of electron     245.9999990 magnetization       0.0000001
 augmentation part       17.5008472 magnetization       0.8228476

 DIPCOR: dipole corrections for dipol
 direction  3 min pos     1,
 dipolmoment           0.000001     -0.000000      0.004027 electrons x Angstroem
 Tr[quadrupol]     -6869.886020

 energy correction for charged system         0.000000 eV
 dipol+quadrupol energy correction            0.000000 eV
 added-field ion interaction          0.000000 eV  (added to PSCEN)


 Free energy of the ion-electron system (eV)
  ---------------------------------------------------
  alpha Z        PSCENC =       106.11351587
  Ewald energy   TEWEN  =     38905.08725929
  -Hartree energ DENC   =    -48093.73669973
  -exchange      EXHF   =       558.58938527
  -V(xc)+E(xc)   XCENC  =       644.08199454
  PAW double counting   =     27326.30437923   -27530.23563146
  entropy T*S    EENTRO =        -0.00000000
  eigenvalues    EBANDS =     -3222.71173902
  atomic energy  EATOM  =     10710.71333969
  ---------------------------------------------------
  free energy    TOTEN  =      -595.79419631 eV

  energy without entropy =     -595.79419631  energy(sigma->0) =     -595.79419631
  exchange ACFDT corr.  =        -0.00000000  see jH, gK, PRB 81, 115126


--------------------------------------------------------------------------------------------------------




--------------------------------------- Iteration      1(  17)  ---------------------------------------


    POTLOK:  cpu time    1.3784: real time    1.3785
    SETDIJ:  cpu time    2.1267: real time    2.1266
    TRIAL :  cpu time   63.0764: real time   63.0837
    CORREC:  cpu time    0.0005: real time    0.0005
    CHARGE:  cpu time    0.1886: real time    0.1889
    --------------------------------------------
      LOOP:  cpu time   66.7721: real time   66.7798

 eigenvalue-minimisations  :     0
 total energy-change (2. order) :-0.1365681E-01  (-0.1110607E-01)
 number of electron     245.9999990 magnetization       0.0000001
 augmentation part       17.5010766 magnetization       0.8320830

 DIPCOR: dipole corrections for dipol
 direction  3 min pos     1,
 dipolmoment           0.000001     -0.000000      0.004036 electrons x Angstroem
 Tr[quadrupol]     -6869.885765

 energy correction for charged system         0.000000 eV
 dipol+quadrupol energy correction            0.000000 eV
 added-field ion interaction          0.000000 eV  (added to PSCEN)


 Free energy of the ion-electron system (eV)
  ---------------------------------------------------
  alpha Z        PSCENC =       106.11351587
  Ewald energy   TEWEN  =     38905.08725929
  -Hartree energ DENC   =    -48093.74801562
  -exchange      EXHF   =       558.60734847
  -V(xc)+E(xc)   XCENC  =       644.09032800
  PAW double counting   =     27327.00231536   -27530.95036668
  entropy T*S    EENTRO =        -0.00000000
  eigenvalues    EBANDS =     -3222.72357750
  atomic energy  EATOM  =     10710.71333969
  ---------------------------------------------------
  free energy    TOTEN  =      -595.80785312 eV

  energy without entropy =     -595.80785312  energy(sigma->0) =     -595.80785312
  exchange ACFDT corr.  =        -0.00000000  see jH, gK, PRB 81, 115126


--------------------------------------------------------------------------------------------------------




--------------------------------------- Iteration      1(  18)  ---------------------------------------


    POTLOK:  cpu time    1.3744: real time    1.3745
    SETDIJ:  cpu time    2.1158: real time    2.1158
    TRIAL :  cpu time   63.0636: real time   63.0726
    CORREC:  cpu time    0.0005: real time    0.0005
    CHARGE:  cpu time    0.1884: real time    0.1886
    --------------------------------------------
      LOOP:  cpu time   66.7453: real time   66.7545

 eigenvalue-minimisations  :     0
 total energy-change (2. order) :-0.1036133E-01  (-0.8599949E-02)
 number of electron     245.9999990 magnetization       0.0000001
 augmentation part       17.5011564 magnetization       0.8410579

 DIPCOR: dipole corrections for dipol
 direction  3 min pos     1,
 dipolmoment           0.000001     -0.000000      0.004037 electrons x Angstroem
 Tr[quadrupol]     -6869.885326

 energy correction for charged system         0.000000 eV
 dipol+quadrupol energy correction            0.000000 eV
 added-field ion interaction          0.000000 eV  (added to PSCEN)


 Free energy of the ion-electron system (eV)
  ---------------------------------------------------
  alpha Z        PSCENC =       106.11351587
  Ewald energy   TEWEN  =     38905.08725929
  -Hartree energ DENC   =    -48093.74430959
  -exchange      EXHF   =       558.62417507
  -V(xc)+E(xc)   XCENC  =       644.09841337
  PAW double counting   =     27327.15726892   -27531.12266087
  entropy T*S    EENTRO =        -0.00000000
  eigenvalues    EBANDS =     -3222.74521622
  atomic energy  EATOM  =     10710.71333969
  ---------------------------------------------------
  free energy    TOTEN  =      -595.81821446 eV

  energy without entropy =     -595.81821446  energy(sigma->0) =     -595.81821446
  exchange ACFDT corr.  =        -0.00000000  see jH, gK, PRB 81, 115126


[...]
  augment    41.38210    44.71155    46.57368     0.46559     0.08833     0.01222
  Kinetic  3506.99847  3547.19652  4010.90906     3.82385     0.10654     0.03563
  Fock     -370.11365  -374.28360  -350.56280    -0.49509    -0.03594    -0.01031
  -------------------------------------------------------------------------------------
  Total     -45.77326   -40.29388    -0.32502    -0.09989    -0.00148    -0.00120
  in kB     -23.08450   -20.32112    -0.16391    -0.05038    -0.00075    -0.00061
  external pressure =      -14.52 kB  Pullay stress =        0.00 kB


 VOLUME and BASIS-vectors are now :
 -----------------------------------------------------------------------------
  energy-cutoff  :      500.00
  volume of cell :     3176.89
      direct lattice vectors                 reciprocal lattice vectors
    12.807088869  0.013477492  0.000261836     0.078081937 -0.000170863 -0.000020296
     0.027385846 12.514833579  0.001129340    -0.000084088  0.079905361  0.000009046
     0.005147149 -0.002238440 19.821086094    -0.000001027 -0.000004550  0.050451322

  length of vectors
    12.807095963 12.514863594 19.821086889     0.078082127  0.079905406  0.050451322


 FORCES acting on ions:
    Electron-Ion                     Ewald-Force                    Non-Local-Force
 -----------------------------------------------------------------------------------------------
   0.499E+01 0.512E+01 -.237E+00   -.531E+01 -.576E+01 0.237E+00   0.233E+00 0.584E+00 -.549E-03
   0.180E+01 0.196E+01 -.200E+00   -.190E+01 -.182E+01 0.201E+00   0.153E+00 -.369E-01 -.684E-03
   0.103E+02 0.215E+01 -.161E+00   -.104E+02 -.222E+01 0.161E+00   0.156E+00 0.684E-01 0.625E-03
   0.155E+02 0.130E+02 -.193E+00   -.158E+02 -.133E+02 0.192E+00   0.229E+00 0.306E+00 0.567E-03
   0.215E+02 0.500E+01 -.177E+00   -.223E+02 -.517E+01 0.179E+00   0.714E+00 0.135E+00 -.193E-02
   0.487E+01 -.361E+01 -.201E+00   -.520E+01 0.367E+01 0.200E+00   0.304E+00 -.308E-01 0.992E-04
   0.116E+02 0.825E+00 -.218E+00   -.122E+02 -.728E+00 0.219E+00   0.475E+00 -.172E+00 -.131E-02
   0.620E+02 -.435E+01 0.797E-01   -.658E+02 0.463E+01 -.748E-01   0.406E+01 -.438E+00 -.491E-02
   0.237E+02 -.363E+00 -.142E-01   -.243E+02 0.613E+00 0.203E-01   0.379E+00 -.111E+00 -.592E-02
   0.382E+01 -.992E+00 -.218E+00   -.421E+01 0.105E+01 0.217E+00   0.658E-01 -.118E-01 0.651E-03
   0.141E+02 -.170E+01 -.190E+00   -.142E+02 0.168E+01 0.192E+00   0.233E+00 -.657E-01 -.327E-02
   0.751E+02 -.204E+01 0.913E-02   -.793E+02 0.227E+01 -.142E-01   0.407E+01 -.212E+00 0.436E-02
   0.153E+02 -.131E+02 -.175E+00   -.152E+02 0.141E+02 0.169E+00   -.250E+00 -.119E+01 0.524E-02
   -.412E+00 0.447E+00 -.233E+00   0.238E+00 -.516E+00 0.234E+00   0.116E+00 0.128E-01 -.522E-03
   0.137E+02 -.195E+01 -.268E+00   -.135E+02 0.188E+01 0.269E+00   0.134E-01 0.902E-01 -.208E-02
   0.126E+02 -.588E+01 -.309E+00   -.108E+02 0.595E+01 0.305E+00   -.153E+01 0.105E+00 0.650E-02
   0.607E+01 0.347E+01 -.299E+00   -.543E+01 -.397E+01 0.302E+00   -.447E+00 0.619E+00 -.117E-02
   0.488E+00 0.196E+01 -.152E+00   -.690E+00 -.209E+01 0.153E+00   0.172E+00 0.646E-01 -.297E-03
   0.527E+01 0.677E+00 -.191E+00   -.512E+01 -.637E+00 0.191E+00   -.255E+00 0.513E-01 0.858E-04
   0.861E+01 0.170E+01 -.343E+00   -.856E+01 -.221E+01 0.341E+00   -.127E+00 0.347E+00 0.203E-02
   -.657E+01 0.684E+01 -.376E+00   0.661E+01 -.723E+01 0.377E+00   -.242E+00 0.260E+00 -.154E-02
   0.754E+01 0.252E+02 -.247E+00   -.713E+01 -.257E+02 0.249E+00   -.260E+00 0.741E+00 -.345E-02
   0.421E+00 0.814E+01 -.373E+00   0.160E+00 -.881E+01 0.373E+00   -.343E+00 0.519E+00 0.101E-02
   -.126E+02 0.127E+02 -.130E+00   0.124E+02 -.124E+02 0.130E+00   0.396E-01 0.519E-01 -.575E-04
   -.167E+02 0.346E+02 0.106E+00   0.180E+02 -.340E+02 -.106E+00   -.107E+01 -.691E+00 0.119E-02
   -.165E+02 0.576E+02 0.259E-01   0.190E+02 -.612E+02 -.172E-01   -.264E+01 0.334E+01 -.844E-02
   -.744E+01 -.275E+01 -.539E+00   0.775E+01 0.182E+01 0.536E+00   -.696E-01 0.103E+01 0.261E-02
   0.650E+01 -.106E+01 -.528E+00   -.625E+01 0.468E+00 0.531E+00   -.170E+00 0.482E+00 -.306E-02
   0.133E+01 -.559E+01 -.741E+00   -.158E+01 0.439E+01 0.741E+00   0.346E-01 0.126E+01 -.108E-02
   -.750E+01 -.852E+00 -.513E+00   0.732E+01 0.251E+00 0.517E+00   0.305E-01 0.445E+00 -.451E-02
   -.729E+01 0.934E+00 -.180E+00   0.712E+01 -.101E+01 0.179E+00   0.801E-01 0.708E-01 0.600E-03
   -.126E+02 0.489E+01 -.148E+00   0.128E+02 -.463E+01 0.148E+00   -.640E-01 -.151E+00 0.314E-03
   -.252E+01 0.923E+00 -.237E+00   0.261E+01 -.107E+01 0.238E+00   0.660E-02 0.137E+00 -.663E-03
   0.283E+01 0.138E+01 -.186E+00   -.307E+01 -.126E+01 0.186E+00   0.180E+00 -.602E-01 -.341E-03
   -.477E+01 -.154E+01 -.160E+00   0.467E+01 0.162E+01 0.160E+00   0.160E+00 -.924E-01 -.930E-03
   -.289E+02 -.701E+01 0.375E-01   0.279E+02 0.690E+01 -.392E-01   0.684E+00 -.415E-01 0.267E-02
   -.104E+02 -.450E+00 -.894E-01   0.102E+02 0.729E+00 0.905E-01   0.114E+00 -.374E+00 -.513E-03
   0.264E+01 -.238E+01 -.171E+00   -.271E+01 0.233E+01 0.171E+00   0.801E-01 0.218E-01 0.179E-03
   -.723E+01 -.135E+01 -.156E+00   0.689E+01 0.121E+01 0.158E+00   0.120E+00 0.387E-01 -.157E-02
   -.273E+02 0.658E+01 -.205E+00   0.283E+02 -.712E+01 0.205E+00   -.101E+01 0.676E+00 -.387E-03
   -.549E+01 0.147E+01 -.546E-01   0.548E+01 -.243E+01 0.558E-01   0.234E+00 0.909E+00 -.256E-03
   0.159E+01 0.239E+00 -.200E+00   -.128E+01 -.249E+00 0.200E+00   0.241E-01 0.810E-01 0.532E-03
   -.825E+01 0.202E+00 -.238E+00   0.811E+01 -.140E+00 0.238E+00   -.460E-01 0.190E-02 -.130E-02
   -.914E+01 -.919E+00 -.142E+00   0.750E+01 0.108E+01 0.139E+00   0.135E+01 -.675E-01 0.424E-02
   -.647E+01 -.616E+01 -.183E+00   0.652E+01 0.709E+01 0.183E+00   0.139E+00 -.105E+01 -.629E-04
   0.281E+01 0.297E+00 -.216E+00   -.282E+01 -.236E+00 0.217E+00   0.111E-01 -.745E-01 0.547E-04
   -.305E+01 0.176E+01 -.228E+00   0.293E+01 -.167E+01 0.228E+00   0.294E+00 0.811E-02 -.390E-03
   -.878E+01 0.319E+00 -.326E+00   0.884E+01 -.603E+00 0.323E+00   0.712E-01 0.127E+00 0.229E-02
   -.444E+01 0.437E+01 -.308E+00   0.394E+01 -.455E+01 0.311E+00   0.324E+00 0.404E+00 -.226E-02
   0.169E+01 0.639E+00 -.179E+00   -.183E+01 -.789E+00 0.180E+00   0.114E+00 0.273E-01 -.782E-03
   -.547E+02 0.311E+01 0.419E-02   0.528E+02 0.172E+01 0.486E-04   0.197E+01 -.467E+01 -.340E-02
   -.683E+02 -.176E+02 0.535E+00   0.630E+02 0.191E+02 -.591E+00   0.545E+01 -.147E+01 0.455E-01
   0.366E+01 0.769E+01 -.935E+00   -.590E-01 -.135E+02 0.924E+00   -.393E+01 0.562E+01 -.169E-02
   -.445E+01 0.183E+02 -.170E+00   0.161E+01 -.224E+02 0.157E+00   0.322E+01 0.419E+01 0.401E-02
   0.462E+02 0.726E+01 0.660E+00   -.365E+02 0.937E+01 -.718E+00   -.922E+01 -.155E+02 0.557E-01
   0.684E+02 -.374E+02 0.825E+00   -.546E+02 0.389E+02 -.868E+00   -.134E+02 -.146E+01 0.336E-01
   -.722E+02 0.440E+02 0.320E+01   0.777E+02 -.505E+02 -.317E+01   -.553E+01 0.538E+01 -.269E-01
   -.290E+02 -.157E+03 0.643E+01   0.275E+02 0.167E+03 -.632E+01   0.103E+01 -.827E+01 -.941E-01
 -----------------------------------------------------------------------------------------------
   0.144E+02 0.914E+01 -.842E-02   -.572E-12 0.227E-12 -.711E-14   -.135E+02 -.804E+01 -.569E-02
 
 
 POSITION                                       TOTAL-FORCE (eV/Angst)
 -----------------------------------------------------------------------------------
      2.84918     12.50319      9.91225        -0.082027     -0.021998      0.000336
      0.70291      1.25099      9.91103         0.056561      0.097905     -0.000446
      1.43110     12.50940      9.91215         0.079260      0.000106      0.000405
      3.53270      1.23039      9.91063        -0.050448      0.046028      0.000028
      2.84326      2.48170      9.91024        -0.030507     -0.031848     -0.000347
      0.71464      3.75259      9.91077        -0.015283      0.022499     -0.000612
      1.41477      2.49885      9.91082        -0.057271     -0.084239     -0.000417
      3.59966      3.71046      9.90868         0.437278     -0.189816     -0.000235
      2.89177      4.98404      9.90919        -0.201506      0.137816     -0.000129
      0.73442      6.24900      9.91098        -0.328853      0.046202     -0.000518
      1.45748      4.99467      9.91048         0.130200     -0.087211     -0.001056
      3.59096      6.26447      9.90825         0.143597      0.015683     -0.000715
      2.87083      7.52586      9.91031        -0.206389     -0.218634      0.000138
      0.73234      8.76197      9.91172        -0.058002     -0.054333      0.000203
      1.45100      7.50733      9.91122         0.255716      0.025870     -0.001007
      3.62811      8.76525      9.91121         0.239927      0.179810      0.002248
      2.88148     10.01004      9.91208         0.163968      0.157689      0.001427
      0.73057     11.25468      9.91207        -0.026409     -0.058143      0.000489
      1.44964     10.00892      9.91195        -0.112250      0.094086      0.000253
      3.56771     11.26345      9.91251        -0.075775     -0.137677      0.000024
      7.13410     12.51497      9.91243        -0.214343     -0.117856     -0.000107
      4.95719      1.21854      9.91044         0.141849      0.344898     -0.001013
      5.71399     12.51204      9.91244         0.219018     -0.124864      0.000402
      7.81817      1.23332      9.91029        -0.165244      0.307313     -0.000303
      7.10305      2.46508      9.90879         0.253980     -0.155303      0.001431
      5.64779      2.44416      9.90874        -0.319701     -0.073302     -0.000170
      7.14119     10.06024      9.91205         0.232038      0.151607     -0.000405
      4.99366     11.28376      9.91288         0.081170     -0.094505      0.000120
      5.70863     10.06846      9.91263        -0.213843      0.116467     -0.001557
      7.85449     11.28193      9.91275        -0.151281     -0.139061     -0.000308
     11.38037      0.01130      9.91124        -0.102635      0.000388      0.000070
      9.24560      1.25870      9.91064         0.138225      0.104391      0.000077
      9.96128      0.00998      9.91121         0.113667     -0.005093     -0.000171
     12.08592      1.26625      9.91123        -0.037583      0.060512     -0.000469
     11.37912      2.51593      9.91091         0.064810     -0.015445     -0.000155
      9.21051      3.75588      9.90925        -0.213143     -0.161478      0.001133
      9.94778      2.50980      9.91031        -0.012322     -0.113846      0.000502
     12.09239      3.76786      9.91096         0.028086     -0.035292     -0.000235
     11.37027      5.02070      9.91072        -0.225347     -0.094303     -0.000277
      9.25733      6.29541      9.90924        -0.078176      0.186025     -0.001029
      9.94320      5.02084      9.90973         0.256364     -0.001454      0.001015
     12.10852      6.26710      9.91121         0.331967      0.076494     -0.000021
     11.39974      7.52737      9.91140        -0.197069      0.065642     -0.000495
      9.22204      8.78505      9.91073        -0.226001      0.086823      0.000670
      9.98113      7.54693      9.91056         0.198302     -0.187445     -0.000303
     12.11774      8.77825      9.91192         0.012256     -0.017555      0.000229
     11.39665     10.02381      9.91219         0.178873      0.107470     -0.000065
      9.27858     11.27999      9.91248         0.135238     -0.153167     -0.000544
      9.96541     10.02672      9.91208        -0.161376      0.241211      0.000809
     12.11011     11.26976      9.91235        -0.012764     -0.122354      0.000187
      7.80720      3.68591      9.90821         0.238388     -0.083744      0.000707
      7.88629      6.47994      9.90560         0.504972     -0.000505     -0.008910
      5.05437      8.81122      9.91147        -0.527258      0.081666     -0.012481
      7.79286      8.79037      9.90973         0.555897      0.222527     -0.008733
      4.96618      3.63006      9.90699        -0.370315     -0.183268      0.002520
      4.90829      6.34841      9.90528        -0.734865     -0.036051     -0.006026
      6.39729      5.02700      9.90419        -0.157770     -0.355651      0.002185
      6.37924      7.35633      9.89961         0.174152      0.178315      0.031651
 -----------------------------------------------------------------------------------
    total drift:                               -0.005322     -0.005038      0.000088


--------------------------------------------------------------------------------------------------------



  FREE ENERGIE OF THE ION-ELECTRON SYSTEM (eV)
  ---------------------------------------------------
  free  energy   TOTEN  =      -595.89013873 eV

  energy  without entropy=     -595.89013873  energy(sigma->0) =     -595.89013873
 


--------------------------------------------------------------------------------------------------------


    POTLOK:  cpu time    3.4753: real time    3.4753


--------------------------------------------------------------------------------------------------------


 stress matrix after NEB project (eV)
    -45.77326     -0.09995     -0.00120
     -0.09989    -40.29388     -0.00022
     -0.00132     -0.00148     -0.32502
  FORCES: max atom, RMS     0.735774    0.272207
  FORCE total and by dimension    2.073069    0.734865
  Stress total and by dimension   60.982894   45.773256
 writing wavefunctions
     LOOP+:  cpu time 5429.1498: real time 5432.4695
    4ORBIT:  cpu time    0.0000: real time    0.0000
 


 total charge     
 
# of ion       s       p       d       tot
------------------------------------------
    1        0.866   1.775   0.000   2.641
    2        0.864   1.760   0.000   2.623
    3        0.865   1.762   0.000   2.627
    4        0.870   1.756   0.000   2.626
    5        0.863   1.768   0.000   2.632
    6        0.860   1.754   0.000   2.613
    7        0.862   1.760   0.000   2.622
    8        0.855   1.708   0.000   2.563
    9        0.852   1.743   0.000   2.595
   10        0.856   1.746   0.000   2.602
   11        0.859   1.732   0.000   2.591
   12        0.864   1.736   0.000   2.600
   13        0.863   1.747   0.000   2.609
   14        0.862   1.757   0.000   2.619
   15        0.862   1.743   0.000   2.605
   16        0.858   1.733   0.000   2.591
   17        0.863   1.749   0.000   2.612
   18        0.862   1.760   0.000   2.622
   19        0.865   1.745   0.000   2.610
   20        0.865   1.768   0.000   2.633
   21        0.868   1.780   0.000   2.648
   22        0.872   1.797   0.000   2.669
   23        0.869   1.781   0.000   2.651
   24        0.871   1.768   0.000   2.639
   25        0.867   1.769   0.000   2.637
   26        0.866   1.747   0.000   2.613
   27        0.877   1.765   0.000   2.642
   28        0.872   1.787   0.000   2.659
   29        0.882   1.768   0.000   2.649
   30        0.871   1.780   0.000   2.651
   31        0.863   1.765   0.000   2.627
   32        0.863   1.759   0.000   2.622
   33        0.866   1.762   0.000   2.628
   34        0.865   1.755   0.000   2.619
   35        0.861   1.758   0.000   2.619
   36        0.859   1.741   0.000   2.600
   37        0.863   1.746   0.000   2.610
   38        0.860   1.747   0.000   2.607
   39        0.859   1.746   0.000   2.605
   40        0.865   1.779   0.000   2.644
   41        0.859   1.724   0.000   2.583
   42        0.860   1.736   0.000   2.595
   43        0.861   1.756   0.000   2.618
   44        0.859   1.741   0.000   2.600
   45        0.867   1.736   0.000   2.602
   46        0.864   1.754   0.000   2.618
   47        0.862   1.756   0.000   2.618
   48        0.865   1.772   0.000   2.637
   49        0.864   1.749   0.000   2.614
   50        0.863   1.757   0.000   2.620
   51        0.868   1.690   0.000   2.557
   52        0.927   1.502   0.000   2.429
   53        0.872   1.653   0.000   2.525
   54        0.863   1.624   0.000   2.488
   55        1.231   2.676   0.000   3.907
   56        1.258   2.566   0.000   3.824
   57        0.573   0.634   9.830  11.037
   58        0.553   0.833   6.422   7.807
--------------------------------------------------
tot         50.345 100.961  16.252 167.558
 


 magnetization (x)
 
# of ion       s       p       d       tot
------------------------------------------
    1        0.000   0.001   0.000   0.001
    2        0.000   0.005   0.000   0.005
    3       -0.000  -0.005   0.000  -0.006
    4       -0.000  -0.004   0.000  -0.004
    5       -0.001  -0.000   0.000  -0.001
    6        0.000   0.006   0.000   0.006
    7       -0.000  -0.003   0.000  -0.003
    8       -0.000  -0.001   0.000  -0.001
    9       -0.003  -0.017   0.000  -0.020
   10        0.001   0.005   0.000   0.005
   11       -0.001  -0.013   0.000  -0.014
   12        0.003   0.009   0.000   0.012
   13       -0.005  -0.031   0.000  -0.036
   14       -0.000   0.001   0.000   0.001
   15       -0.001  -0.006   0.000  -0.007
   16        0.001   0.003   0.000   0.004
   17       -0.001  -0.000   0.000  -0.001
   18        0.000   0.005   0.000   0.006
   19       -0.000  -0.001   0.000  -0.001
   20        0.000   0.002   0.000   0.002
   21        0.000   0.005   0.000   0.005
   22        0.000   0.001   0.000   0.001
   23       -0.001  -0.024   0.000  -0.025
   24       -0.002  -0.019   0.000  -0.021
   25        0.001   0.007   0.000   0.008
   26        0.000  -0.008   0.000  -0.008
   27        0.000   0.012   0.000   0.013
   28       -0.000   0.000   0.000   0.000
   29       -0.002  -0.016   0.000  -0.018
   30       -0.001  -0.008   0.000  -0.009
   31        0.001   0.006   0.000   0.007
   32        0.001   0.011   0.000   0.012
   33       -0.001  -0.012   0.000  -0.013
   34       -0.001  -0.009   0.000  -0.010
   35        0.001   0.010   0.000   0.011
   36        0.002   0.021   0.000   0.023
   37       -0.002  -0.012   0.000  -0.014
   38       -0.001  -0.010   0.000  -0.011
   39        0.002   0.015   0.000   0.016
   40        0.004   0.039   0.000   0.042
   41       -0.003  -0.051   0.000  -0.054
   42       -0.002  -0.029   0.000  -0.031
   43        0.002   0.015   0.000   0.017
   44        0.001   0.011   0.000   0.012
   45       -0.005  -0.056   0.000  -0.061
   46       -0.001  -0.012   0.000  -0.013
   47        0.001   0.010   0.000   0.011
   48        0.001   0.008   0.000   0.009
   49       -0.001  -0.007   0.000  -0.008
   50       -0.000  -0.004   0.000  -0.004
   51       -0.019  -0.114   0.000  -0.133
   52       -0.029  -0.234   0.000  -0.263
   53       -0.018  -0.079   0.000  -0.097
   54       -0.008  -0.055   0.000  -0.063
   55       -0.014  -0.071   0.000  -0.085
   56       -0.024  -0.379   0.000  -0.402
   57        0.011   0.001  -0.108  -0.096
   58        0.044   0.004   1.656   1.704
--------------------------------------------------
tot         -0.071  -1.079   1.548   0.398
 

 total amount of memory used by VASP MPI-rank0   138621. kBytes
=======================================================================

   base      :      30000. kBytes
   nonl-proj :       3782. kBytes
   fftplans  :      14253. kBytes
   grid      :      36827. kBytes
   one-center:         62. kBytes
   HF        :         23. kBytes
   nonlr-proj:      15379. kBytes
   wavefun   :      38295. kBytes
 
  
  
 General timing and accounting informations for this job:
 ========================================================
  
                  Total CPU time used (sec):     5479.015
                            User time (sec):     5463.430
                          System time (sec):       15.586
                         Elapsed time (sec):     5484.287
  
                   Maximum memory used (kb):      381788.
                   Average memory used (kb):           0.
  
                          Minor page faults:       313272
                          Major page faults:            0
                 Voluntary context switches:         1094
