 vasp.5.4.4.18Apr17-6-g9f103f2a35 (build Feb 25 2019 10:51:38) complex          
  
 executed on             LinuxIFC date 2021.08.09  10:29:07
 running on   32 total cores
 distrk:  each k-point on   32 cores,    1 groups
 distr:  one band on NCORES_PER_BAND=  32 cores,    1 groups


--------------------------------------------------------------------------------------------------------


 INCAR:
 POTCAR:    PAW_PBE C 08Apr2002                   
 POTCAR:    PAW_PBE N 08Apr2002                   
 POTCAR:    PAW_PBE Co 02Aug2007                  
 POTCAR:    PAW_PBE Fe 06Sep2000                  

 ----------------------------------------------------------------------------- 
|                                                                             |
|           W    W    AA    RRRRR   N    N  II  N    N   GGGG   !!!           |
|           W    W   A  A   R    R  NN   N  II  NN   N  G    G  !!!           |
|           W    W  A    A  R    R  N N  N  II  N N  N  G       !!!           |
|           W WW W  AAAAAA  RRRRR   N  N N  II  N  N N  G  GGG   !            |
|           WW  WW  A    A  R   R   N   NN  II  N   NN  G    G                |
|           W    W  A    A  R    R  N    N  II  N    N   GGGG   !!!           |
|                                                                             |
|      For optimal performance we recommend to set                            |
|        NCORE= 4 - approx SQRT( number of cores)                             |
|      NCORE specifies how many cores store one orbital (NPAR=cpu/NCORE).     |
|      This setting can  greatly improve the performance of VASP for DFT.     |
|      The default,   NCORE=1            might be grossly inefficient         |
|      on modern multi-core architectures or massively parallel machines.     |
|      Do your own testing !!!!                                               |
|      Unfortunately you need to use the default for GW and RPA calculations. |
|      (for HF NCORE is supported but not extensively tested yet)             |
|                                                                             |
 ----------------------------------------------------------------------------- 

 POTCAR:    PAW_PBE C 08Apr2002                   
   VRHFIN =C: s2p2                                                              
   LEXCH  = PE                                                                  
   EATOM  =   147.1560 eV,   10.8157 Ry                                         
                                                                                
   TITEL  = PAW_PBE C 08Apr2002                                                 
   LULTRA =        F    use ultrasoft PP ?                                      
   IUNSCR =        1    unscreen: 0-lin 1-nonlin 2-no                           
   RPACOR =    1.200    partial core radius                                     
   POMASS =   12.011; ZVAL   =    4.000    mass and valenz                      
   RCORE  =    1.500    outmost cutoff radius                                   
   RWIGS  =    1.630; RWIGS  =    0.863    wigner-seitz radius (au A)           
   ENMAX  =  400.000; ENMIN  =  300.000 eV                                      
   ICORE  =        2    local potential                                         
   LCOR   =        T    correct aug charges                                     
   LPAW   =        T    paw PP                                                  
   EAUG   =  644.873                                                            
   DEXC   =    0.000                                                            
   RMAX   =    1.529    core radius for proj-oper                               
   RAUG   =    1.300    factor for augmentation sphere                          
   RDEP   =    1.501    radius for radial grids                                 
   RDEPT  =    1.300    core radius for aug-charge                              
                                                                                
   Atomic configuration                                                         
    4 entries                                                                   
     n  l   j            E        occ.                                          
     1  0  0.50      -273.3789   2.0000                                         
     2  0  0.50       -13.7508   2.0000                                         
     2  1  0.50        -5.2854   2.0000                                         
     3  2  1.50        -5.4423   0.0000                                         
   Description                                                                  
     l       E           TYP  RCUT    TYP  RCUT                                 
     0    -13.7508458     23  1.200                                             
     0     -8.2022199     23  1.200                                             
     1     -5.2854383     23  1.500                                             
     1     34.0145650     23  1.500                                             
     2     -5.4423304      7  1.500                                             
  local pseudopotential read in
  partial core-charges read in
  partial kinetic energy density read in
  atomic valenz-charges read in
  non local Contribution for L=           0  read in
    real space projection operators read in
  non local Contribution for L=           0  read in
    real space projection operators read in
  non local Contribution for L=           1  read in
    real space projection operators read in
  non local Contribution for L=           1  read in
    real space projection operators read in
    PAW grid and wavefunctions read in
 
   number of l-projection  operators is LMAX  =           4
   number of lm-projection operators is LMMAX =           8
 
 POTCAR:    PAW_PBE N 08Apr2002                   
   VRHFIN =N: s2p3                                                              
   LEXCH  = PE                                                                  
   EATOM  =   264.5486 eV,   19.4438 Ry                                         
                                                                                
   TITEL  = PAW_PBE N 08Apr2002                                                 
   LULTRA =        F    use ultrasoft PP ?                                      
   IUNSCR =        1    unscreen: 0-lin 1-nonlin 2-no                           
   RPACOR =    1.200    partial core radius                                     
   POMASS =   14.001; ZVAL   =    5.000    mass and valenz                      
   RCORE  =    1.500    outmost cutoff radius                                   
   RWIGS  =    1.400; RWIGS  =    0.741    wigner-seitz radius (au A)           
   ENMAX  =  400.000; ENMIN  =  300.000 eV                                      
   ICORE  =        2    local potential                                         
   LCOR   =        T    correct aug charges                                     
   LPAW   =        T    paw PP                                                  
   EAUG   =  627.112                                                            
   DEXC   =    0.000                                                            
   RMAX   =    1.529    core radius for proj-oper                               
   RAUG   =    1.300    factor for augmentation sphere                          
   RDEP   =    1.514    radius for radial grids                                 
   RDEPT  =    1.338    core radius for aug-charge                              
                                                                                
   Atomic configuration                                                         
    4 entries                                                                   
     n  l   j            E        occ.                                          
     1  0  0.50      -384.7179   2.0000                                         
     2  0  0.50       -18.5828   2.0000                                         
     2  1  0.50        -7.0898   3.0000                                         
     3  2  1.50        -6.8029   0.0000                                         
   Description                                                                  
     l       E           TYP  RCUT    TYP  RCUT                                 
     0    -18.5828119     23  1.200                                             
     0    -13.5018863     23  1.200                                             
     1     -7.0897853     23  1.500                                             
     1      9.5240782     23  1.500                                             
     2     -6.8029130      7  1.500                                             
  local pseudopotential read in
  partial core-charges read in
  partial kinetic energy density read in
  atomic valenz-charges read in
  non local Contribution for L=           0  read in
    real space projection operators read in
  non local Contribution for L=           0  read in
    real space projection operators read in
  non local Contribution for L=           1  read in
    real space projection operators read in
  non local Contribution for L=           1  read in
    real space projection operators read in
    PAW grid and wavefunctions read in
 
   number of l-projection  operators is LMAX  =           4
   number of lm-projection operators is LMMAX =           8
 
 POTCAR:    PAW_PBE Co 02Aug2007                  
   VRHFIN =Co: d8 s1                                                            
   LEXCH  = PE                                                                  
   EATOM  =   813.3670 eV,   59.7808 Ry                                         
                                                                                
   TITEL  = PAW_PBE Co 02Aug2007                                                
   LULTRA =        F    use ultrasoft PP ?                                      
   IUNSCR =        1    unscreen: 0-lin 1-nonlin 2-no                           
   RPACOR =    2.000    partial core radius                                     
   POMASS =   58.933; ZVAL   =    9.000    mass and valenz                      
   RCORE  =    2.300    outmost cutoff radius                                   
   RWIGS  =    2.460; RWIGS  =    1.302    wigner-seitz radius (au A)           
   ENMAX  =  267.968; ENMIN  =  200.976 eV                                      
   RCLOC  =    1.203    cutoff for local pot                                    
   LCOR   =        T    correct aug charges                                     
   LPAW   =        T    paw PP                                                  
   EAUG   =  477.818                                                            
   DEXC   =    0.000                                                            
   RMAX   =    2.360    core radius for proj-oper                               
   RAUG   =    1.300    factor for augmentation sphere                          
   RDEP   =    2.393    radius for radial grids                                 
   RDEPT  =    1.864    core radius for aug-charge                              
                                                                                
   Atomic configuration                                                         
    9 entries                                                                   
     n  l   j            E        occ.                                          
     1  0  0.50     -7587.6674   2.0000                                         
     2  0  0.50      -893.6084   2.0000                                         
     2  1  1.50      -764.5805   6.0000                                         
     3  0  0.50       -97.5973   2.0000                                         
     3  1  1.50       -60.9648   6.0000                                         
     3  2  2.50        -4.2382   8.0000                                         
     4  0  0.50        -4.3746   1.0000                                         
     4  1  1.50        -4.0817   0.0000                                         
     4  3  2.50        -1.3606   0.0000                                         
   Description                                                                  
     l       E           TYP  RCUT    TYP  RCUT                                 
     2     -4.2382362     23  2.300                                             
     2     -5.5988188     23  2.300                                             
     0     -4.3745797     23  2.300                                             
     0      5.7660125     23  2.300                                             
     1     -2.7211652     23  2.300                                             
     1     16.9860234     23  2.300                                             
  local pseudopotential read in
  partial core-charges read in
  partial kinetic energy density read in
  atomic valenz-charges read in
  non local Contribution for L=           2  read in
    real space projection operators read in
  non local Contribution for L=           2  read in
    real space projection operators read in
  non local Contribution for L=           0  read in
    real space projection operators read in
  non local Contribution for L=           0  read in
    real space projection operators read in
  non local Contribution for L=           1  read in
    real space projection operators read in
  non local Contribution for L=           1  read in
    real space projection operators read in
    PAW grid and wavefunctions read in
 
   number of l-projection  operators is LMAX  =           6
   number of lm-projection operators is LMMAX =          18
 
 POTCAR:    PAW_PBE Fe 06Sep2000                  
   VRHFIN =Fe:  d7 s1                                                           
   LEXCH  = PE                                                                  
   EATOM  =   594.3153 eV,   43.6809 Ry                                         
                                                                                
   TITEL  = PAW_PBE Fe 06Sep2000                                                
   LULTRA =        F    use ultrasoft PP ?                                      
   IUNSCR =        1    unscreen: 0-lin 1-nonlin 2-no                           
   RPACOR =    2.000    partial core radius                                     
   POMASS =   55.847; ZVAL   =    8.000    mass and valenz                      
   RCORE  =    2.300    outmost cutoff radius                                   
   RWIGS  =    2.460; RWIGS  =    1.302    wigner-seitz radius (au A)           
   ENMAX  =  267.882; ENMIN  =  200.911 eV                                      
   RCLOC  =    1.701    cutoff for local pot                                    
   LCOR   =        T    correct aug charges                                     
   LPAW   =        T    paw PP                                                  
   EAUG   =  511.368                                                            
   DEXC   =    0.000                                                            
   RMAX   =    2.356    core radius for proj-oper                               
   RAUG   =    1.300    factor for augmentation sphere                          
   RDEP   =    2.442    radius for radial grids                                 
   RDEPT  =    1.890    core radius for aug-charge                              
                                                                                
   Atomic configuration                                                         
    9 entries                                                                   
     n  l   j            E        occ.                                          
     1  0  0.50     -6993.8440   2.0000                                         
     2  0  0.50      -814.6047   2.0000                                         
     2  1  1.50      -693.3689   6.0000                                         
     3  0  0.50       -89.4732   2.0000                                         
     3  1  1.50       -55.6373   6.0000                                         
     3  2  2.50        -3.8151   7.0000                                         
     4  0  0.50        -4.2551   1.0000                                         
     4  1  1.50        -3.4015   0.0000                                         
     4  3  2.50        -1.3606   0.0000                                         
   Description                                                                  
     l       E           TYP  RCUT    TYP  RCUT                                 
     2     -3.8151135     23  2.300                                             
     2     -5.1756961     23  2.300                                             
     0     -4.2550963     23  2.300                                             
     0      7.2035603     23  2.300                                             
     1     -2.7211652     23  2.300                                             
     1     18.4316424     23  2.300                                             
  local pseudopotential read in
  partial core-charges read in
  partial kinetic energy density read in
  atomic valenz-charges read in
  non local Contribution for L=           2  read in
    real space projection operators read in
  non local Contribution for L=           2  read in
    real space projection operators read in
  non local Contribution for L=           0  read in
    real space projection operators read in
  non local Contribution for L=           0  read in
    real space projection operators read in
  non local Contribution for L=           1  read in
    real space projection operators read in
  non local Contribution for L=           1  read in
    real space projection operators read in
    PAW grid and wavefunctions read in
 
   number of l-projection  operators is LMAX  =           6
   number of lm-projection operators is LMMAX =          18
 

 ----------------------------------------------------------------------------- 
|                                                                             |
|  ADVICE TO THIS USER RUNNING 'VASP/VAMP'   (HEAR YOUR MASTER'S VOICE ...):  |
|                                                                             |
|      You have a (more or less) 'large supercell' and for larger cells       |
|      it might be more efficient to use real space projection opertators     |
|      So try LREAL= Auto  in the INCAR   file.                               |
|      Mind:          For very  accurate calculation you might also keep the  |
|      reciprocal projection scheme          (i.e. LREAL=.FALSE.)             |
|                                                                             |
 ----------------------------------------------------------------------------- 

  PAW_PBE C 08Apr2002                   :
 energy of atom  1       EATOM= -147.1560
 kinetic energy error for atom=    0.0076 (will be added to EATOM!!)
  PAW_PBE N 08Apr2002                   :
 energy of atom  2       EATOM= -264.5486
 kinetic energy error for atom=    0.0138 (will be added to EATOM!!)
  PAW_PBE Co 02Aug2007                  :
 energy of atom  3       EATOM= -813.3670
 kinetic energy error for atom=    0.0028 (will be added to EATOM!!)
  PAW_PBE Fe 06Sep2000                  :
 energy of atom  4       EATOM= -594.3153
 kinetic energy error for atom=    0.0026 (will be added to EATOM!!)
 
 
 POSCAR:  C  N Co Fe                             
  positions in cartesian coordinates
  No initial velocities read in
 exchange correlation table for  LEXCH =        8
   RHO(1)=    0.500       N(1)  =     2000
   RHO(2)=  100.500       N(2)  =     4000

 VTST: version 3.2, (02/03/18)

 CHAIN: initializing optimizer
 
 OPT: Using VASP Conjugate-Gradient optimizer
 CHAIN: Read ICHAIN            0
 
 POSCAR:  C  N Co Fe                             
  positions in cartesian coordinates
  No initial velocities read in
 


--------------------------------------------------------------------------------------------------------


 ion  position               nearest neighbor table
   1  0.227  0.002  0.500-  18 1.44   4 1.46   3 1.46
   2  0.057  0.100  0.500-   7 1.43   3 1.43  33 1.45
   3  0.114  0.001  0.500-   2 1.43  16 1.43   1 1.46
   4  0.282  0.106  0.500-   5 1.46   1 1.46  20 1.47
   5  0.222  0.205  0.500-  53 1.38   7 1.45   4 1.46
   6  0.051  0.298  0.500-  10 1.41  37 1.43   7 1.43
   7  0.111  0.201  0.500-   2 1.43   6 1.43   5 1.45
   8  0.210  0.397  0.500-  53 1.37  10 1.40  11 1.42
   9  0.049  0.500  0.500-  41 1.41  14 1.42  10 1.43
  10  0.102  0.399  0.500-   8 1.40   6 1.41   9 1.43
  11  0.264  0.497  0.499-  55 1.33   8 1.42  12 1.43
  12  0.212  0.599  0.500-  14 1.41  50 1.42  11 1.43
  13  0.053  0.701  0.500-  14 1.41  45 1.43  17 1.44
  14  0.104  0.600  0.500-  12 1.41  13 1.41   9 1.42
  15  0.223  0.798  0.500-  50 1.43  17 1.45  18 1.46
  16  0.058  0.901  0.500-  17 1.43   3 1.43  49 1.45
  17  0.112  0.800  0.500-  16 1.43  13 1.44  15 1.45
  18  0.280  0.900  0.500-   1 1.44  28 1.46  15 1.46
  19  0.558  0.999  0.500-  22 1.42  29 1.43  21 1.44
  20  0.395  0.106  0.500-  54 1.40  21 1.46   4 1.47
  21  0.447  0.001  0.500-  19 1.44  28 1.45  20 1.46
  22  0.614  0.098  0.500-  23 1.41  19 1.42  31 1.44
  23  0.559  0.197  0.500-  54 1.38  22 1.41  24 1.45
  24  0.613  0.300  0.500-  35 1.43  51 1.43  23 1.45
  25  0.609  0.501  0.500-  56 1.40  39 1.45  51 1.46
  26  0.616  0.698  0.500-  56 1.37  43 1.42  27 1.46
  27  0.558  0.800  0.500-  29 1.42  52 1.42  26 1.46
  28  0.392  0.899  0.500-  52 1.44  21 1.45  18 1.46
  29  0.614  0.900  0.500-  27 1.42  19 1.43  47 1.44
  30  0.891  1.000  0.500-  33 1.42  49 1.42  32 1.44
  31  0.724  0.099  0.500-  36 1.42  32 1.42  22 1.44
  32  0.780  1.000  0.500-  47 1.42  31 1.42  30 1.44
  33  0.946  0.100  0.500-  30 1.42  34 1.43   2 1.45
  34  0.888  0.199  0.500-  37 1.41  36 1.43  33 1.43
  35  0.723  0.299  0.500-  40 1.42  24 1.43  36 1.43
  36  0.778  0.199  0.500-  31 1.42  34 1.43  35 1.43
  37  0.941  0.299  0.500-  34 1.41   6 1.43  38 1.43
  38  0.886  0.399  0.500-  41 1.42  40 1.43  37 1.43
  39  0.721  0.500  0.500-  40 1.43  44 1.43  25 1.45
  40  0.776  0.400  0.500-  35 1.42  38 1.43  39 1.43
  41  0.940  0.500  0.500-   9 1.41  42 1.42  38 1.42
  42  0.887  0.600  0.500-  41 1.42  44 1.43  45 1.43
  43  0.725  0.700  0.500-  44 1.42  26 1.42  48 1.43
  44  0.778  0.599  0.500-  43 1.42  42 1.43  39 1.43
  45  0.943  0.701  0.500-  46 1.42  13 1.43  42 1.43
  46  0.889  0.801  0.500-  45 1.42  49 1.43  48 1.43
  47  0.724  0.900  0.500-  32 1.42  48 1.42  29 1.44
  48  0.780  0.801  0.500-  47 1.42  43 1.43  46 1.43
  49  0.947  0.900  0.500-  30 1.42  46 1.43  16 1.45
  50  0.273  0.695  0.500-  12 1.42  15 1.43  58 1.92
  51  0.553  0.398  0.499-  24 1.43  25 1.46  57 1.91
  52  0.449  0.799  0.500-  27 1.42  28 1.44  58 1.94
  53  0.269  0.306  0.499-   8 1.37   5 1.38  57 1.96
  54  0.453  0.201  0.499-  23 1.38  20 1.40  57 1.95
  55  0.367  0.495  0.499-  11 1.33  57 1.84  58 1.94
  56  0.562  0.602  0.499-  26 1.37  25 1.40  58 2.01
  57  0.413  0.354  0.499-  55 1.84  51 1.91  54 1.95  53 1.96
  58  0.413  0.646  0.499-  50 1.92  52 1.94  55 1.94  56 2.01
 
  LATTYP: Found a triclinic cell.
 ALAT       =    13.0275934911
 B/A-ratio  =     0.9440522039
 C/A-ratio  =     1.5220021236
 COS(alpha) =     0.0000576846
 COS(beta)  =     0.0003172464
 COS(gamma) =     0.0018885544
  
  Lattice vectors:
  
 A1 = ( -13.0275829062,   0.0166020943,   0.0004044973)
 A2 = (  -0.0075535940,  12.2987260215,  -0.0003635864)
 A3 = (  -0.0069053147,   0.0005533568, -19.8280237493)


Analysis of symmetry for initial positions (statically):
=====================================================================
 Subroutine PRICEL returns:
 Original cell was already a primitive cell.
 

 Routine SETGRP: Setting up the symmetry group for a 
 triclinic supercell.


 Subroutine GETGRP returns: Found  1 space group operations
 (whereof  1 operations were pure point group operations)
 out of a pool of  2 trial point group operations.


The static configuration has the point symmetry C_1 .


Analysis of symmetry for dynamics (positions and initial velocities):
=====================================================================
 Subroutine PRICEL returns:
 Original cell was already a primitive cell.
 

 Routine SETGRP: Setting up the symmetry group for a 
 triclinic supercell.


 Subroutine GETGRP returns: Found  1 space group operations
 (whereof  1 operations were pure point group operations)
 out of a pool of  2 trial point group operations.


The dynamic configuration has the point symmetry C_1 .


Analysis of structural, dynamic, and magnetic symmetry:
=====================================================================
 Subroutine PRICEL returns:
 Original cell was already a primitive cell.
 

 Routine SETGRP: Setting up the symmetry group for a 
 triclinic supercell.


 Subroutine GETGRP returns: Found  1 space group operations
 (whereof  1 operations were pure point group operations)
 out of a pool of  2 trial point group operations.


The magnetic configuration has the point symmetry C_1 .


 Subroutine INISYM returns: Found  1 space group operations
 (whereof  1 operations are pure point group operations),
 and found     1 'primitive' translations

 
 
 KPOINTS: KPOINTS created by Atomic Simulation Env

Automatic generation of k-mesh.
Space group operators:
 irot       det(A)        alpha          n_x          n_y          n_z        tau_x        tau_y        tau_z
    1     1.000000     0.000000     1.000000     0.000000     0.000000     0.000000     0.000000     0.000000
 
 Subroutine IBZKPT returns following result:
 ===========================================
 
 Found      2 irreducible k-points:
 
 Following reciprocal coordinates:
            Coordinates               Weight
  0.250000  0.250000  0.000000      2.000000
 -0.250000  0.250000  0.000000      2.000000
 
 Following cartesian coordinates:
            Coordinates               Weight
  0.019216  0.020339 -0.000006      2.000000
 -0.019164  0.020316  0.000007      2.000000
 
 
 Subroutine IBZKPT_HF returns following result:
 ==============================================
 
 Found      4 k-points in 1st BZ
 the following      4 k-points will be used (e.g. in the exchange kernel)
 Following reciprocal coordinates:   # in IRBZ
  0.250000  0.250000  0.000000    0.25000000   1 t-inv F
 -0.250000  0.250000  0.000000    0.25000000   2 t-inv F
 -0.250000 -0.250000  0.000000    0.25000000   1 t-inv T
  0.250000 -0.250000  0.000000    0.25000000   2 t-inv T


--------------------------------------------------------------------------------------------------------




 Dimension of arrays:
   k-points           NKPTS =      2   k-points in BZ     NKDIM =      4   number of bands    NBANDS=    156
   number of dos      NEDOS =    301   number of ions     NIONS =     58
   non local maximal  LDIM  =      6   non local SUM 2l+1 LMDIM =     18
   total plane-waves  NPLWV = ******
   max r-space proj   IRMAX =      1   max aug-charges    IRDMAX=  16287
   dimension x,y,z NGX =    96 NGY =   90 NGZ =  150
   dimension x,y,z NGXF=   192 NGYF=  180 NGZF=  300
   support grid    NGXF=   192 NGYF=  180 NGZF=  300
   ions per type =              52   4   1   1
   NGX,Y,Z   is equivalent  to a cutoff of  12.25, 12.17, 12.58 a.u.
   NGXF,Y,Z  is equivalent  to a cutoff of  24.50, 24.33, 25.15 a.u.

 SYSTEM =  unknown system                          
 POSCAR =   C  N Co Fe                             

 Startparameter for this run:
   NWRITE =      2    write-flag & timer
   PREC   = accura    normal or accurate (medium, high low for compatibility)
   ISTART =      1    job   : 0-new  1-cont  2-samecut
   ICHARG =      0    charge: 1-file 2-atom 10-const
   ISPIN  =      2    spin polarized calculation?
   LNONCOLLINEAR =      F non collinear calculations
   LSORBIT =      F    spin-orbit coupling
   INIWAV =      1    electr: 0-lowe 1-rand  2-diag
   LASPH  =      T    aspherical Exc in radial PAW
   METAGGA=      F    non-selfconsistent MetaGGA calc.

 Electronic Relaxation 1
   ENCUT  =  500.0 eV  36.75 Ry    6.06 a.u.  23.75 22.42 36.15*2*pi/ulx,y,z
   ENINI  =  500.0     initial cutoff
   ENAUG  =  644.9 eV  augmentation charge cutoff
   NELM   =    250;   NELMIN=  2; NELMDL=  0     # of ELM steps 
   EDIFF  = 0.1E-03   stopping-criterion for ELM
   LREAL  =      F    real-space projection
   NLSPLINE    = F    spline interpolate recip. space projectors
   LCOMPAT=      F    compatible to vasp.4.4
   GGA_COMPAT  = T    GGA compatible to vasp.4.4-vasp.4.6
   LMAXPAW     = -100 max onsite density
   LMAXMIX     =    2 max onsite mixed and CHGCAR
   VOSKOWN=      0    Vosko Wilk Nusair interpolation
   ROPT   =    0.00000   0.00000   0.00000   0.00000
 Ionic relaxation
   EDIFFG = -.3E-01   stopping-criterion for IOM
   NSW    =      0    number of steps for IOM
   NBLOCK =      1;   KBLOCK =      1    inner block; outer block 
   IBRION =     -1    ionic relax: 0-MD 1-quasi-New 2-CG
   NFREE  =      1    steps in history (QN), initial steepest desc. (CG)
   ISIF   =      2    stress and relaxation
   IWAVPR =     10    prediction:  0-non 1-charg 2-wave 3-comb
   ISYM   =      3    0-nonsym 1-usesym 2-fastsym
   LCORR  =      T    Harris-Foulkes like correction to forces

   POTIM  = 0.5000    time-step for ionic-motion
   TEIN   =    0.0    initial temperature
   TEBEG  =    0.0;   TEEND  =   0.0 temperature during run
   SMASS  =  -3.00    Nose mass-parameter (am)
   estimated Nose-frequenzy (Omega)   =  0.10E-29 period in steps =****** mass=  -0.388E-26a.u.
   SCALEE = 1.0000    scale energy and forces
   NPACO  =    256;   APACO  = 16.0  distance and # of slots for P.C.
   PSTRESS=    0.0 pullay stress

  Mass of Ions in am
   POMASS =  12.01 14.00 58.93 55.85
  Ionic Valenz
   ZVAL   =   4.00  5.00  9.00  8.00
  Atomic Wigner-Seitz radii
   RWIGS  =  -1.00 -1.00 -1.00 -1.00
  virtual crystal weights 
   VCA    =   1.00  1.00  1.00  1.00
   NELECT =     245.0000    total number of electrons
   NUPDOWN=      -1.0000    fix difference up-down

 DOS related values:
   EMIN   =  10.00;   EMAX   =-10.00  energy-range for DOS
   EFERMI =   0.00
   ISMEAR =     0;   SIGMA  =   0.10  broadening in eV -4-tet -1-fermi 0-gaus

 Electronic relaxation 2 (details)
   IALGO  =     53    algorithm
   LDIAG  =      T    sub-space diagonalisation (order eigenvalues)
   LSUBROT=      F    optimize rotation matrix (better conditioning)
   TURBO    =      0    0=normal 1=particle mesh
   IRESTART =      0    0=no restart 2=restart with 2 vectors
   NREBOOT  =      0    no. of reboots
   NMIN     =      0    reboot dimension
   EREF     =   0.00    reference energy to select bands
   IMIX   =      4    mixing-type and parameters
     AMIX     =   0.40;   BMIX     =  1.00
     AMIX_MAG =   1.60;   BMIX_MAG =  1.00
     AMIN     =   0.10
     WC   =   100.;   INIMIX=   1;  MIXPRE=   1;  MAXMIX= -45

 Intra band minimization:
   WEIMIN = 0.0000     energy-eigenvalue tresh-hold
   EBREAK =  0.16E-06  absolut break condition
   DEPER  =   0.30     relativ break condition  

   TIME   =   0.20     timestep for ELM

  volume/ion in A,a.u.               =      54.77       369.63
  Fermi-wavevector in a.u.,A,eV,Ry     =   0.696834  1.316825  6.606680  0.485577
  Thomas-Fermi vector in A             =   1.779994
 
 Write flags
   LWAVE        =      T    write WAVECAR
   LDOWNSAMPLE  =      F    k-point downsampling of WAVECAR
   LCHARG       =      T    write CHGCAR
   LVTOT        =      F    write LOCPOT, total local potential
   LVHAR        =      F    write LOCPOT, Hartree potential only
   LELF         =      F    write electronic localiz. function (ELF)
   LORBIT       =     11    0 simple, 1 ext, 2 COOP (PROOUT), +10 PAW based schemes


 Dipole corrections
   LMONO  =      F    monopole corrections only (constant potential shift)
   LDIPOL =      T    correct potential (dipole corrections)
   IDIPOL =      3    1-x, 2-y, 3-z, 4-all directions 
   EPSILON=  1.0000000 bulk dielectric constant

 Exchange correlation treatment:
   GGA     =    PE    GGA type
   LEXCH   =     8    internal setting for exchange type
   VOSKOWN=      0    Vosko Wilk Nusair interpolation
   EXXOEP  =     0    0=HF, 1=EXX-LHF (local Hartree Fock) 2=EXX OEP
   LHFCALC =     T    Hartree Fock is set to
   LSYMGRAD=     F    symmetrize gradient (conserves proper symmetry)
   PRECFOCK=normal    Normal, Fast or Accurate (Low or Medium for compatibility)
   LRHFCALC=     F    long range Hartree Fock
   LRSCOR  =     F    long range correlation only (use DFT for short range part)
   LTHOMAS =     F    Thomas Fermi screening in HF
   LMODELHF=     F    short range full HF, long range fraction AEXX
   ENCUT4O =  -1.0   cutoff for four orbital integrals eV
   LMAXFOCK=     4    L truncation for augmentation on plane wave grid
   LMAXFOCKAE=  -1    L truncation for all-electron charge restoration on plane wave grid
   NMAXFOCKAE=   1    number of basis functions for all-electron charge restoration
   LFOCKAEDFT=     F  apply the AE augmentation even for DFT
   NKREDX  =     1    reduce k-point grid by
   NKREDY  =     1    reduce k-point grid by
   NKREDZ  =     1    reduce k-point grid by
   SHIFTRED=     F    shift reduced grid of Gamma
   HFKIDENT=     F    idential grid for each k-point
   ODDONLY =     F    use only odd q-grid points
   EVENONLY=     F    use only even q-grid points
   HFALPHA =   -1.0000 decay constant for conv. correction
   MCALPHA =    0.0000 extent of test-charge in conv. correction in multipole expansion
   AEXX    =    0.2500 exact exchange contribution
   HFSCREEN=    0.2000 screening length (either q_TF or 0.3 A-1)
   HFSCREENC=   0.2000 screening length for correlation (either q_TF or 0.3 A-1)
   HFRCUT  =    0.0000 spherical cutoff for potential kernel
   ALDAX   =    0.7500 LDA exchange part
   AGGAX   =    0.7500 GGA exchange part
   ALDAC   =    1.0000 LDA correlation
   AGGAC   =    1.0000 GGA correlation
   ENCUTFOCK=  -1.0 apply spherical cutoff to Coloumb kernel
   NBANDSGWLOW=     1    first orbital included in HF term
   NBLOCK_FOCK=    64    blocking factor in FOCK_ACC
 Linear response parameters
   LEPSILON=     F    determine dielectric tensor
   LRPA    =     F    only Hartree local field effects (RPA)
   LNABLA  =     F    use nabla operator in PAW spheres
   LVEL    =     F    velocity operator in full k-point grid
   LINTERFAST=   F  fast interpolation
   KINTER  =     0    interpolate to denser k-point grid
   CSHIFT  =0.1000    complex shift for real part using Kramers Kronig
   OMEGAMAX=  -1.0    maximum frequency
   DEG_THRESHOLD= 0.2000000E-02 threshold for treating states as degnerate
   RTIME   =   -0.100 relaxation time in fs
  (WPLASMAI=    0.000 imaginary part of plasma frequency in eV, 0.658/RTIME)
   DFIELD  = 0.0000000 0.0000000 0.0000000 field for delta impulse in time
 
 Orbital magnetization related:
   ORBITALMAG=     F  switch on orbital magnetization
   LCHIMAG   =     F  perturbation theory with respect to B field
   DQ        =  0.001000  dq finite difference perturbation B field
   LLRAUG    =     F  two centre corrections for induced B field



--------------------------------------------------------------------------------------------------------


 Static calculation
 charge density and potential will be updated during run
 spin polarized calculation
 Conjugate gradient for all bands (Freysoldt, et al. PRB 79, 241103 (2009))
 perform sub-space diagonalisation
    before iterative eigenvector-optimisation
 modified Broyden-mixing scheme, WC =      100.0
 initial mixing is a Kerker type mixing with AMIX =  0.4000 and BMIX =      1.0000
 Hartree-type preconditioning will be used
 using additional bands           33
 reciprocal scheme for non local part
 use partial core corrections
 no Harris-corrections to forces 
 use gradient corrections 
 use of overlap-Matrix (Vanderbilt PP)
 Gauss-broadening in eV      SIGMA  =   0.10


--------------------------------------------------------------------------------------------------------


  energy-cutoff  :      500.00
  volume of cell :     3176.90
      direct lattice vectors                 reciprocal lattice vectors
    13.027582906 -0.016602094 -0.000404497     0.076760269  0.000047144 -0.000026731
    -0.007553594 12.298726021 -0.000363586     0.000103619  0.081309298  0.000002233
     0.006905315 -0.000553357 19.828023749     0.000001568  0.000001492  0.050433669

  length of vectors
    13.027593491 12.298728346 19.828024959     0.076760288  0.081309364  0.050433669


 
 old parameters found on file WAVECAR:
  energy-cutoff  :      500.00
  volume of cell :     3176.90
      direct lattice vectors                 reciprocal lattice vectors
    12.980900000  0.000000000  0.000000000     0.077036261 -0.000051227 -0.000029042
     0.008137974 12.238097294  0.000000000     0.000000000  0.081712049 -0.000000407
     0.007539031  0.000099696 19.997898579     0.000000000  0.000000000  0.050005254

  length of vectors

 
 k-points in units of 2pi/SCALE and weight: KPOINTS created by Atomic Simulation Env
   0.01921597  0.02033911 -0.00000612       0.500
  -0.01916416  0.02031554  0.00000724       0.500
 
 k-points in reciprocal lattice and weights: KPOINTS created by Atomic Simulation Env
   0.25000000  0.25000000  0.00000000       0.500
  -0.25000000  0.25000000  0.00000000       0.500
 
 position of ions in fractional coordinates (direct lattice) 
   0.22672649  0.00242794  0.49979045
   0.05696445  0.09976398  0.49996784
   0.11428158  0.00088673  0.49991386
   0.28226463  0.10579230  0.49960517
   0.22192459  0.20542525  0.49958055
   0.05076249  0.29848045  0.50005637
   0.11061064  0.20093216  0.49988199
   0.20967096  0.39738077  0.49959440
   0.04870000  0.49989315  0.50020448
   0.10243381  0.39906156  0.50003394
   0.26441116  0.49720799  0.49931955
   0.21175760  0.59909463  0.49972261
   0.05254640  0.70124309  0.50014370
   0.10351191  0.59985031  0.50010652
   0.22279501  0.79816566  0.49982643
   0.05763779  0.90078912  0.50001927
   0.11158026  0.79989692  0.50001527
   0.28020144  0.89986221  0.49980154
   0.55752626  0.99902520  0.49995961
   0.39481760  0.10554663  0.49957863
   0.44698622  0.00101480  0.49981311
   0.61378221  0.09848834  0.49994331
   0.55885266  0.19740709  0.49963498
   0.61294093  0.30035099  0.49959016
   0.60928351  0.50085098  0.49951274
   0.61577048  0.69772818  0.49977245
   0.55845026  0.79966102  0.49986726
   0.39193591  0.89852599  0.49980641
   0.61385753  0.89955765  0.50002573
   0.89076622  0.99981613  0.50010462
   0.72406955  0.09895155  0.50007057
   0.78000521  0.99970093  0.50012760
   0.94595392  0.09959072  0.50008072
   0.88823012  0.19853176  0.50011192
   0.72250973  0.29887617  0.49988336
   0.77842531  0.19881803  0.50005013
   0.94131953  0.29890027  0.50014791
   0.88587102  0.39921086  0.50015249
   0.72074138  0.49976101  0.49982407
   0.77626969  0.39952194  0.49996347
   0.94043646  0.49962473  0.50022456
   0.88709070  0.60032060  0.50015734
   0.72466479  0.70010544  0.49994787
   0.77756043  0.59943078  0.49998053
   0.94277970  0.70071023  0.50016241
   0.88936587  0.80116388  0.50011074
   0.72422060  0.90029249  0.50009770
   0.77955704  0.80080109  0.50007075
   0.94661781  0.90049625  0.50008711
   0.27259942  0.69480589  0.49956261
   0.55347754  0.39806629  0.49930754
   0.44909805  0.79861540  0.49975560
   0.26894779  0.30569675  0.49929608
   0.45296008  0.20119790  0.49937203
   0.36680566  0.49546568  0.49871224
   0.56156468  0.60233424  0.49948865
   0.41269980  0.35381535  0.49882807
   0.41281710  0.64594655  0.49918299
 
 position of ions in cartesian coordinates  (Angst):
   2.95713107  0.02581989  9.90976434
   0.74480793  1.22574746  9.91331496
   1.49225815  0.00873176  9.91225730
   3.67987668  1.29614789  9.90603058
   2.89303908  2.52250802  9.90553049
   0.66251106  3.66980981  9.91500055
   1.44292338  2.46909655  9.91155422
   2.73195406  4.88351980  9.90574029
   0.63412131  6.14696356  9.91786487
   1.33490345  4.90597142  9.91449825
   3.44433054  6.11035882  9.90023209
   2.75761511  7.36430852  9.90820824
   0.68270935  8.62324751  9.91658497
   1.34743235  7.37539931  9.91586407
   2.89990286  9.81244534  9.91018997
   0.74752967 11.07732496  9.91404307
   1.45103175  9.83558390  9.91397871
   3.64700159 11.06223031  9.90963628
   7.25912569 12.27720443  9.91262232
   5.14617156  1.29125782  9.90545884
   5.82659377  0.00478332  9.91012497
   7.99880692  1.20081437  9.91260371
   7.28245838  2.41830110  9.90647632
   7.98631982  3.68348198  9.90552847
   7.93715754  6.14943725  9.90392189
   8.02018177  8.57066809  9.90899722
   7.27266852  9.82526374  9.91086329
   5.10264178 11.04394143  9.90968814
   7.99373780 11.05294509  9.91394674
  11.60043194 12.28139937  9.91536235
   9.43558185  1.20468021  9.91508223
  10.15748470 12.28182136  9.91586293
  12.32619411  1.20885738  9.91519355
  11.57344528  2.42666452  9.91579950
   9.41374971  3.66352439  9.91129822
  10.14295142  2.43200829  9.91461860
  12.26431412  3.66018790  9.91645516
  11.54119634  4.89480086  9.91653195
   9.38919457  6.13418132  9.91005020
  10.11335229  4.90044652  9.91282828
  12.25129417  6.12885768  9.91790236
  11.55556687  7.36817432  9.91655460
   9.43879463  8.59809733  9.91243060
  10.12865770  7.35904907  9.91309338
  12.28030159  8.60191431  9.91659608
  11.58368937  9.83825304  9.91555664
   9.43149686 11.06015039  9.91532887
  10.15314816  9.83561419  9.91480818
  12.32879323 11.05896410  9.91502880
   3.54951289  8.54042509  9.90497634
   7.21091556  4.88624310  9.89991322
   5.84808068  9.81421946  9.90869388
   3.50487835  3.75493914  9.89983469
   5.90290356  2.46668139  9.90130408
   4.77829234  6.08723098  9.88814963
   7.31472974  7.39834428  9.90342667
   5.37725291  4.34435030  9.89047923
   5.37657682  7.93718982  9.89741041
 


--------------------------------------------------------------------------------------------------------


 k-point  1 :   0.2500 0.2500 0.0000  plane waves:   80648
 k-point  2 :  -0.2500 0.2500 0.0000  plane waves:   80668

 maximum and minimum number of plane-waves per node :      2553     2492

 maximum number of plane-waves:     80668
 maximum index in each direction: 
   IXMAX=   24   IYMAX=   22   IZMAX=   36
   IXMIN=  -24   IYMIN=  -22   IZMIN=  -36


 parallel 3D FFT for wavefunctions:
    minimum data exchange during FFTs selected (reduces bandwidth)
 parallel 3D FFT for charge:
    minimum data exchange during FFTs selected (reduces bandwidth)


 FFT grid for exact exchange (Hartree Fock) 
  NGX = 72; NGY = 70; NGZ =112

 
 Radii for the augmentation spheres in the non-local exchange
 for species   1 augmentation radius   0.874 (default was   0.699)
       energy cutoff for augmentation   2000.0
 for species   2 augmentation radius   0.886 (default was   0.709)
       energy cutoff for augmentation   2000.0
 for species   3 augmentation radius   1.307 (default was   1.045)
       energy cutoff for augmentation   2000.0
 for species   4 augmentation radius   1.263 (default was   1.010)
       energy cutoff for augmentation   2000.0

 real space projection operators:
  total allocation   :       2535.39 KBytes
  max/ min on nodes  :        130.75         43.66

 Maximum index for augmentation-charges in exchange          156
  SETUP_FOCK is finished

 total amount of memory used by VASP MPI-rank0   162767. kBytes
=======================================================================

   base      :      30000. kBytes
   nonl-proj :       5326. kBytes
   fftplans  :      13453. kBytes
   grid      :      34560. kBytes
   one-center:         62. kBytes
   HF        :         23. kBytes
   nonlr-proj:       1859. kBytes
   wavefun   :      77484. kBytes
 
     INWAV:  cpu time    3.7293: real time    3.7300
 Broyden mixing: mesh for mixing (old mesh)
   NGX = 47   NGY = 45   NGZ = 73
  (NGX  =192   NGY  =180   NGZ  =300)
  gives a total of 154395 points

 charge density for first step will be calculated from the start-wavefunctions


--------------------------------------------------------------------------------------------------------


 Maximum index for augmentation-charges          217 (set IRDMAX)


--------------------------------------------------------------------------------------------------------


 initial charge from wavefunction
 First call to EWALD:  gamma=   0.121
 Maximum number of real-space cells 3x 3x 2
 Maximum number of reciprocal cells 2x 2x 4

    FEWALD:  cpu time    0.0031: real time    0.0031


--------------------------------------- Iteration      1(   1)  ---------------------------------------


    POTLOK:  cpu time    1.3092: real time    1.3098
    SETDIJ:  cpu time    2.0791: real time    2.0883
    TRIAL :  cpu time  530.3595: real time  530.4295
    CORREC:  cpu time    0.0023: real time    0.0025
    CHARGE:  cpu time    1.6753: real time    1.6754
    --------------------------------------------
      LOOP:  cpu time  535.4414: real time  535.5242

 eigenvalue-minimisations  :     0
 total energy-change (2. order) :-0.6058011E+03  (-0.5015176E+00)
 number of electron     245.0000017 magnetization       4.1189940
 augmentation part       14.9045500 magnetization       2.9014584

 DIPCOR: dipole corrections for dipol
 direction  3 min pos     1,
 dipolmoment          -0.000000      0.000000     -0.000480 electrons x Angstroem
 Tr[quadrupol]     -6583.827957

 energy correction for charged system         0.000000 eV
 dipol+quadrupol energy correction            0.000000 eV
 added-field ion interaction          0.000000 eV  (added to PSCEN)


 Free energy of the ion-electron system (eV)
  ---------------------------------------------------
  alpha Z        PSCENC =        99.29574362
  Ewald energy   TEWEN  =     38792.67881171
  -Hartree energ DENC   =    -47430.50540061
  -exchange      EXHF   =       553.97616847
  -V(xc)+E(xc)   XCENC  =       624.65826449
  PAW double counting   =     26284.81701574   -26372.38840693
  entropy T*S    EENTRO =        -0.03259422
  eigenvalues    EBANDS =     -3162.82665881
  atomic energy  EATOM  =     10004.52798163
  ---------------------------------------------------
  free energy    TOTEN  =      -605.80105614 eV

  energy without entropy =     -605.76846193  energy(sigma->0) =     -605.78475904
  exchange ACFDT corr.  =        -0.02810995  see jH, gK, PRB 81, 115126


--------------------------------------------------------------------------------------------------------




--------------------------------------- Iteration      1(   2)  ---------------------------------------


    POTLOK:  cpu time    1.3147: real time    1.3150
    SETDIJ:  cpu time    2.0887: real time    2.0888
    TRIAL :  cpu time  528.0922: real time  528.1895
    CORREC:  cpu time    0.0023: real time    0.0025
    CHARGE:  cpu time    1.6772: real time    1.6774
    --------------------------------------------
      LOOP:  cpu time  533.1785: real time  533.2779

 eigenvalue-minimisations  :     0
 total energy-change (2. order) :-0.4110039E+00  (-0.4572048E+00)
 number of electron     245.0000018 magnetization       4.1425814
 augmentation part       14.8830545 magnetization       2.9701226

 DIPCOR: dipole corrections for dipol
 direction  3 min pos     1,
 dipolmoment          -0.000000      0.000000     -0.001017 electrons x Angstroem
 Tr[quadrupol]     -6583.657008

 energy correction for charged system         0.000000 eV
 dipol+quadrupol energy correction            0.000000 eV
 added-field ion interaction          0.000000 eV  (added to PSCEN)


 Free energy of the ion-electron system (eV)
  ---------------------------------------------------
  alpha Z        PSCENC =        99.29574364
  Ewald energy   TEWEN  =     38792.67881171
  -Hartree energ DENC   =    -47416.87806616
  -exchange      EXHF   =       553.91029565
  -V(xc)+E(xc)   XCENC  =       624.32343227
  PAW double counting   =     26408.62334550   -26496.45685039
  entropy T*S    EENTRO =        -0.03094007
  eigenvalues    EBANDS =     -3176.20415964
  atomic energy  EATOM  =     10004.52798163
  ---------------------------------------------------
  free energy    TOTEN  =      -606.21206002 eV

  energy without entropy =     -606.18111994  energy(sigma->0) =     -606.19658998
  exchange ACFDT corr.  =        -0.02555135  see jH, gK, PRB 81, 115126


--------------------------------------------------------------------------------------------------------




--------------------------------------- Iteration      1(   3)  ---------------------------------------


    POTLOK:  cpu time    1.3233: real time    1.3235
    SETDIJ:  cpu time    2.0866: real time    2.0869
    TRIAL :  cpu time  525.7300: real time  525.8897
    CORREC:  cpu time    0.0022: real time    0.0024
    CHARGE:  cpu time    1.6596: real time    1.6597
    --------------------------------------------
      LOOP:  cpu time  530.8042: real time  530.9664

 eigenvalue-minimisations  :     0
 total energy-change (2. order) :-0.3555361E+00  (-0.2732820E+00)
 number of electron     245.0000018 magnetization       4.1578569
 augmentation part       14.8658532 magnetization       3.0280296

 DIPCOR: dipole corrections for dipol
 direction  3 min pos     1,
 dipolmoment          -0.000000      0.000000     -0.001002 electrons x Angstroem
 Tr[quadrupol]     -6583.476983

 energy correction for charged system         0.000000 eV
 dipol+quadrupol energy correction            0.000000 eV
 added-field ion interaction          0.000000 eV  (added to PSCEN)


 Free energy of the ion-electron system (eV)
  ---------------------------------------------------
  alpha Z        PSCENC =        99.29574364
  Ewald energy   TEWEN  =     38792.67881171
  -Hartree energ DENC   =    -47401.08508674
  -exchange      EXHF   =       553.89636275
  -V(xc)+E(xc)   XCENC  =       623.95264567
  PAW double counting   =     26565.50741404   -26653.09441734
  entropy T*S    EENTRO =        -0.02994650
  eigenvalues    EBANDS =     -3192.21611144
  atomic energy  EATOM  =     10004.52798163
  ---------------------------------------------------
  free energy    TOTEN  =      -606.56759616 eV

  energy without entropy =     -606.53764965  energy(sigma->0) =     -606.55262290
  exchange ACFDT corr.  =        -0.02203569  see jH, gK, PRB 81, 115126


--------------------------------------------------------------------------------------------------------




--------------------------------------- Iteration      1(   4)  ---------------------------------------


    POTLOK:  cpu time    1.3219: real time    1.3221
    SETDIJ:  cpu time    2.0858: real time    2.0860
    TRIAL :  cpu time  524.0047: real time  524.0882
    CORREC:  cpu time    0.0022: real time    0.0024
    CHARGE:  cpu time    1.6566: real time    1.6569
    --------------------------------------------
      LOOP:  cpu time  529.0735: real time  529.1580

 eigenvalue-minimisations  :     0
 total energy-change (2. order) :-0.2109010E+00  (-0.1603800E+00)
 number of electron     245.0000018 magnetization       4.1702297
 augmentation part       14.8630445 magnetization       3.0690521

 DIPCOR: dipole corrections for dipol
 direction  3 min pos     1,
 dipolmoment          -0.000000      0.000000     -0.000762 electrons x Angstroem
 Tr[quadrupol]     -6583.399728

 energy correction for charged system         0.000000 eV
 dipol+quadrupol energy correction            0.000000 eV
 added-field ion interaction          0.000000 eV  (added to PSCEN)


 Free energy of the ion-electron system (eV)
  ---------------------------------------------------
  alpha Z        PSCENC =        99.29574363
  Ewald energy   TEWEN  =     38792.67881171
  -Hartree energ DENC   =    -47392.97584209
  -exchange      EXHF   =       554.05726771
  -V(xc)+E(xc)   XCENC  =       623.78638790
  PAW double counting   =     26702.71271317   -26790.04494431
  entropy T*S    EENTRO =        -0.02924154
  eigenvalues    EBANDS =     -3200.78666999
  atomic energy  EATOM  =     10004.52798163
  ---------------------------------------------------
  free energy    TOTEN  =      -606.77849716 eV

  energy without entropy =     -606.74925562  energy(sigma->0) =     -606.76387639
  exchange ACFDT corr.  =        -0.02010649  see jH, gK, PRB 81, 115126


--------------------------------------------------------------------------------------------------------




--------------------------------------- Iteration      1(   5)  ---------------------------------------


    POTLOK:  cpu time    1.3217: real time    1.3218
    SETDIJ:  cpu time    2.0837: real time    2.0838
    TRIAL :  cpu time  525.2594: real time  525.3366
    CORREC:  cpu time    0.0023: real time    0.0025
    CHARGE:  cpu time    1.6686: real time    1.6688
    --------------------------------------------
      LOOP:  cpu time  530.3379: real time  530.4158

 eigenvalue-minimisations  :     0
 total energy-change (2. order) :-0.1300854E+00  (-0.1054143E+00)
 number of electron     245.0000018 magnetization       4.1776804
 augmentation part       14.8684496 magnetization       3.0960152

 DIPCOR: dipole corrections for dipol
 direction  3 min pos     1,
 dipolmoment          -0.000000      0.000000     -0.000547 electrons x Angstroem
 Tr[quadrupol]     -6583.422939

 energy correction for charged system         0.000000 eV
 dipol+quadrupol energy correction            0.000000 eV
 added-field ion interaction          0.000000 eV  (added to PSCEN)


 Free energy of the ion-electron system (eV)
  ---------------------------------------------------
  alpha Z        PSCENC =        99.29574362
  Ewald energy   TEWEN  =     38792.67881171
  -Hartree energ DENC   =    -47393.33428069
  -exchange      EXHF   =       554.35860791
  -V(xc)+E(xc)   XCENC  =       623.83382024
  PAW double counting   =     26804.43240013   -26891.80541533
  entropy T*S    EENTRO =        -0.02859473
  eigenvalues    EBANDS =     -3200.86701027
  atomic energy  EATOM  =     10004.52798163
  ---------------------------------------------------
  free energy    TOTEN  =      -606.90858258 eV

  energy without entropy =     -606.87998786  energy(sigma->0) =     -606.89428522
  exchange ACFDT corr.  =        -0.01870437  see jH, gK, PRB 81, 115126


--------------------------------------------------------------------------------------------------------




--------------------------------------- Iteration      1(   6)  ---------------------------------------


    POTLOK:  cpu time    1.3222: real time    1.3223
    SETDIJ:  cpu time    2.0843: real time    2.0845
    TRIAL :  cpu time  525.3743: real time  525.4683
    CORREC:  cpu time    0.0023: real time    0.0025
    CHARGE:  cpu time    1.6454: real time    1.6456
    --------------------------------------------
      LOOP:  cpu time  530.4312: real time  530.5258

 eigenvalue-minimisations  :     0
 total energy-change (2. order) :-0.8817312E-01  (-0.7098478E-01)
 number of electron     245.0000018 magnetization       4.1802428
 augmentation part       14.8744329 magnetization       3.1141211

 DIPCOR: dipole corrections for dipol
 direction  3 min pos     1,
 dipolmoment          -0.000000      0.000000     -0.000443 electrons x Angstroem
 Tr[quadrupol]     -6583.484200

 energy correction for charged system         0.000000 eV
 dipol+quadrupol energy correction            0.000000 eV
 added-field ion interaction          0.000000 eV  (added to PSCEN)


 Free energy of the ion-electron system (eV)
  ---------------------------------------------------
  alpha Z        PSCENC =        99.29574362
  Ewald energy   TEWEN  =     38792.67881171
  -Hartree energ DENC   =    -47397.33351350
  -exchange      EXHF   =       554.68154876
  -V(xc)+E(xc)   XCENC  =       623.97164963
  PAW double counting   =     26871.83161317   -26959.36500221
  entropy T*S    EENTRO =        -0.02796604
  eigenvalues    EBANDS =     -3197.25699377
  atomic energy  EATOM  =     10004.52798163
  ---------------------------------------------------
  free energy    TOTEN  =      -606.99675570 eV

  energy without entropy =     -606.96878967  energy(sigma->0) =     -606.98277268
  exchange ACFDT corr.  =        -0.01761627  see jH, gK, PRB 81, 115126


--------------------------------------------------------------------------------------------------------




--------------------------------------- Iteration      1(   7)  ---------------------------------------


    POTLOK:  cpu time    1.3186: real time    1.3187
    SETDIJ:  cpu time    2.1125: real time    2.1127
    TRIAL :  cpu time  525.7594: real time  525.8526
    CORREC:  cpu time    0.0022: real time    0.0024
    CHARGE:  cpu time    1.6514: real time    1.6515
    --------------------------------------------
      LOOP:  cpu time  530.8466: real time  530.9403

 eigenvalue-minimisations  :     0
 total energy-change (2. order) :-0.6068317E-01  (-0.4847711E-01)
 number of electron     245.0000018 magnetization       4.1798025
 augmentation part       14.8785630 magnetization       3.1272364

 DIPCOR: dipole corrections for dipol
 direction  3 min pos     1,
 dipolmoment          -0.000000      0.000000     -0.000408 electrons x Angstroem
 Tr[quadrupol]     -6583.537082

 energy correction for charged system         0.000000 eV
 dipol+quadrupol energy correction            0.000000 eV
 added-field ion interaction          0.000000 eV  (added to PSCEN)


 Free energy of the ion-electron system (eV)
  ---------------------------------------------------
  alpha Z        PSCENC =        99.29574362
  Ewald energy   TEWEN  =     38792.67881171
  -Hartree energ DENC   =    -47401.10240776
  -exchange      EXHF   =       554.94543167
  -V(xc)+E(xc)   XCENC  =       624.10264169
  PAW double counting   =     26912.56347256   -27000.20547400
  entropy T*S    EENTRO =        -0.02738677
  eigenvalues    EBANDS =     -3193.83567395
  atomic energy  EATOM  =     10004.52798163
  ---------------------------------------------------
  free energy    TOTEN  =      -607.05743887 eV

  energy without entropy =     -607.03005210  energy(sigma->0) =     -607.04374548
  exchange ACFDT corr.  =        -0.01674699  see jH, gK, PRB 81, 115126


--------------------------------------------------------------------------------------------------------




--------------------------------------- Iteration      1(   8)  ---------------------------------------


    POTLOK:  cpu time    1.3183: real time    1.3185
    SETDIJ:  cpu time    2.0852: real time    2.0853
    TRIAL :  cpu time  525.5688: real time  525.6472
    CORREC:  cpu time    0.0023: real time    0.0025
    CHARGE:  cpu time    1.6512: real time    1.6512
    --------------------------------------------
      LOOP:  cpu time  530.6286: real time  530.7094

 eigenvalue-minimisations  :     0
 total energy-change (2. order) :-0.4213900E-01  (-0.3369349E-01)
 number of electron     245.0000018 magnetization       4.1779000
 augmentation part       14.8816687 magnetization       3.1375195

 DIPCOR: dipole corrections for dipol
 direction  3 min pos     1,
 dipolmoment          -0.000000      0.000000     -0.000410 electrons x Angstroem
 Tr[quadrupol]     -6583.566447

 energy correction for charged system         0.000000 eV
 dipol+quadrupol energy correction            0.000000 eV
 added-field ion interaction          0.000000 eV  (added to PSCEN)


 Free energy of the ion-electron system (eV)
  ---------------------------------------------------
  alpha Z        PSCENC =        99.29574362
  Ewald energy   TEWEN  =     38792.67881171
  -Hartree energ DENC   =    -47403.31135651
  -exchange      EXHF   =       555.12968657
  -V(xc)+E(xc)   XCENC  =       624.19164848
  PAW double counting   =     26935.08445588   -27022.77256218
  entropy T*S    EENTRO =        -0.02687759
  eigenvalues    EBANDS =     -3191.89660028
  atomic energy  EATOM  =     10004.52798163
  ---------------------------------------------------
  free energy    TOTEN  =      -607.09957786 eV

  energy without entropy =     -607.07270027  energy(sigma->0) =     -607.08613907
  exchange ACFDT corr.  =        -0.01605758  see jH, gK, PRB 81, 115126


--------------------------------------------------------------------------------------------------------




--------------------------------------- Iteration      1(   9)  ---------------------------------------


    POTLOK:  cpu time    1.3150: real time    1.3152
    SETDIJ:  cpu time    2.0891: real time    2.0892
    TRIAL :  cpu time  525.4483: real time  525.5387
    CORREC:  cpu time    0.0022: real time    0.0025
    CHARGE:  cpu time    1.6507: real time    1.6511
    --------------------------------------------
      LOOP:  cpu time  530.5077: real time  530.5991

 eigenvalue-minimisations  :     0
 total energy-change (2. order) :-0.2973839E-01  (-0.2399215E-01)
 number of electron     245.0000018 magnetization       4.1753116
 augmentation part       14.8843336 magnetization       3.1461104

 DIPCOR: dipole corrections for dipol
 direction  3 min pos     1,
 dipolmoment          -0.000000      0.000000     -0.000430 electrons x Angstroem
 Tr[quadrupol]     -6583.576721

 energy correction for charged system         0.000000 eV
 dipol+quadrupol energy correction            0.000000 eV
 added-field ion interaction          0.000000 eV  (added to PSCEN)


 Free energy of the ion-electron system (eV)
  ---------------------------------------------------
  alpha Z        PSCENC =        99.29574362
  Ewald energy   TEWEN  =     38792.67881171
  -Hartree energ DENC   =    -47404.21741008
  -exchange      EXHF   =       555.24948128
  -V(xc)+E(xc)   XCENC  =       624.24284105
  PAW double counting   =     26946.66143195   -27034.38930038
  entropy T*S    EENTRO =        -0.02643994
  eigenvalues    EBANDS =     -3191.15201944
  atomic energy  EATOM  =     10004.52798163
  ---------------------------------------------------
  free energy    TOTEN  =      -607.12931626 eV

  energy without entropy =     -607.10287631  energy(sigma->0) =     -607.11609629
  exchange ACFDT corr.  =        -0.01551532  see jH, gK, PRB 81, 115126


--------------------------------------------------------------------------------------------------------




--------------------------------------- Iteration      1(  10)  ---------------------------------------


    POTLOK:  cpu time    1.3115: real time    1.3116
    SETDIJ:  cpu time    2.1128: real time    2.1132
    TRIAL :  cpu time  524.6483: real time  524.7227
    CORREC:  cpu time    0.0023: real time    0.0025
    CHARGE:  cpu time    1.6477: real time    1.6479
    --------------------------------------------
      LOOP:  cpu time  529.7248: real time  529.8001

 eigenvalue-minimisations  :     0
 total energy-change (2. order) :-0.2142860E-01  (-0.1734767E-01)
 number of electron     245.0000018 magnetization       4.1724110
 augmentation part       14.8863434 magnetization       3.1535905

 DIPCOR: dipole corrections for dipol
 direction  3 min pos     1,
 dipolmoment          -0.000000      0.000000     -0.000448 electrons x Angstroem
 Tr[quadrupol]     -6583.577289

 energy correction for charged system         0.000000 eV
 dipol+quadrupol energy correction            0.000000 eV
 added-field ion interaction          0.000000 eV  (added to PSCEN)


 Free energy of the ion-electron system (eV)
  ---------------------------------------------------
  alpha Z        PSCENC =        99.29574362
  Ewald energy   TEWEN  =     38792.67881171
  -Hartree energ DENC   =    -47404.43474982
  -exchange      EXHF   =       555.32843624
  -V(xc)+E(xc)   XCENC  =       624.27110216
  PAW double counting   =     26952.24968036   -27040.03131229
  entropy T*S    EENTRO =        -0.02606782
  eigenvalues    EBANDS =     -3191.00999851
  atomic energy  EATOM  =     10004.52798163
  ---------------------------------------------------
  free energy    TOTEN  =      -607.15074485 eV

  energy without entropy =     -607.12467703  energy(sigma->0) =     -607.13771094
  exchange ACFDT corr.  =        -0.01508754  see jH, gK, PRB 81, 115126


--------------------------------------------------------------------------------------------------------




--------------------------------------- Iteration      1(  11)  ---------------------------------------


    POTLOK:  cpu time    1.3078: real time    1.3078
    SETDIJ:  cpu time    2.0839: real time    2.0841
    TRIAL :  cpu time  525.1234: real time  525.2018
    CORREC:  cpu time    0.0023: real time    0.0025
    CHARGE:  cpu time    1.6450: real time    1.6452
    --------------------------------------------
      LOOP:  cpu time  530.1645: real time  530.2436

 eigenvalue-minimisations  :     0
 total energy-change (2. order) :-0.1563993E-01  (-0.1271151E-01)
 number of electron     245.0000018 magnetization       4.1694072
 augmentation part       14.8876100 magnetization       3.1601800

 DIPCOR: dipole corrections for dipol
 direction  3 min pos     1,
 dipolmoment          -0.000000      0.000000     -0.000451 electrons x Angstroem
 Tr[quadrupol]     -6583.575315

 energy correction for charged system         0.000000 eV
 dipol+quadrupol energy correction            0.000000 eV
 added-field ion interaction          0.000000 eV  (added to PSCEN)


 Free energy of the ion-electron system (eV)
  ---------------------------------------------------
  alpha Z        PSCENC =        99.29574362
  Ewald energy   TEWEN  =     38792.67881171
  -Hartree energ DENC   =    -47404.40977342
  -exchange      EXHF   =       555.38529955
  -V(xc)+E(xc)   XCENC  =       624.28866200
  PAW double counting   =     26954.82670262   -27042.65867919
  entropy T*S    EENTRO =        -0.02575308
  eigenvalues    EBANDS =     -3191.07506548
  atomic energy  EATOM  =     10004.52798163
  ---------------------------------------------------
  free energy    TOTEN  =      -607.16638479 eV

  energy without entropy =     -607.14063171  energy(sigma->0) =     -607.15350825
  exchange ACFDT corr.  =        -0.01474714  see jH, gK, PRB 81, 115126


--------------------------------------------------------------------------------------------------------




--------------------------------------- Iteration      1(  12)  ---------------------------------------


    POTLOK:  cpu time    1.3073: real time    1.3073
    SETDIJ:  cpu time    2.0826: real time    2.0827
    TRIAL :  cpu time  526.1087: real time  526.1698
    CORREC:  cpu time    0.0022: real time    0.0025
    CHARGE:  cpu time    1.6482: real time    1.6483
    --------------------------------------------
      LOOP:  cpu time  531.1513: real time  531.2128

 eigenvalue-minimisations  :     0
 total energy-change (2. order) :-0.1156212E-01  (-0.9445796E-02)
 number of electron     245.0000018 magnetization       4.1664085
 augmentation part       14.8885056 magnetization       3.1658936

 DIPCOR: dipole corrections for dipol
 direction  3 min pos     1,
 dipolmoment          -0.000000      0.000000     -0.000442 electrons x Angstroem
 Tr[quadrupol]     -6583.574177

 energy correction for charged system         0.000000 eV
 dipol+quadrupol energy correction            0.000000 eV
 added-field ion interaction          0.000000 eV  (added to PSCEN)


 Free energy of the ion-electron system (eV)
  ---------------------------------------------------
  alpha Z        PSCENC =        99.29574362
  Ewald energy   TEWEN  =     38792.67881171
  -Hartree energ DENC   =    -47404.36761379
  -exchange      EXHF   =       555.43098780
  -V(xc)+E(xc)   XCENC  =       624.30245181
  PAW double counting   =     26956.17618432   -27044.04105186
  entropy T*S    EENTRO =        -0.02548619
  eigenvalues    EBANDS =     -3191.15568905
  atomic energy  EATOM  =     10004.52798163
  ---------------------------------------------------
  free energy    TOTEN  =      -607.17794691 eV

  energy without entropy =     -607.15246071  energy(sigma->0) =     -607.16520381
  exchange ACFDT corr.  =        -0.01447385  see jH, gK, PRB 81, 115126


--------------------------------------------------------------------------------------------------------




--------------------------------------- Iteration      1(  13)  ---------------------------------------


    POTLOK:  cpu time    1.3034: real time    1.3036
    SETDIJ:  cpu time    2.0829: real time    2.0831
    TRIAL :  cpu time  526.5951: real time  526.6647
    CORREC:  cpu time    0.0022: real time    0.0024
    CHARGE:  cpu time    1.6465: real time    1.6466
    --------------------------------------------
      LOOP:  cpu time  531.6324: real time  531.7026

 eigenvalue-minimisations  :     0
 total energy-change (2. order) :-0.8653954E-02  (-0.7089111E-02)
 number of electron     245.0000018 magnetization       4.1634653
 augmentation part       14.8894143 magnetization       3.1707585

 DIPCOR: dipole corrections for dipol
 direction  3 min pos     1,
 dipolmoment          -0.000000      0.000000     -0.000430 electrons x Angstroem
 Tr[quadrupol]     -6583.574539

 energy correction for charged system         0.000000 eV
 dipol+quadrupol energy correction            0.000000 eV
 added-field ion interaction          0.000000 eV  (added to PSCEN)


 Free energy of the ion-electron system (eV)
  ---------------------------------------------------
  alpha Z        PSCENC =        99.29574362
  Ewald energy   TEWEN  =     38792.67881171
  -Hartree energ DENC   =    -47404.39096525
  -exchange      EXHF   =       555.47039826
  -V(xc)+E(xc)   XCENC  =       624.31532175
  PAW double counting   =     26957.42520840   -27045.31142621
  entropy T*S    EENTRO =        -0.02525789
  eigenvalues    EBANDS =     -3191.17218857
  atomic energy  EATOM  =     10004.52798163
  ---------------------------------------------------
  free energy    TOTEN  =      -607.18660086 eV

  energy without entropy =     -607.16134297  energy(sigma->0) =     -607.17397192
  exchange ACFDT corr.  =        -0.01425222  see jH, gK, PRB 81, 115126


--------------------------------------------------------------------------------------------------------




--------------------------------------- Iteration      1(  14)  ---------------------------------------


    POTLOK:  cpu time    1.3037: real time    1.3038
    SETDIJ:  cpu time    2.1131: real time    2.1134
    TRIAL :  cpu time  525.6674: real time  525.7333
    CORREC:  cpu time    0.0020: real time    0.0023
    CHARGE:  cpu time    1.6493: real time    1.6495
    --------------------------------------------
      LOOP:  cpu time  530.7377: real time  530.8044

 eigenvalue-minimisations  :     0
 total energy-change (2. order) :-0.6534780E-02  (-0.5372520E-02)
 number of electron     245.0000018 magnetization       4.1606106
 augmentation part       14.8903557 magnetization       3.1748526

 DIPCOR: dipole corrections for dipol
 direction  3 min pos     1,
 dipolmoment          -0.000000      0.000000     -0.000423 electrons x Angstroem
 Tr[quadrupol]     -6583.575938

 energy correction for charged system         0.000000 eV
 dipol+quadrupol energy correction            0.000000 eV
 added-field ion interaction          0.000000 eV  (added to PSCEN)


 Free energy of the ion-electron system (eV)
  ---------------------------------------------------
  alpha Z        PSCENC =        99.29574362
  Ewald energy   TEWEN  =     38792.67881171
  -Hartree energ DENC   =    -47404.48530468
  -exchange      EXHF   =       555.50510025
  -V(xc)+E(xc)   XCENC  =       624.32778156
  PAW double counting   =     26958.95148910   -27046.85905143
  entropy T*S    EENTRO =        -0.02506093
  eigenvalues    EBANDS =     -3191.11042951
  atomic energy  EATOM  =     10004.52798163
  ---------------------------------------------------
  free energy    TOTEN  =      -607.19313564 eV

  energy without entropy =     -607.16807471  energy(sigma->0) =     -607.18060518
  exchange ACFDT corr.  =        -0.01407030  see jH, gK, PRB 81, 115126


--------------------------------------------------------------------------------------------------------




--------------------------------------- Iteration      1(  15)  ---------------------------------------


    POTLOK:  cpu time    1.3008: real time    1.3009
    SETDIJ:  cpu time    2.0807: real time    2.0808
    TRIAL :  cpu time  526.3615: real time  526.4325
    CORREC:  cpu time    0.0022: real time    0.0025
    CHARGE:  cpu time    1.6468: real time    1.6470
    --------------------------------------------
      LOOP:  cpu time  531.3941: real time  531.4657

 eigenvalue-minimisations  :     0
 total energy-change (2. order) :-0.4978169E-02  (-0.4113492E-02)
 number of electron     245.0000018 magnetization       4.1578734
 augmentation part       14.8911351 magnetization       3.1782860

 DIPCOR: dipole corrections for dipol
 direction  3 min pos     1,
 dipolmoment          -0.000000      0.000000     -0.000421 electrons x Angstroem
 Tr[quadrupol]     -6583.577564

 energy correction for charged system         0.000000 eV
 dipol+quadrupol energy correction            0.000000 eV
 added-field ion interaction          0.000000 eV  (added to PSCEN)


 Free energy of the ion-electron system (eV)
  ---------------------------------------------------
  alpha Z        PSCENC =        99.29574362
  Ewald energy   TEWEN  =     38792.67881171
  -Hartree energ DENC   =    -47404.60498693
  -exchange      EXHF   =       555.53524472
  -V(xc)+E(xc)   XCENC  =       624.33915153
  PAW double counting   =     26960.78585458   -27048.71636580
  entropy T*S    EENTRO =        -0.02489020
  eigenvalues    EBANDS =     -3191.01448794
  atomic energy  EATOM  =     10004.52798163
  ---------------------------------------------------
  free energy    TOTEN  =      -607.19811381 eV

  energy without entropy =     -607.17322361  energy(sigma->0) =     -607.18566871
  exchange ACFDT corr.  =        -0.01391923  see jH, gK, PRB 81, 115126


--------------------------------------------------------------------------------------------------------




--------------------------------------- Iteration      1(  16)  ---------------------------------------


    POTLOK:  cpu time    1.2983: real time    1.2984
    SETDIJ:  cpu time    2.1067: real time    2.1068
    TRIAL :  cpu time  526.8971: real time  526.9609
    CORREC:  cpu time    0.0022: real time    0.0024
    CHARGE:  cpu time    1.6484: real time    1.6485
    --------------------------------------------
      LOOP:  cpu time  531.9553: real time  532.0196

 eigenvalue-minimisations  :     0
 total energy-change (2. order) :-0.3828421E-02  (-0.3183253E-02)
 number of electron     245.0000018 magnetization       4.1552722
 augmentation part       14.8916823 magnetization       3.1811643

 DIPCOR: dipole corrections for dipol
 direction  3 min pos     1,
 dipolmoment          -0.000000      0.000000     -0.000420 electrons x Angstroem
 Tr[quadrupol]     -6583.578836

 energy correction for charged system         0.000000 eV
 dipol+quadrupol energy correction            0.000000 eV
 added-field ion interaction          0.000000 eV  (added to PSCEN)


 Free energy of the ion-electron system (eV)
  ---------------------------------------------------
  alpha Z        PSCENC =        99.29574362
  Ewald energy   TEWEN  =     38792.67881171
  -Hartree energ DENC   =    -47404.70277073
  -exchange      EXHF   =       555.56090396
  -V(xc)+E(xc)   XCENC  =       624.34877691
  PAW double counting   =     26962.76546296   -27050.71502682
  entropy T*S    EENTRO =        -0.02474170
  eigenvalues    EBANDS =     -3190.93693525
  atomic energy  EATOM  =     10004.52798163
  ---------------------------------------------------
  free energy    TOTEN  =      -607.20194223 eV

  energy without entropy =     -607.17720053  energy(sigma->0) =     -607.18957138
  exchange ACFDT corr.  =        -0.01379263  see jH, gK, PRB 81, 115126


--------------------------------------------------------------------------------------------------------




--------------------------------------- Iteration      1(  17)  ---------------------------------------


    POTLOK:  cpu time    1.2976: real time    1.2977
    SETDIJ:  cpu time    2.1110: real time    2.1112
    TRIAL :  cpu time  527.0736: real time  527.1504
    CORREC:  cpu time    0.0023: real time    0.0025
    CHARGE:  cpu time    1.6460: real time    1.6462
    --------------------------------------------
      LOOP:  cpu time  532.1329: real time  532.2104

 eigenvalue-minimisations  :     0
 total energy-change (2. order) :-0.2974216E-02  (-0.2488127E-02)
 number of electron     245.0000018 magnetization       4.1528154
 augmentation part       14.8921229 magnetization       3.1835841

 DIPCOR: dipole corrections for dipol
 direction  3 min pos     1,
 dipolmoment          -0.000000      0.000000     -0.000421 electrons x Angstroem
 Tr[quadrupol]     -6583.579562

 energy correction for charged system         0.000000 eV
 dipol+quadrupol energy correction            0.000000 eV
 added-field ion interaction          0.000000 eV  (added to PSCEN)


 Free energy of the ion-electron system (eV)
  ---------------------------------------------------
  alpha Z        PSCENC =        99.29574362
  Ewald energy   TEWEN  =     38792.67881171
  -Hartree energ DENC   =    -47404.76384542
  -exchange      EXHF   =       555.58261988
  -V(xc)+E(xc)   XCENC  =       624.35667531
  PAW double counting   =     26964.68624281   -27052.64866167
  entropy T*S    EENTRO =        -0.02461198
  eigenvalues    EBANDS =     -3190.89574260
  atomic energy  EATOM  =     10004.52798163
  ---------------------------------------------------
  free energy    TOTEN  =      -607.20491645 eV

  energy without entropy =     -607.18030447  energy(sigma->0) =     -607.19261046
  exchange ACFDT corr.  =        -0.01368570  see jH, gK, PRB 81, 115126


--------------------------------------------------------------------------------------------------------




--------------------------------------- Iteration      1(  18)  ---------------------------------------


    POTLOK:  cpu time    1.2984: real time    1.2985
    SETDIJ:  cpu time    2.1095: real time    2.1096
    TRIAL :  cpu time  525.5821: real time  525.6457
    CORREC:  cpu time    0.0019: real time    0.0021
    CHARGE:  cpu time    1.6460: real time    1.6462
    --------------------------------------------
      LOOP:  cpu time  530.6403: real time  530.7045

 eigenvalue-minimisations  :     0
 total energy-change (2. order) :-0.2332922E-02  (-0.1964183E-02)
 number of electron     245.0000018 magnetization       4.1505089
 augmentation part       14.8925587 magnetization       3.1856259

 DIPCOR: dipole corrections for dipol
 direction  3 min pos     1,
 dipolmoment          -0.000000      0.000000     -0.000421 electrons x Angstroem
 Tr[quadrupol]     -6583.579904

 energy correction for charged system         0.000000 eV
 dipol+quadrupol energy correction            0.000000 eV
 added-field ion interaction          0.000000 eV  (added to PSCEN)


 Free energy of the ion-electron system (eV)
  ---------------------------------------------------
  alpha Z        PSCENC =        99.29574362
  Ewald energy   TEWEN  =     38792.67881171
  -Hartree energ DENC   =    -47404.80524078
  -exchange      EXHF   =       555.60127390
  -V(xc)+E(xc)   XCENC  =       624.36341997
  PAW double counting   =     26966.43454680   -27054.40717577
  entropy T*S    EENTRO =        -0.02449819
[...]
  augment   169.93967   158.88714   178.19543    -1.82270     0.09747     0.03847
  Kinetic  3620.70840  3592.63351  4088.38067    -2.45620     0.06785     0.18127
  Fock     -337.53484  -331.21882  -317.15000    -0.58749    -0.00716     0.00268
  -------------------------------------------------------------------------------------
  Total     -43.56274   -44.03480    -0.41571    -0.46061     0.01383     0.01894
  in kB     -21.96963   -22.20770    -0.20965    -0.23229     0.00697     0.00955
  external pressure =      -14.80 kB  Pullay stress =        0.00 kB


 VOLUME and BASIS-vectors are now :
 -----------------------------------------------------------------------------
  energy-cutoff  :      500.00
  volume of cell :     3176.90
      direct lattice vectors                 reciprocal lattice vectors
    13.027582906 -0.016602094 -0.000404497     0.076760269  0.000047144 -0.000026731
    -0.007553594 12.298726021 -0.000363586     0.000103619  0.081309298  0.000002233
     0.006905315 -0.000553357 19.828023749     0.000001568  0.000001492  0.050433669

  length of vectors
    13.027593491 12.298728346 19.828024959     0.076760288  0.081309364  0.050433669


 FORCES acting on ions:
    Electron-Ion                     Ewald-Force                    Non-Local-Force
 -----------------------------------------------------------------------------------------------
   0.965E+00 0.368E+01 -.715E-01   -.336E+00 -.407E+01 0.753E-01   -.460E+00 0.290E+00 -.566E-02
   0.307E+01 0.917E+01 -.449E+00   -.308E+01 -.965E+01 0.449E+00   0.415E-02 0.399E+00 -.694E-03
   -.109E+02 0.551E+01 -.191E+00   0.111E+02 -.572E+01 0.186E+00   -.247E+00 0.211E+00 0.536E-02
   0.254E+01 0.179E+02 0.642E+00   -.235E+01 -.181E+02 -.646E+00   -.141E+00 0.138E+00 0.591E-02
   0.146E+02 0.540E+02 0.513E+00   -.157E+02 -.573E+02 -.499E+00   0.112E+01 0.339E+01 -.110E-01
   0.142E+02 0.139E+02 -.118E+01   -.144E+02 -.140E+02 0.118E+01   0.383E+00 0.148E+00 -.375E-03
   0.375E+01 0.166E+02 -.407E+00   -.384E+01 -.170E+02 0.410E+00   0.677E-01 0.393E+00 -.330E-02
   0.391E+02 -.196E+02 -.123E+00   -.408E+02 0.223E+02 0.140E+00   0.154E+01 -.314E+01 -.172E-01
   0.624E+01 -.429E+01 -.208E+01   -.640E+01 0.484E+01 0.209E+01   0.528E-01 -.394E+00 -.503E-02
   0.226E+02 -.597E+01 -.167E+01   -.230E+02 0.639E+01 0.167E+01   0.521E+00 -.442E+00 -.114E-01
   0.512E+02 -.248E+02 0.109E+01   -.518E+02 0.254E+02 -.110E+01   0.166E+01 -.506E+00 0.403E-02
   0.118E+02 -.221E+02 -.433E+00   -.112E+02 0.234E+02 0.426E+00   -.525E+00 -.820E+00 0.352E-02
   0.196E+01 -.144E+02 -.140E+01   -.152E+01 0.146E+02 0.140E+01   -.293E+00 -.272E+00 -.191E-02
   0.846E+01 -.944E+01 -.178E+01   -.836E+01 0.958E+01 0.178E+01   -.229E+00 -.112E+00 -.509E-02
   -.102E+02 -.131E+02 -.310E+00   0.109E+02 0.126E+02 0.314E+00   -.606E+00 0.397E+00 -.605E-02
   -.114E+01 -.323E+01 -.561E+00   0.142E+01 0.305E+01 0.562E+00   -.243E+00 0.194E+00 -.995E-03
   -.754E+01 -.612E+01 -.776E+00   0.823E+01 0.608E+01 0.774E+00   -.710E+00 -.247E-01 0.605E-03
   -.276E+01 0.607E+01 -.151E+00   0.302E+01 -.677E+01 0.143E+00   -.324E+00 0.753E+00 0.585E-02
   0.449E+01 0.112E+02 -.980E+00   -.467E+01 -.116E+02 0.973E+00   0.148E+00 0.249E+00 0.172E-02
   0.289E+02 0.364E+02 0.459E+00   -.308E+02 -.391E+02 -.450E+00   0.189E+01 0.274E+01 -.774E-02
   0.116E+02 0.138E+02 -.489E+00   -.121E+02 -.145E+02 0.491E+00   0.557E+00 0.730E+00 -.495E-02
   -.133E+02 0.120E+02 -.101E+01   0.136E+02 -.120E+02 0.101E+01   -.238E+00 0.127E+00 -.920E-02
   -.409E+02 0.939E+01 0.108E+00   0.444E+02 -.878E+01 -.100E+00   -.360E+01 -.746E+00 -.809E-02
   -.200E+02 -.372E+01 0.512E+00   0.192E+02 0.592E+01 -.520E+00   0.790E+00 -.179E+01 0.866E-02
   -.116E+01 0.265E+02 0.887E+00   0.182E+01 -.317E+02 -.886E+00   -.566E+00 0.491E+01 0.286E-02
   -.143E+02 -.359E+02 -.226E+00   0.157E+02 0.389E+02 0.242E+00   -.156E+01 -.338E+01 -.187E-01
   0.139E+01 -.706E+01 -.611E+00   -.319E+01 0.783E+01 0.610E+00   0.136E+01 -.570E+00 -.895E-03
   0.110E+02 0.786E+01 -.385E+00   -.111E+02 -.890E+01 0.383E+00   0.902E-01 0.904E+00 -.213E-02
   -.157E+01 -.636E+00 -.112E+01   0.152E+01 0.417E+00 0.112E+01   0.546E-01 0.276E+00 -.530E-02
   0.182E+01 0.207E+01 -.735E+00   -.167E+01 -.212E+01 0.733E+00   -.806E-01 0.605E-01 0.240E-02
   -.730E+00 0.513E+01 -.106E+01   0.866E+00 -.497E+01 0.105E+01   -.134E+00 -.146E+00 -.769E-04
   -.737E+01 0.146E+01 -.108E+01   0.731E+01 -.144E+01 0.108E+01   -.963E-02 -.491E-01 -.378E-02
   -.633E+01 0.229E+01 -.752E+00   0.638E+01 -.237E+01 0.753E+00   -.371E-01 0.457E-01 -.138E-02
   0.163E+01 0.795E+01 -.953E+00   -.183E+01 -.803E+01 0.951E+00   0.193E+00 0.112E+00 0.945E-03
   -.481E+01 0.243E+01 -.378E+00   0.425E+01 -.252E+01 0.379E+00   0.599E+00 0.910E-01 -.872E-03
   -.484E+01 -.183E+00 -.887E+00   0.470E+01 0.296E+00 0.887E+00   0.174E+00 -.111E+00 -.176E-02
   0.342E+01 0.597E+00 -.129E+01   -.390E+01 -.600E+00 0.129E+01   0.372E+00 0.194E-01 -.194E-02
   0.327E+01 0.211E+01 -.131E+01   -.344E+01 -.217E+01 0.131E+01   0.187E+00 0.152E-01 -.101E-02
   -.128E+01 0.418E+01 -.100E+00   0.799E+00 -.463E+01 0.100E+00   0.438E+00 0.446E+00 0.921E-03
   -.130E+01 -.225E+01 -.574E+00   0.107E+01 0.198E+01 0.570E+00   0.190E+00 0.191E+00 0.260E-02
   0.755E+01 -.125E+01 -.170E+01   -.738E+01 0.123E+01 0.170E+01   -.474E-01 0.185E-01 -.223E-02
   0.860E+00 -.525E+01 -.121E+01   -.514E+00 0.532E+01 0.121E+01   -.245E+00 -.117E-01 -.147E-02
   -.821E+01 -.993E+01 -.452E+00   0.886E+01 0.103E+02 0.453E+00   -.482E+00 -.328E+00 0.122E-03
   -.609E+01 0.227E+01 -.517E+00   0.617E+01 -.258E+01 0.515E+00   -.178E+00 0.328E+00 0.177E-02
   -.106E+01 -.282E+01 -.112E+01   0.109E+01 0.287E+01 0.112E+01   -.160E+00 -.954E-01 0.577E-03
   -.848E+00 -.581E+01 -.721E+00   0.903E+00 0.598E+01 0.720E+00   -.670E-01 -.162E+00 0.257E-02
   0.259E+01 -.751E+00 -.101E+01   -.270E+01 0.904E+00 0.101E+01   0.109E+00 -.104E+00 0.940E-03
   -.348E+01 -.218E+01 -.752E+00   0.366E+01 0.255E+01 0.755E+00   -.182E+00 -.374E+00 -.226E-02
   -.814E+01 0.292E+00 -.636E+00   0.834E+01 -.295E+00 0.637E+00   -.230E+00 0.188E-01 0.125E-03
   -.272E+02 -.376E+02 0.884E+00   0.327E+02 0.378E+02 -.945E+00   -.619E+01 -.113E+00 0.626E-01
   -.139E+01 -.324E+02 0.155E+01   -.805E+01 0.317E+02 -.160E+01   0.953E+01 0.520E+00 0.559E-01
   0.350E+02 0.435E+01 -.440E+00   -.387E+02 -.945E+01 0.429E+00   0.405E+01 0.553E+01 0.950E-02
   -.157E+02 0.443E+02 0.243E+01   0.377E+02 -.430E+02 -.264E+01   -.209E+02 -.112E+01 0.198E+00
   0.278E+02 0.136E+02 0.175E+01   -.375E+02 0.446E+01 -.189E+01   0.932E+01 -.171E+02 0.136E+00
   -.795E+02 -.477E+02 0.704E+01   0.998E+02 0.483E+02 -.732E+01   -.198E+02 -.659E+00 0.268E+00
   0.420E+02 0.206E+02 0.131E+01   -.620E+02 -.218E+02 -.140E+01   0.192E+02 0.132E+01 0.842E-01
   -.462E+02 0.114E+02 0.936E+01   0.487E+02 -.860E+01 -.930E+01   -.287E+01 -.345E+01 -.527E-01
   -.108E+02 -.377E+02 0.480E+01   0.808E+01 0.386E+02 -.478E+01   0.310E+01 -.173E+01 -.269E-01
 -----------------------------------------------------------------------------------------------
   0.439E+01 0.134E+02 -.719E+00   -.338E-13 0.995E-13 0.266E-14   -.365E+01 -.128E+02 0.645E+00
 
 
 POSITION                                       TOTAL-FORCE (eV/Angst)
 -----------------------------------------------------------------------------------
      2.95713      0.02582      9.90976         0.148136     -0.086046     -0.002125
      0.74481      1.22575      9.91331         0.006271     -0.061864     -0.000448
      1.49226      0.00873      9.91226        -0.138386      0.014384      0.000584
      3.67988      1.29615      9.90603         0.038133     -0.067116      0.001559
      2.89304      2.52251      9.90553         0.109072      0.304909      0.001933
      0.66251      3.66981      9.91500         0.141111     -0.001740     -0.002426
      1.44292      2.46910      9.91155        -0.029335      0.064268     -0.000137
      2.73195      4.88352      9.90574        -0.020111     -0.537479     -0.001652
      0.63412      6.14696      9.91786        -0.104830      0.137194     -0.004091
      1.33490      4.90597      9.91450         0.189023     -0.060633     -0.005564
      3.44433      6.11036      9.90023         1.146573      0.157252     -0.009806
      2.75762      7.36431      9.90821         0.096042      0.411112     -0.003855
      0.68271      8.62325      9.91658         0.133642     -0.036147     -0.002436
      1.34743      7.37540      9.91586        -0.130084      0.024051     -0.005342
      2.89990      9.81245      9.91019         0.044707     -0.116082     -0.003080
      0.74753     11.07732      9.91404         0.034386      0.024209      0.000071
      1.45103      9.83558      9.91398        -0.059672     -0.061501     -0.001372
      3.64700     11.06223      9.90964        -0.089742      0.098030     -0.001773
      7.25913     12.27720      9.91262        -0.024432     -0.070523     -0.004752
      5.14617      1.29126      9.90546         0.117912      0.178144      0.000931
      5.82659      0.00478      9.91012         0.065414      0.020378     -0.002592
      7.99881      1.20081      9.91260        -0.007561      0.147295     -0.004421
      7.28246      2.41830      9.90648        -0.381416     -0.173593     -0.000270
      7.98632      3.68348      9.90553        -0.023358      0.324743      0.001115
      7.93716      6.14944      9.90392         0.069741     -0.012872      0.003521
      8.02018      8.57067      9.90900        -0.270694     -0.634960     -0.003855
      7.27267      9.82526      9.91086        -0.366528      0.173067     -0.001820
      5.10264     11.04394      9.90969         0.051818     -0.096170     -0.003581
      7.99374     11.05295      9.91395         0.000749      0.066443     -0.003083
     11.60043     12.28140      9.91536         0.072251      0.017338      0.000517
      9.43558      1.20468      9.91508         0.003173      0.006191     -0.002296
     10.15748     12.28182      9.91586        -0.078491     -0.028481     -0.001475
     12.32619      1.20886      9.91519        -0.002906     -0.038695     -0.000458
     11.57345      2.42666      9.91580         0.004771      0.049844     -0.001041
      9.41375      3.66352      9.91130         0.073584      0.018852      0.000212
     10.14295      2.43201      9.91462         0.033297     -0.007752     -0.001411
     12.26431      3.66019      9.91646        -0.096343      0.009284     -0.001548
     11.54120      4.89480      9.91653         0.028034     -0.041467     -0.001690
      9.38919      6.13418      9.91005        -0.014255      0.020518      0.001078
     10.11335      4.90045      9.91283        -0.034501     -0.065787     -0.001063
     12.25129      6.12886      9.91790         0.123750      0.002956     -0.002220
     11.55557      7.36817      9.91655         0.088010      0.049654     -0.000413
      9.43879      8.59810      9.91243         0.137933     -0.017685      0.001149
     10.12866      7.35905      9.91309        -0.111478      0.042376     -0.000352
     12.28030      8.60191      9.91660        -0.139001     -0.045512      0.000443
     11.58369      9.83825      9.91556        -0.012042     -0.010015      0.001505
      9.43150     11.06015      9.91533         0.008348      0.043314     -0.001990
     10.15315      9.83561      9.91481        -0.018257     -0.023722      0.000524
     12.32879     11.05896      9.91503        -0.052546      0.019982      0.001244
      3.54951      8.54043      9.90498        -1.021391      0.011202      0.004803
      7.21092      4.88624      9.89991         0.582420     -0.147192      0.005003
      5.84808      9.81422      9.90869         0.561932      0.700888     -0.000290
      3.50488      3.75494      9.89983        -0.681877      0.085659      0.006917
      5.90290      2.46668      9.90130         0.400663     -0.509692      0.004678
      4.77829      6.08723      9.88815        -1.191368     -0.099315      0.015103
      7.31473      7.39834      9.90343         0.865441      0.296235      0.004646
      5.37725      4.34435      9.89048        -0.196631     -0.263552      0.021118
      5.37658      7.93719      9.89741        -0.079103     -0.204178      0.006070
 -----------------------------------------------------------------------------------
    total drift:                                0.000638      0.006378     -0.002042


--------------------------------------------------------------------------------------------------------



  FREE ENERGIE OF THE ION-ELECTRON SYSTEM (eV)
  ---------------------------------------------------
  free  energy   TOTEN  =      -607.21860612 eV

  energy  without entropy=     -607.19650772  energy(sigma->0) =     -607.20755692
 


--------------------------------------------------------------------------------------------------------


    POTLOK:  cpu time    3.3681: real time    3.3686


--------------------------------------------------------------------------------------------------------


 stress matrix after NEB project (eV)
    -43.56274     -0.45862      0.01894
     -0.46061    -44.03480      0.01410
      0.01855      0.01383     -0.41571
  FORCES: max atom, RMS     1.195596    0.389962
  FORCE total and by dimension    2.969861    1.191368
  Stress total and by dimension   61.946532   44.034802
 writing wavefunctions
     LOOP+:  cpu time34605.2287: real time34617.8570
    4ORBIT:  cpu time    0.0000: real time    0.0000
 


 total charge     
 
# of ion       s       p       d       tot
------------------------------------------
    1        0.854   1.706   0.000   2.559
    2        0.863   1.758   0.000   2.621
    3        0.860   1.740   0.000   2.600
    4        0.844   1.726   0.000   2.570
    5        0.853   1.703   0.000   2.556
    6        0.872   1.775   0.000   2.647
    7        0.863   1.758   0.000   2.621
    8        0.877   1.787   0.000   2.664
    9        0.869   1.795   0.000   2.664
   10        0.877   1.812   0.000   2.689
   11        0.888   1.771   0.000   2.658
   12        0.880   1.787   0.000   2.667
   13        0.867   1.774   0.000   2.641
   14        0.875   1.794   0.000   2.669
   15        0.856   1.732   0.000   2.588
   16        0.863   1.753   0.000   2.615
   17        0.863   1.749   0.000   2.612
   18        0.856   1.723   0.000   2.579
   19        0.867   1.756   0.000   2.623
   20        0.846   1.679   0.000   2.525
   21        0.859   1.730   0.000   2.589
   22        0.868   1.786   0.000   2.653
   23        0.868   1.730   0.000   2.598
   24        0.869   1.752   0.000   2.621
   25        0.851   1.681   0.000   2.532
   26        0.867   1.725   0.000   2.593
   27        0.868   1.750   0.000   2.618
   28        0.855   1.721   0.000   2.577
   29        0.865   1.769   0.000   2.634
   30        0.867   1.766   0.000   2.633
   31        0.867   1.775   0.000   2.642
   32        0.866   1.766   0.000   2.632
   33        0.863   1.761   0.000   2.625
   34        0.869   1.771   0.000   2.640
   35        0.869   1.768   0.000   2.637
   36        0.866   1.777   0.000   2.643
   37        0.868   1.783   0.000   2.651
   38        0.867   1.770   0.000   2.637
   39        0.863   1.756   0.000   2.619
   40        0.867   1.773   0.000   2.640
   41        0.872   1.785   0.000   2.657
   42        0.866   1.779   0.000   2.645
   43        0.870   1.791   0.000   2.661
   44        0.871   1.764   0.000   2.635
   45        0.869   1.767   0.000   2.635
   46        0.866   1.775   0.000   2.641
   47        0.867   1.772   0.000   2.639
   48        0.866   1.772   0.000   2.638
   49        0.864   1.759   0.000   2.623
   50        0.873   1.663   0.000   2.535
   51        0.868   1.634   0.000   2.502
   52        0.868   1.663   0.000   2.531
   53        1.239   2.659   0.000   3.898
   54        1.230   2.644   0.000   3.874
   55        1.255   2.580   0.000   3.835
   56        1.234   2.656   0.000   3.891
   57        0.493   0.609   7.268   8.371
   58        0.497   0.654   6.047   7.198
--------------------------------------------------
tot         50.964 102.912  13.315 167.191
 


 magnetization (x)
 
# of ion       s       p       d       tot
------------------------------------------
    1        0.001   0.007   0.000   0.008
    2        0.000   0.005   0.000   0.005
    3       -0.000  -0.006   0.000  -0.006
    4       -0.000   0.001   0.000   0.001
    5        0.000   0.004   0.000   0.004
    6        0.000   0.002   0.000   0.002
    7       -0.001  -0.006   0.000  -0.007
    8        0.000   0.004   0.000   0.004
    9        0.001   0.012   0.000   0.013
   10       -0.000  -0.005   0.000  -0.006
   11        0.001  -0.006   0.000  -0.006
   12        0.002   0.025   0.000   0.027
   13        0.001   0.007   0.000   0.007
   14       -0.001  -0.011   0.000  -0.013
   15        0.001   0.007   0.000   0.008
   16        0.000   0.006   0.000   0.007
   17       -0.001  -0.008   0.000  -0.009
   18       -0.001  -0.013   0.000  -0.014
   19        0.001   0.011   0.000   0.012
   20        0.000   0.003   0.000   0.003
   21       -0.001  -0.008   0.000  -0.010
   22       -0.000  -0.003   0.000  -0.004
   23        0.000   0.002   0.000   0.002
   24        0.000   0.005   0.000   0.005
   25        0.000   0.005   0.000   0.005
   26        0.000  -0.009   0.000  -0.009
   27        0.003   0.022   0.000   0.026
   28        0.001   0.013   0.000   0.014
   29       -0.001  -0.009   0.000  -0.010
   30        0.000   0.004   0.000   0.004
   31        0.000   0.003   0.000   0.003
   32       -0.000  -0.004   0.000  -0.005
   33       -0.000  -0.004   0.000  -0.004
   34        0.000   0.005   0.000   0.006
   35       -0.000   0.000   0.000  -0.000
   36       -0.000  -0.003   0.000  -0.004
   37       -0.000  -0.004   0.000  -0.004
   38        0.000   0.002   0.000   0.003
   39       -0.000   0.004   0.000   0.004
   40       -0.000   0.001   0.000   0.001
   41       -0.001  -0.005   0.000  -0.005
   42        0.001   0.009   0.000   0.010
   43        0.001   0.005   0.000   0.006
   44       -0.001  -0.006   0.000  -0.006
   45       -0.001  -0.007   0.000  -0.008
   46        0.000   0.004   0.000   0.004
   47        0.000   0.006   0.000   0.006
   48       -0.000  -0.006   0.000  -0.007
   49       -0.000  -0.005   0.000  -0.006
   50       -0.018  -0.084   0.000  -0.102
   51       -0.007  -0.034   0.000  -0.042
   52       -0.016  -0.077   0.000  -0.094
   53       -0.001  -0.007   0.000  -0.008
   54       -0.002  -0.010   0.000  -0.011
   55       -0.004   0.002   0.000  -0.001
   56       -0.001   0.007   0.000   0.006
   57        0.007   0.006   1.184   1.198
   58        0.062   0.016   2.880   2.958
--------------------------------------------------
tot          0.024  -0.128   4.065   3.961
 

 total amount of memory used by VASP MPI-rank0   178058. kBytes
=======================================================================

   base      :      30000. kBytes
   nonl-proj :       5326. kBytes
   fftplans  :      13453. kBytes
   grid      :      34560. kBytes
   one-center:         62. kBytes
   HF        :         23. kBytes
   nonlr-proj:      17150. kBytes
   wavefun   :      77484. kBytes
 
  
  
 General timing and accounting informations for this job:
 ========================================================
  
                  Total CPU time used (sec):    34694.336
                            User time (sec):    34647.449
                          System time (sec):       46.888
                         Elapsed time (sec):    34708.108
  
                   Maximum memory used (kb):      417288.
                   Average memory used (kb):           0.
  
                          Minor page faults:       342953
                          Major page faults:            0
                 Voluntary context switches:         1715
