 vasp.5.4.4.18Apr17-6-g9f103f2a35 (build Feb 25 2019 10:51:38) complex          
  
 executed on             LinuxIFC date 2021.07.23  14:58:55
 running on   32 total cores
 distrk:  each k-point on   32 cores,    1 groups
 distr:  one band on NCORES_PER_BAND=  32 cores,    1 groups


--------------------------------------------------------------------------------------------------------


 INCAR:
 POTCAR:    PAW_PBE C 08Apr2002                   
 POTCAR:    PAW_PBE N 08Apr2002                   
 POTCAR:    PAW_PBE Fe 06Sep2000                  
 POTCAR:    PAW_PBE Mn 06Sep2000                  

 ----------------------------------------------------------------------------- 
|                                                                             |
|           W    W    AA    RRRRR   N    N  II  N    N   GGGG   !!!           |
|           W    W   A  A   R    R  NN   N  II  NN   N  G    G  !!!           |
|           W    W  A    A  R    R  N N  N  II  N N  N  G       !!!           |
|           W WW W  AAAAAA  RRRRR   N  N N  II  N  N N  G  GGG   !            |
|           WW  WW  A    A  R   R   N   NN  II  N   NN  G    G                |
|           W    W  A    A  R    R  N    N  II  N    N   GGGG   !!!           |
|                                                                             |
|      For optimal performance we recommend to set                            |
|        NCORE= 4 - approx SQRT( number of cores)                             |
|      NCORE specifies how many cores store one orbital (NPAR=cpu/NCORE).     |
|      This setting can  greatly improve the performance of VASP for DFT.     |
|      The default,   NCORE=1            might be grossly inefficient         |
|      on modern multi-core architectures or massively parallel machines.     |
|      Do your own testing !!!!                                               |
|      Unfortunately you need to use the default for GW and RPA calculations. |
|      (for HF NCORE is supported but not extensively tested yet)             |
|                                                                             |
 ----------------------------------------------------------------------------- 

 POTCAR:    PAW_PBE C 08Apr2002                   
   VRHFIN =C: s2p2                                                              
   LEXCH  = PE                                                                  
   EATOM  =   147.1560 eV,   10.8157 Ry                                         
                                                                                
   TITEL  = PAW_PBE C 08Apr2002                                                 
   LULTRA =        F    use ultrasoft PP ?                                      
   IUNSCR =        1    unscreen: 0-lin 1-nonlin 2-no                           
   RPACOR =    1.200    partial core radius                                     
   POMASS =   12.011; ZVAL   =    4.000    mass and valenz                      
   RCORE  =    1.500    outmost cutoff radius                                   
   RWIGS  =    1.630; RWIGS  =    0.863    wigner-seitz radius (au A)           
   ENMAX  =  400.000; ENMIN  =  300.000 eV                                      
   ICORE  =        2    local potential                                         
   LCOR   =        T    correct aug charges                                     
   LPAW   =        T    paw PP                                                  
   EAUG   =  644.873                                                            
   DEXC   =    0.000                                                            
   RMAX   =    1.529    core radius for proj-oper                               
   RAUG   =    1.300    factor for augmentation sphere                          
   RDEP   =    1.501    radius for radial grids                                 
   RDEPT  =    1.300    core radius for aug-charge                              
                                                                                
   Atomic configuration                                                         
    4 entries                                                                   
     n  l   j            E        occ.                                          
     1  0  0.50      -273.3789   2.0000                                         
     2  0  0.50       -13.7508   2.0000                                         
     2  1  0.50        -5.2854   2.0000                                         
     3  2  1.50        -5.4423   0.0000                                         
   Description                                                                  
     l       E           TYP  RCUT    TYP  RCUT                                 
     0    -13.7508458     23  1.200                                             
     0     -8.2022199     23  1.200                                             
     1     -5.2854383     23  1.500                                             
     1     34.0145650     23  1.500                                             
     2     -5.4423304      7  1.500                                             
  local pseudopotential read in
  partial core-charges read in
  partial kinetic energy density read in
  atomic valenz-charges read in
  non local Contribution for L=           0  read in
    real space projection operators read in
  non local Contribution for L=           0  read in
    real space projection operators read in
  non local Contribution for L=           1  read in
    real space projection operators read in
  non local Contribution for L=           1  read in
    real space projection operators read in
    PAW grid and wavefunctions read in
 
   number of l-projection  operators is LMAX  =           4
   number of lm-projection operators is LMMAX =           8
 
 POTCAR:    PAW_PBE N 08Apr2002                   
   VRHFIN =N: s2p3                                                              
   LEXCH  = PE                                                                  
   EATOM  =   264.5486 eV,   19.4438 Ry                                         
                                                                                
   TITEL  = PAW_PBE N 08Apr2002                                                 
   LULTRA =        F    use ultrasoft PP ?                                      
   IUNSCR =        1    unscreen: 0-lin 1-nonlin 2-no                           
   RPACOR =    1.200    partial core radius                                     
   POMASS =   14.001; ZVAL   =    5.000    mass and valenz                      
   RCORE  =    1.500    outmost cutoff radius                                   
   RWIGS  =    1.400; RWIGS  =    0.741    wigner-seitz radius (au A)           
   ENMAX  =  400.000; ENMIN  =  300.000 eV                                      
   ICORE  =        2    local potential                                         
   LCOR   =        T    correct aug charges                                     
   LPAW   =        T    paw PP                                                  
   EAUG   =  627.112                                                            
   DEXC   =    0.000                                                            
   RMAX   =    1.529    core radius for proj-oper                               
   RAUG   =    1.300    factor for augmentation sphere                          
   RDEP   =    1.514    radius for radial grids                                 
   RDEPT  =    1.338    core radius for aug-charge                              
                                                                                
   Atomic configuration                                                         
    4 entries                                                                   
     n  l   j            E        occ.                                          
     1  0  0.50      -384.7179   2.0000                                         
     2  0  0.50       -18.5828   2.0000                                         
     2  1  0.50        -7.0898   3.0000                                         
     3  2  1.50        -6.8029   0.0000                                         
   Description                                                                  
     l       E           TYP  RCUT    TYP  RCUT                                 
     0    -18.5828119     23  1.200                                             
     0    -13.5018863     23  1.200                                             
     1     -7.0897853     23  1.500                                             
     1      9.5240782     23  1.500                                             
     2     -6.8029130      7  1.500                                             
  local pseudopotential read in
  partial core-charges read in
  partial kinetic energy density read in
  atomic valenz-charges read in
  non local Contribution for L=           0  read in
    real space projection operators read in
  non local Contribution for L=           0  read in
    real space projection operators read in
  non local Contribution for L=           1  read in
    real space projection operators read in
  non local Contribution for L=           1  read in
    real space projection operators read in
    PAW grid and wavefunctions read in
 
   number of l-projection  operators is LMAX  =           4
   number of lm-projection operators is LMMAX =           8
 
 POTCAR:    PAW_PBE Fe 06Sep2000                  
   VRHFIN =Fe:  d7 s1                                                           
   LEXCH  = PE                                                                  
   EATOM  =   594.3153 eV,   43.6809 Ry                                         
                                                                                
   TITEL  = PAW_PBE Fe 06Sep2000                                                
   LULTRA =        F    use ultrasoft PP ?                                      
   IUNSCR =        1    unscreen: 0-lin 1-nonlin 2-no                           
   RPACOR =    2.000    partial core radius                                     
   POMASS =   55.847; ZVAL   =    8.000    mass and valenz                      
   RCORE  =    2.300    outmost cutoff radius                                   
   RWIGS  =    2.460; RWIGS  =    1.302    wigner-seitz radius (au A)           
   ENMAX  =  267.882; ENMIN  =  200.911 eV                                      
   RCLOC  =    1.701    cutoff for local pot                                    
   LCOR   =        T    correct aug charges                                     
   LPAW   =        T    paw PP                                                  
   EAUG   =  511.368                                                            
   DEXC   =    0.000                                                            
   RMAX   =    2.356    core radius for proj-oper                               
   RAUG   =    1.300    factor for augmentation sphere                          
   RDEP   =    2.442    radius for radial grids                                 
   RDEPT  =    1.890    core radius for aug-charge                              
                                                                                
   Atomic configuration                                                         
    9 entries                                                                   
     n  l   j            E        occ.                                          
     1  0  0.50     -6993.8440   2.0000                                         
     2  0  0.50      -814.6047   2.0000                                         
     2  1  1.50      -693.3689   6.0000                                         
     3  0  0.50       -89.4732   2.0000                                         
     3  1  1.50       -55.6373   6.0000                                         
     3  2  2.50        -3.8151   7.0000                                         
     4  0  0.50        -4.2551   1.0000                                         
     4  1  1.50        -3.4015   0.0000                                         
     4  3  2.50        -1.3606   0.0000                                         
   Description                                                                  
     l       E           TYP  RCUT    TYP  RCUT                                 
     2     -3.8151135     23  2.300                                             
     2     -5.1756961     23  2.300                                             
     0     -4.2550963     23  2.300                                             
     0      7.2035603     23  2.300                                             
     1     -2.7211652     23  2.300                                             
     1     18.4316424     23  2.300                                             
  local pseudopotential read in
  partial core-charges read in
  partial kinetic energy density read in
  atomic valenz-charges read in
  non local Contribution for L=           2  read in
    real space projection operators read in
  non local Contribution for L=           2  read in
    real space projection operators read in
  non local Contribution for L=           0  read in
    real space projection operators read in
  non local Contribution for L=           0  read in
    real space projection operators read in
  non local Contribution for L=           1  read in
    real space projection operators read in
  non local Contribution for L=           1  read in
    real space projection operators read in
    PAW grid and wavefunctions read in
 
   number of l-projection  operators is LMAX  =           6
   number of lm-projection operators is LMMAX =          18
 
 POTCAR:    PAW_PBE Mn 06Sep2000                  
   VRHFIN =Mn: d6 s1                                                            
   LEXCH  = PE                                                                  
   EATOM  =   416.7541 eV,   30.6306 Ry                                         
                                                                                
   TITEL  = PAW_PBE Mn 06Sep2000                                                
   LULTRA =        F    use ultrasoft PP ?                                      
   IUNSCR =        1    unscreen: 0-lin 1-nonlin 2-no                           
   RPACOR =    2.000    partial core radius                                     
   POMASS =   54.938; ZVAL   =    7.000    mass and valenz                      
   RCORE  =    2.300    outmost cutoff radius                                   
   RWIGS  =    2.500; RWIGS  =    1.323    wigner-seitz radius (au A)           
   ENMAX  =  269.864; ENMIN  =  202.398 eV                                      
   RCLOC  =    1.725    cutoff for local pot                                    
   LCOR   =        T    correct aug charges                                     
   LPAW   =        T    paw PP                                                  
   EAUG   =  500.711                                                            
   DEXC   =    0.000                                                            
   RMAX   =    2.343    core radius for proj-oper                               
   RAUG   =    1.300    factor for augmentation sphere                          
   RDEP   =    2.338    radius for radial grids                                 
   RDEPT  =    1.911    core radius for aug-charge                              
                                                                                
   Atomic configuration                                                         
    9 entries                                                                   
     n  l   j            E        occ.                                          
     1  0  0.50     -6424.8288   2.0000                                         
     2  0  0.50      -739.1154   2.0000                                         
     2  1  1.50      -625.3949   6.0000                                         
     3  0  0.50       -81.6100   2.0000                                         
     3  1  1.50       -50.4667   6.0000                                         
     3  2  2.50        -3.3745   6.0000                                         
     4  0  0.50        -4.1331   1.0000                                         
     4  1  0.50        -4.0817   0.0000                                         
     4  3  2.50        -1.3606   0.0000                                         
   Description                                                                  
     l       E           TYP  RCUT    TYP  RCUT                                 
     2     -3.3744664     23  2.300                                             
     2     -4.7350490     23  2.300                                             
     0     -4.1331408     23  2.300                                             
     0      7.6656614     23  2.300                                             
     1     -2.7211652     23  2.300                                             
     1     20.4087390     23  2.300                                             
  local pseudopotential read in
  partial core-charges read in
  partial kinetic energy density read in
  atomic valenz-charges read in
  non local Contribution for L=           2  read in
    real space projection operators read in
  non local Contribution for L=           2  read in
    real space projection operators read in
  non local Contribution for L=           0  read in
    real space projection operators read in
  non local Contribution for L=           0  read in
    real space projection operators read in
  non local Contribution for L=           1  read in
    real space projection operators read in
  non local Contribution for L=           1  read in
    real space projection operators read in
    PAW grid and wavefunctions read in
 
   number of l-projection  operators is LMAX  =           6
   number of lm-projection operators is LMMAX =          18
 

 ----------------------------------------------------------------------------- 
|                                                                             |
|  ADVICE TO THIS USER RUNNING 'VASP/VAMP'   (HEAR YOUR MASTER'S VOICE ...):  |
|                                                                             |
|      You have a (more or less) 'large supercell' and for larger cells       |
|      it might be more efficient to use real space projection opertators     |
|      So try LREAL= Auto  in the INCAR   file.                               |
|      Mind:          For very  accurate calculation you might also keep the  |
|      reciprocal projection scheme          (i.e. LREAL=.FALSE.)             |
|                                                                             |
 ----------------------------------------------------------------------------- 

  PAW_PBE C 08Apr2002                   :
 energy of atom  1       EATOM= -147.1560
 kinetic energy error for atom=    0.0076 (will be added to EATOM!!)
  PAW_PBE N 08Apr2002                   :
 energy of atom  2       EATOM= -264.5486
 kinetic energy error for atom=    0.0138 (will be added to EATOM!!)
  PAW_PBE Fe 06Sep2000                  :
 energy of atom  3       EATOM= -594.3153
 kinetic energy error for atom=    0.0026 (will be added to EATOM!!)
  PAW_PBE Mn 06Sep2000                  :
 energy of atom  4       EATOM= -416.7541
 kinetic energy error for atom=    0.0024 (will be added to EATOM!!)
 
 
 POSCAR:  C  N Fe Mn                             
  positions in cartesian coordinates
  No initial velocities read in
 exchange correlation table for  LEXCH =        8
   RHO(1)=    0.500       N(1)  =     2000
   RHO(2)=  100.500       N(2)  =     4000

 VTST: version 3.2, (02/03/18)

 CHAIN: initializing optimizer
 
 OPT: Using VASP Conjugate-Gradient optimizer
 CHAIN: Read ICHAIN            0
 
 POSCAR:  C  N Fe Mn                             
  positions in cartesian coordinates
  No initial velocities read in
 


--------------------------------------------------------------------------------------------------------


 ion  position               nearest neighbor table
   1  0.222  0.999  0.500-   3 1.41  17 1.42   4 1.42
   2  0.054  0.099  0.500-  34 1.42   7 1.42   3 1.43
   3  0.110  0.999  0.501-   1 1.41  15 1.43   2 1.43
   4  0.277  0.097  0.501-  19 1.42   5 1.42   1 1.42
   5  0.221  0.195  0.501-   7 1.41   8 1.42   4 1.42
   6  0.055  0.299  0.500-  38 1.43   7 1.44  10 1.44
   7  0.109  0.198  0.500-   5 1.41   2 1.42   6 1.44
   8  0.278  0.292  0.502-  53 1.39  51 1.41   5 1.42  57 2.57
   9  0.062  0.498  0.500-  10 1.45  42 1.45  12 1.47
  10  0.116  0.396  0.500-  53 1.37   6 1.44   9 1.45
  11  0.059  0.699  0.500-  46 1.42  16 1.43  12 1.45
  12  0.118  0.601  0.499-  54 1.38  11 1.45   9 1.47
  13  0.277  0.704  0.499-  54 1.38  14 1.41  25 1.43
  14  0.222  0.802  0.499-  13 1.41  16 1.41  17 1.42
  15  0.056  0.900  0.500-  50 1.41  16 1.43   3 1.43
  16  0.111  0.800  0.500-  14 1.41  15 1.43  11 1.43
  17  0.278  0.900  0.500-  28 1.41   1 1.42  14 1.42
  18  0.556  0.999  0.500-  20 1.41  30 1.42  21 1.43
  19  0.389  0.097  0.501-   4 1.42  20 1.42  23 1.42
  20  0.445  0.998  0.500-  18 1.41  19 1.42  28 1.42
  21  0.611  0.097  0.501-  22 1.41  32 1.41  18 1.43
  22  0.557  0.195  0.502-  55 1.38  21 1.41  23 1.43
  23  0.443  0.196  0.502-  51 1.42  19 1.42  22 1.43
  24  0.556  0.607  0.498-  56 1.39  26 1.42  52 1.43  58 2.57
  25  0.390  0.703  0.498-  52 1.42  29 1.42  13 1.43
  26  0.612  0.704  0.498-  44 1.42  27 1.42  24 1.42
  27  0.556  0.802  0.498-  29 1.41  26 1.42  30 1.42
  28  0.389  0.900  0.499-  17 1.41  29 1.42  20 1.42
  29  0.445  0.802  0.498-  27 1.41  28 1.42  25 1.42
  30  0.612  0.900  0.499-  48 1.41  18 1.42  27 1.42
  31  0.889  1.000  0.500-  33 1.41  34 1.43  50 1.44
  32  0.723  0.099  0.500-  21 1.41  33 1.43  37 1.43
  33  0.778  1.000  0.500-  31 1.41  32 1.43  48 1.43
  34  0.943  0.100  0.500-   2 1.42  31 1.43  35 1.44
  35  0.888  0.201  0.500-  37 1.42  38 1.44  34 1.44
  36  0.716  0.299  0.501-  55 1.38  37 1.45  41 1.47
  37  0.775  0.200  0.501-  35 1.42  32 1.43  36 1.45
  38  0.943  0.300  0.500-   6 1.43  35 1.44  39 1.44
  39  0.887  0.401  0.500-  38 1.44  41 1.46  42 1.46
  40  0.719  0.504  0.500-  56 1.36  45 1.44  41 1.45
  41  0.772  0.401  0.501-  40 1.45  39 1.46  36 1.47
  42  0.947  0.499  0.500-  43 1.44   9 1.45  39 1.46
  43  0.891  0.599  0.500-  45 1.42  46 1.44  42 1.44
  44  0.724  0.702  0.499-  26 1.42  49 1.43  45 1.44
  45  0.779  0.601  0.499-  43 1.42  44 1.44  40 1.44
  46  0.946  0.699  0.500-  11 1.42  43 1.44  47 1.44
  47  0.891  0.799  0.500-  49 1.42  50 1.43  46 1.44
  48  0.723  0.900  0.499-  30 1.41  33 1.43  49 1.43
  49  0.779  0.800  0.499-  47 1.42  44 1.43  48 1.43
  50  0.945  0.899  0.500-  15 1.41  47 1.43  31 1.44
  51  0.389  0.295  0.503-   8 1.41  23 1.42  58 1.99  57 2.52
  52  0.443  0.603  0.498-  25 1.42  24 1.43  57 1.99  58 2.48
  53  0.224  0.389  0.501-  10 1.37   8 1.39  57 1.89
  54  0.227  0.607  0.499-  13 1.38  12 1.38  57 2.00
  55  0.607  0.293  0.503-  22 1.38  36 1.38  58 2.05
  56  0.611  0.511  0.499-  40 1.36  24 1.39  58 1.93
  57  0.335  0.489  0.500-  53 1.89  52 1.99  54 2.00  58 2.25  51 2.52   8 2.57
  58  0.495  0.412  0.504-  56 1.93  51 1.99  55 2.05  57 2.25  52 2.48  24 2.57
 
  LATTYP: Found a triclinic cell.
 ALAT       =    34.6523373928
 B/A-ratio  =     0.3656232437
 C/A-ratio  =     1.2092190655
 COS(alpha) =     0.0001535446
 COS(beta)  =     0.6587503162
 COS(gamma) =     0.7323758138
  
  Lattice vectors:
  
 A1 = ( -25.3785337977, -12.5259635379, -19.9953681263)
 A2 = ( -12.6697000000,   0.0000000000,   0.0000000000)
 A3 = (  -0.0064338649, -12.5116328143, -39.9907362525)


Analysis of symmetry for initial positions (statically):
=====================================================================
 Subroutine PRICEL returns:
 Original cell was already a primitive cell.
 

 Routine SETGRP: Setting up the symmetry group for a 
 triclinic supercell.


 Subroutine GETGRP returns: Found  1 space group operations
 (whereof  1 operations were pure point group operations)
 out of a pool of  2 trial point group operations.


The static configuration has the point symmetry C_1 .


Analysis of symmetry for dynamics (positions and initial velocities):
=====================================================================
 Subroutine PRICEL returns:
 Original cell was already a primitive cell.
 

 Routine SETGRP: Setting up the symmetry group for a 
 triclinic supercell.


 Subroutine GETGRP returns: Found  1 space group operations
 (whereof  1 operations were pure point group operations)
 out of a pool of  2 trial point group operations.


The dynamic configuration has the point symmetry C_1 .


Analysis of structural, dynamic, and magnetic symmetry:
=====================================================================
 Subroutine PRICEL returns:
 Original cell was already a primitive cell.
 

 Routine SETGRP: Setting up the symmetry group for a 
 triclinic supercell.


 Subroutine GETGRP returns: Found  1 space group operations
 (whereof  1 operations were pure point group operations)
 out of a pool of  2 trial point group operations.


The magnetic configuration has the point symmetry C_1 .


 Subroutine INISYM returns: Found  1 space group operations
 (whereof  1 operations are pure point group operations),
 and found     1 'primitive' translations

 
 
 KPOINTS: KPOINTS created by Atomic Simulation Env

Automatic generation of k-mesh.
Space group operators:
 irot       det(A)        alpha          n_x          n_y          n_z        tau_x        tau_y        tau_z
    1     1.000000     0.000000     1.000000     0.000000     0.000000     0.000000     0.000000     0.000000
 
 Subroutine IBZKPT returns following result:
 ===========================================
 
 Found      2 irreducible k-points:
 
 Following reciprocal coordinates:
            Coordinates               Weight
  0.250000  0.250000 -0.000000      2.000000
 -0.250000  0.250000  0.000000      2.000000
 
 Following cartesian coordinates:
            Coordinates               Weight
  0.019732  0.019823  0.000046      2.000000
 -0.019732  0.020049 -0.000018      2.000000
 
 
 Subroutine IBZKPT_HF returns following result:
 ==============================================
 
 Found      4 k-points in 1st BZ
 the following      4 k-points will be used (e.g. in the exchange kernel)
 Following reciprocal coordinates:   # in IRBZ
  0.250000  0.250000 -0.000000    0.25000000   1 t-inv F
 -0.250000  0.250000  0.000000    0.25000000   2 t-inv F
 -0.250000 -0.250000  0.000000    0.25000000   1 t-inv T
  0.250000 -0.250000 -0.000000    0.25000000   2 t-inv T


--------------------------------------------------------------------------------------------------------




 Dimension of arrays:
   k-points           NKPTS =      2   k-points in BZ     NKDIM =      4   number of bands    NBANDS=    155
   number of dos      NEDOS =    301   number of ions     NIONS =     58
   non local maximal  LDIM  =      6   non local SUM 2l+1 LMDIM =     18
   total plane-waves  NPLWV = ******
   max r-space proj   IRMAX =      1   max aug-charges    IRDMAX=  16196
   dimension x,y,z NGX =    96 NGY =   96 NGZ =  150
   dimension x,y,z NGXF=   192 NGYF=  192 NGZF=  300
   support grid    NGXF=   192 NGYF=  192 NGZF=  300
   ions per type =              52   4   1   1
   NGX,Y,Z   is equivalent  to a cutoff of  12.60, 12.73, 12.47 a.u.
   NGXF,Y,Z  is equivalent  to a cutoff of  25.19, 25.45, 24.94 a.u.

 SYSTEM =  unknown system                          
 POSCAR =   C  N Fe Mn                             

 Startparameter for this run:
   NWRITE =      2    write-flag & timer
   PREC   = accura    normal or accurate (medium, high low for compatibility)
   ISTART =      1    job   : 0-new  1-cont  2-samecut
   ICHARG =      0    charge: 1-file 2-atom 10-const
   ISPIN  =      2    spin polarized calculation?
   LNONCOLLINEAR =      F non collinear calculations
   LSORBIT =      F    spin-orbit coupling
   INIWAV =      1    electr: 0-lowe 1-rand  2-diag
   LASPH  =      T    aspherical Exc in radial PAW
   METAGGA=      F    non-selfconsistent MetaGGA calc.

 Electronic Relaxation 1
   ENCUT  =  500.0 eV  36.75 Ry    6.06 a.u.  23.10 22.86 36.46*2*pi/ulx,y,z
   ENINI  =  500.0     initial cutoff
   ENAUG  =  644.9 eV  augmentation charge cutoff
   NELM   =    250;   NELMIN=  2; NELMDL=  0     # of ELM steps 
   EDIFF  = 0.1E-03   stopping-criterion for ELM
   LREAL  =      F    real-space projection
   NLSPLINE    = F    spline interpolate recip. space projectors
   LCOMPAT=      F    compatible to vasp.4.4
   GGA_COMPAT  = T    GGA compatible to vasp.4.4-vasp.4.6
   LMAXPAW     = -100 max onsite density
   LMAXMIX     =    2 max onsite mixed and CHGCAR
   VOSKOWN=      0    Vosko Wilk Nusair interpolation
   ROPT   =    0.00000   0.00000   0.00000   0.00000
 Ionic relaxation
   EDIFFG = -.3E-01   stopping-criterion for IOM
   NSW    =      0    number of steps for IOM
   NBLOCK =      1;   KBLOCK =      1    inner block; outer block 
   IBRION =     -1    ionic relax: 0-MD 1-quasi-New 2-CG
   NFREE  =      1    steps in history (QN), initial steepest desc. (CG)
   ISIF   =      2    stress and relaxation
   IWAVPR =     10    prediction:  0-non 1-charg 2-wave 3-comb
   ISYM   =      3    0-nonsym 1-usesym 2-fastsym
   LCORR  =      T    Harris-Foulkes like correction to forces

   POTIM  = 0.5000    time-step for ionic-motion
   TEIN   =    0.0    initial temperature
   TEBEG  =    0.0;   TEEND  =   0.0 temperature during run
   SMASS  =  -3.00    Nose mass-parameter (am)
   estimated Nose-frequenzy (Omega)   =  0.10E-29 period in steps =****** mass=  -0.367E-26a.u.
   SCALEE = 1.0000    scale energy and forces
   NPACO  =    256;   APACO  = 16.0  distance and # of slots for P.C.
   PSTRESS=    0.0 pullay stress

  Mass of Ions in am
   POMASS =  12.01 14.00 55.85 54.94
  Ionic Valenz
   ZVAL   =   4.00  5.00  8.00  7.00
  Atomic Wigner-Seitz radii
   RWIGS  =  -1.00 -1.00 -1.00 -1.00
  virtual crystal weights 
   VCA    =   1.00  1.00  1.00  1.00
   NELECT =     243.0000    total number of electrons
   NUPDOWN=      -1.0000    fix difference up-down

 DOS related values:
   EMIN   =  10.00;   EMAX   =-10.00  energy-range for DOS
   EFERMI =   0.00
   ISMEAR =     0;   SIGMA  =   0.10  broadening in eV -4-tet -1-fermi 0-gaus

 Electronic relaxation 2 (details)
   IALGO  =     53    algorithm
   LDIAG  =      T    sub-space diagonalisation (order eigenvalues)
   LSUBROT=      F    optimize rotation matrix (better conditioning)
   TURBO    =      0    0=normal 1=particle mesh
   IRESTART =      0    0=no restart 2=restart with 2 vectors
   NREBOOT  =      0    no. of reboots
   NMIN     =      0    reboot dimension
   EREF     =   0.00    reference energy to select bands
   IMIX   =      4    mixing-type and parameters
     AMIX     =   0.40;   BMIX     =  1.00
     AMIX_MAG =   1.60;   BMIX_MAG =  1.00
     AMIN     =   0.10
     WC   =   100.;   INIMIX=   1;  MIXPRE=   1;  MAXMIX= -45

 Intra band minimization:
   WEIMIN = 0.0000     energy-eigenvalue tresh-hold
   EBREAK =  0.16E-06  absolut break condition
   DEPER  =   0.30     relativ break condition  

   TIME   =   0.20     timestep for ELM

  volume/ion in A,a.u.               =      54.77       369.63
  Fermi-wavevector in a.u.,A,eV,Ry     =   0.694932  1.313231  6.570672  0.482931
  Thomas-Fermi vector in A             =   1.777563
 
 Write flags
   LWAVE        =      T    write WAVECAR
   LDOWNSAMPLE  =      F    k-point downsampling of WAVECAR
   LCHARG       =      T    write CHGCAR
   LVTOT        =      F    write LOCPOT, total local potential
   LVHAR        =      F    write LOCPOT, Hartree potential only
   LELF         =      F    write electronic localiz. function (ELF)
   LORBIT       =     11    0 simple, 1 ext, 2 COOP (PROOUT), +10 PAW based schemes


 Dipole corrections
   LMONO  =      F    monopole corrections only (constant potential shift)
   LDIPOL =      T    correct potential (dipole corrections)
   IDIPOL =      3    1-x, 2-y, 3-z, 4-all directions 
   EPSILON=  1.0000000 bulk dielectric constant

 Exchange correlation treatment:
   GGA     =    PE    GGA type
   LEXCH   =     8    internal setting for exchange type
   VOSKOWN=      0    Vosko Wilk Nusair interpolation
   EXXOEP  =     0    0=HF, 1=EXX-LHF (local Hartree Fock) 2=EXX OEP
   LHFCALC =     T    Hartree Fock is set to
   LSYMGRAD=     F    symmetrize gradient (conserves proper symmetry)
   PRECFOCK=normal    Normal, Fast or Accurate (Low or Medium for compatibility)
   LRHFCALC=     F    long range Hartree Fock
   LRSCOR  =     F    long range correlation only (use DFT for short range part)
   LTHOMAS =     F    Thomas Fermi screening in HF
   LMODELHF=     F    short range full HF, long range fraction AEXX
   ENCUT4O =  -1.0   cutoff for four orbital integrals eV
   LMAXFOCK=     4    L truncation for augmentation on plane wave grid
   LMAXFOCKAE=  -1    L truncation for all-electron charge restoration on plane wave grid
   NMAXFOCKAE=   1    number of basis functions for all-electron charge restoration
   LFOCKAEDFT=     F  apply the AE augmentation even for DFT
   NKREDX  =     1    reduce k-point grid by
   NKREDY  =     1    reduce k-point grid by
   NKREDZ  =     1    reduce k-point grid by
   SHIFTRED=     F    shift reduced grid of Gamma
   HFKIDENT=     F    idential grid for each k-point
   ODDONLY =     F    use only odd q-grid points
   EVENONLY=     F    use only even q-grid points
   HFALPHA =   -1.0000 decay constant for conv. correction
   MCALPHA =    0.0000 extent of test-charge in conv. correction in multipole expansion
   AEXX    =    0.2500 exact exchange contribution
   HFSCREEN=    0.2000 screening length (either q_TF or 0.3 A-1)
   HFSCREENC=   0.2000 screening length for correlation (either q_TF or 0.3 A-1)
   HFRCUT  =    0.0000 spherical cutoff for potential kernel
   ALDAX   =    0.7500 LDA exchange part
   AGGAX   =    0.7500 GGA exchange part
   ALDAC   =    1.0000 LDA correlation
   AGGAC   =    1.0000 GGA correlation
   ENCUTFOCK=  -1.0 apply spherical cutoff to Coloumb kernel
   NBANDSGWLOW=     1    first orbital included in HF term
   NBLOCK_FOCK=    64    blocking factor in FOCK_ACC
 Linear response parameters
   LEPSILON=     F    determine dielectric tensor
   LRPA    =     F    only Hartree local field effects (RPA)
   LNABLA  =     F    use nabla operator in PAW spheres
   LVEL    =     F    velocity operator in full k-point grid
   LINTERFAST=   F  fast interpolation
   KINTER  =     0    interpolate to denser k-point grid
   CSHIFT  =0.1000    complex shift for real part using Kramers Kronig
   OMEGAMAX=  -1.0    maximum frequency
   DEG_THRESHOLD= 0.2000000E-02 threshold for treating states as degnerate
   RTIME   =   -0.100 relaxation time in fs
  (WPLASMAI=    0.000 imaginary part of plasma frequency in eV, 0.658/RTIME)
   DFIELD  = 0.0000000 0.0000000 0.0000000 field for delta impulse in time
 
 Orbital magnetization related:
   ORBITALMAG=     F  switch on orbital magnetization
   LCHIMAG   =     F  perturbation theory with respect to B field
   DQ        =  0.001000  dq finite difference perturbation B field
   LLRAUG    =     F  two centre corrections for induced B field



--------------------------------------------------------------------------------------------------------


 Static calculation
 charge density and potential will be updated during run
 spin polarized calculation
 Conjugate gradient for all bands (Freysoldt, et al. PRB 79, 241103 (2009))
 perform sub-space diagonalisation
    before iterative eigenvector-optimisation
 modified Broyden-mixing scheme, WC =      100.0
 initial mixing is a Kerker type mixing with AMIX =  0.4000 and BMIX =      1.0000
 Hartree-type preconditioning will be used
 using additional bands           33
 reciprocal scheme for non local part
 use partial core corrections
 no Harris-corrections to forces 
 use gradient corrections 
 use of overlap-Matrix (Vanderbilt PP)
 Gauss-broadening in eV      SIGMA  =   0.10


--------------------------------------------------------------------------------------------------------


  energy-cutoff  :      500.00
  volume of cell :     3176.90
      direct lattice vectors                 reciprocal lattice vectors
    12.669700000  0.000000000  0.000000000     0.078928467 -0.000452121  0.000128754
     0.071833731 12.540294262  0.000000000     0.000000000  0.079742945  0.000057152
    -0.032699933 -0.014330724 19.995368126     0.000000000  0.000000000  0.050011582

  length of vectors
    12.669700000 12.540500000 19.995400000     0.078929867  0.079742966  0.050011582


 
 old parameters found on file WAVECAR:
  energy-cutoff  :      500.00
  volume of cell :     3176.90
      direct lattice vectors                 reciprocal lattice vectors
    12.669700000  0.000000000  0.000000000     0.078928467 -0.000452121  0.000128754
     0.071833731 12.540294262  0.000000000     0.000000000  0.079742945  0.000057152
    -0.032699933 -0.014330724 19.995368126     0.000000000  0.000000000  0.050011582

  length of vectors

 
 k-points in units of 2pi/SCALE and weight: KPOINTS created by Atomic Simulation Env
   0.01973212  0.01982271  0.00004648       0.500
  -0.01973212  0.02004877 -0.00001790       0.500
 
 k-points in reciprocal lattice and weights: KPOINTS created by Atomic Simulation Env
   0.25000000  0.25000000 -0.00000000       0.500
  -0.25000000  0.25000000  0.00000000       0.500
 
 position of ions in fractional coordinates (direct lattice) 
   0.22178659  0.99859700  0.50040516
   0.05446757  0.09887002  0.50042224
   0.11026967  0.99916002  0.50054325
   0.27733248  0.09681618  0.50089997
   0.22109774  0.19490078  0.50106729
   0.05545762  0.29874392  0.50018903
   0.10948858  0.19754333  0.50044854
   0.27763322  0.29212877  0.50193094
   0.06232559  0.49844825  0.49972373
   0.11570108  0.39575449  0.50030099
   0.05857050  0.69913951  0.49984196
   0.11832356  0.60054746  0.49939910
   0.27719387  0.70382387  0.49865045
   0.22243207  0.80173696  0.49947260
   0.05567166  0.89957953  0.50049585
   0.11107414  0.80007279  0.50003763
   0.27771626  0.90035677  0.49971232
   0.55606015  0.99870898  0.49965119
   0.38906455  0.09692039  0.50108618
   0.44467713  0.99836248  0.49992567
   0.61134020  0.09743439  0.50064139
   0.55664170  0.19527452  0.50194232
   0.44349245  0.19586007  0.50222912
   0.55566325  0.60681390  0.49812659
   0.39024977  0.70253145  0.49804100
   0.61221617  0.70411387  0.49791347
   0.55632164  0.80232258  0.49791257
   0.38916546  0.90025438  0.49914765
   0.44472667  0.80161805  0.49815799
   0.61190886  0.90047645  0.49863955
   0.88909025  0.99972280  0.50026375
   0.72271917  0.09920606  0.50042116
   0.77798310  0.99961622  0.49986501
   0.94274642  0.09989108  0.50031026
   0.88753241  0.20058464  0.50028165
   0.71552640  0.29901899  0.50134625
   0.77531820  0.20015469  0.50073390
   0.94291163  0.30047505  0.50010233
   0.88669007  0.40058411  0.50011561
   0.71857264  0.50364220  0.49976019
   0.77182036  0.40085245  0.50057721
   0.94749907  0.49870975  0.49976985
   0.89118496  0.59894554  0.49963319
   0.72400522  0.70151973  0.49865085
   0.77872114  0.60074046  0.49926067
   0.94631744  0.69877594  0.49988079
   0.89086821  0.79929206  0.49992523
   0.72338633  0.90001632  0.49906728
   0.77913841  0.80030103  0.49911524
   0.94455751  0.89949595  0.50037946
   0.38921876  0.29488283  0.50300887
   0.44328511  0.60254841  0.49798841
   0.22375757  0.38916400  0.50124094
   0.22734288  0.60667443  0.49864296
   0.60673009  0.29266323  0.50250446
   0.61117091  0.51073314  0.49941446
   0.33483202  0.48877173  0.49960024
   0.49529352  0.41168599  0.50368403
 
 position of ions in cartesian coordinates  (Angst):
   2.86533923 12.51552904 10.00578549
   0.68082618  1.23268768 10.00612687
   1.45248933 12.52258753 10.00854659
   3.50429456  1.20692513 10.01567930
   2.79885768  2.43693253 10.01902492
   0.70773521  3.73916865 10.00146388
   1.38501308  2.47007974 10.00665286
   3.52210120  3.65618773 10.03629385
   0.80911099  6.24352627  9.99215991
   1.47796673  4.95570810 10.00370242
   0.77594766  8.76025214  9.99452390
   1.52593326  7.52388508  9.98566884
   3.54621564  8.81901245  9.97069926
   2.85940660 10.04685959  9.98713848
   0.75359716 11.27381955 10.00759879
   1.44839701 10.02598230  9.99843652
   3.56691713 11.28357760  9.99193183
   7.10051769 12.51694410  9.99070957
   4.91990775  1.20822925 10.01940256
   5.68929444 12.51259502  9.99619772
   7.73612512  1.21468142 10.01050897
   7.05009719  2.44160670 10.03652154
   5.61656274  2.44894557 10.04225618
   7.06738771  7.60248641  9.96022458
   4.97852702  8.80281385  9.95851310
   7.79089257  8.82265968  9.95596315
   7.08978038 10.05422585  9.95594514
   4.97895616 11.28230167  9.98064093
   5.67584703 10.04538722  9.96085246
   7.80108076 11.28509376  9.97048140
  11.31996195 12.52964892 10.00295792
   9.14739765  1.23690174 10.00610537
   9.91227313 12.52831811  9.99498481
  11.93512976  1.24549374 10.00388791
  11.24281900  2.50822103 10.00331579
   9.07059047  3.74260149 10.02460289
   9.82105285  2.50282281 10.01235871
  11.95163847  3.76087872  9.99973019
  11.24651892  5.01627559  9.99999573
   9.12393611  6.30865946  9.99288888
   9.79115830  5.01963408 10.00922550
  12.02401073  6.24680498  9.99308220
  11.31773255  7.50379319  9.99034954
   9.20701581  8.79011785  9.97070735
   9.89299089  7.52630732  9.98290094
  12.02340774  8.75569221  9.99530034
  11.32810159 10.01619329  9.99618903
   9.21341990 11.27931752  9.97903405
   9.91261743 10.02885772  9.97999290
  12.01551206 11.27277316 10.00527141
   4.93601905  3.69070900 10.05784744
   5.64328849  7.54899782  9.95746164
   2.84650580  4.87304789 10.02249717
   2.90764021  7.60073000  9.97054946
   7.69167940  3.66288177 10.04776159
   7.76370917  6.39758692  9.98597593
   4.26099470  6.12218171  9.98969069
   6.28832282  5.15544532 10.07134768
 


--------------------------------------------------------------------------------------------------------


 k-point  1 :   0.2500 0.2500-0.0000  plane waves:   80666
 k-point  2 :  -0.2500 0.2500 0.0000  plane waves:   80662

 maximum and minimum number of plane-waves per node :      2549     2482

 maximum number of plane-waves:     80666
 maximum index in each direction: 
   IXMAX=   23   IYMAX=   22   IZMAX=   36
   IXMIN=  -23   IYMIN=  -23   IZMIN=  -36


 parallel 3D FFT for wavefunctions:
    minimum data exchange during FFTs selected (reduces bandwidth)
 parallel 3D FFT for charge:
    minimum data exchange during FFTs selected (reduces bandwidth)


 FFT grid for exact exchange (Hartree Fock) 
  NGX = 70; NGY = 70; NGZ =112

 
 Radii for the augmentation spheres in the non-local exchange
 for species   1 augmentation radius   0.874 (default was   0.699)
       energy cutoff for augmentation   2000.0
 for species   2 augmentation radius   0.886 (default was   0.709)
       energy cutoff for augmentation   2000.0
 for species   3 augmentation radius   1.263 (default was   1.010)
       energy cutoff for augmentation   2000.0
 for species   4 augmentation radius   1.276 (default was   1.021)
       energy cutoff for augmentation   2000.0

 real space projection operators:
  total allocation   :       2468.08 KBytes
  max/ min on nodes  :        109.76         40.64

 Maximum index for augmentation-charges in exchange          135
  SETUP_FOCK is finished

 total amount of memory used by VASP MPI-rank0   165020. kBytes
=======================================================================

   base      :      30000. kBytes
   nonl-proj :       5318. kBytes
   fftplans  :      14250. kBytes
   grid      :      36827. kBytes
   one-center:         62. kBytes
   HF        :         23. kBytes
   nonlr-proj:       1671. kBytes
   wavefun   :      76869. kBytes
 
     INWAV:  cpu time    3.5247: real time    3.5253
 Broyden mixing: mesh for mixing (old mesh)
   NGX = 47   NGY = 45   NGZ = 73
  (NGX  =192   NGY  =192   NGZ  =300)
  gives a total of 154395 points

 charge density for first step will be calculated from the start-wavefunctions


--------------------------------------------------------------------------------------------------------


 Maximum index for augmentation-charges          749 (set IRDMAX)


--------------------------------------------------------------------------------------------------------


 initial charge from wavefunction
 First call to EWALD:  gamma=   0.121
 Maximum number of real-space cells 3x 3x 2
 Maximum number of reciprocal cells 2x 2x 4

    FEWALD:  cpu time    0.0039: real time    0.0039


--------------------------------------- Iteration      1(   1)  ---------------------------------------


    POTLOK:  cpu time    1.4061: real time    1.4074
    SETDIJ:  cpu time    2.0962: real time    2.0972
    TRIAL :  cpu time  520.6653: real time  521.0816
    CORREC:  cpu time    0.0022: real time    0.0022
    CHARGE:  cpu time    1.6833: real time    1.6845
    --------------------------------------------
      LOOP:  cpu time  525.8665: real time  526.2929

 eigenvalue-minimisations  :     0
 total energy-change (2. order) :-0.6104006E+03  (-0.4727663E+00)
 number of electron     243.0000002 magnetization       0.9954241
 augmentation part       13.1239585 magnetization       0.4870680

 DIPCOR: dipole corrections for dipol
 direction  3 min pos     1,
 dipolmoment           0.000020      0.000009     -0.012313 electrons x Angstroem
 Tr[quadrupol]     -6454.818385

 energy correction for charged system         0.000000 eV
 dipol+quadrupol energy correction           -0.000004 eV
 added-field ion interaction          0.000299 eV  (added to PSCEN)


 Free energy of the ion-electron system (eV)
  ---------------------------------------------------
  alpha Z        PSCENC =       100.91801557
  Ewald energy   TEWEN  =     39079.40692715
  -Hartree energ DENC   =    -47377.94936733
  -exchange      EXHF   =       549.67032376
  -V(xc)+E(xc)   XCENC  =       605.69586988
  PAW double counting   =     26297.99659804   -26325.27797475
  entropy T*S    EENTRO =        -0.00314815
  eigenvalues    EBANDS =     -3148.30872553
  atomic energy  EATOM  =      9607.45362622
  ---------------------------------------------------
  free energy    TOTEN  =      -610.40060715 eV

  energy without entropy =     -610.39745900  energy(sigma->0) =     -610.39903307
  exchange ACFDT corr.  =        -0.00475301  see jH, gK, PRB 81, 115126


--------------------------------------------------------------------------------------------------------




--------------------------------------- Iteration      1(   2)  ---------------------------------------


    POTLOK:  cpu time    1.4022: real time    1.4030
    SETDIJ:  cpu time    2.0952: real time    2.0958
    TRIAL :  cpu time  520.1890: real time  520.4808
    CORREC:  cpu time    0.0021: real time    0.0023
    CHARGE:  cpu time    1.6763: real time    1.6769
    --------------------------------------------
      LOOP:  cpu time  525.3674: real time  525.6613

 eigenvalue-minimisations  :     0
 total energy-change (2. order) :-0.3959733E+00  (-0.4391325E+00)
 number of electron     243.0000002 magnetization       0.9979525
 augmentation part       13.1033979 magnetization       0.4949425

 DIPCOR: dipole corrections for dipol
 direction  3 min pos     1,
 dipolmoment           0.000025      0.000011     -0.015414 electrons x Angstroem
 Tr[quadrupol]     -6454.635672

 energy correction for charged system         0.000000 eV
 dipol+quadrupol energy correction           -0.000007 eV
 added-field ion interaction          0.000375 eV  (added to PSCEN)


 Free energy of the ion-electron system (eV)
  ---------------------------------------------------
  alpha Z        PSCENC =       100.91808847
  Ewald energy   TEWEN  =     39079.40692715
  -Hartree energ DENC   =    -47362.02214681
  -exchange      EXHF   =       549.60773188
  -V(xc)+E(xc)   XCENC  =       605.40671708
  PAW double counting   =     26430.17467657   -26457.02977461
  entropy T*S    EENTRO =        -0.00129082
  eigenvalues    EBANDS =     -3164.70927822
  atomic energy  EATOM  =      9607.45362622
  ---------------------------------------------------
  free energy    TOTEN  =      -610.79658043 eV

  energy without entropy =     -610.79528962  energy(sigma->0) =     -610.79593502
  exchange ACFDT corr.  =        -0.00195748  see jH, gK, PRB 81, 115126


--------------------------------------------------------------------------------------------------------




--------------------------------------- Iteration      1(   3)  ---------------------------------------


    POTLOK:  cpu time    1.4067: real time    1.4072
    SETDIJ:  cpu time    2.1262: real time    2.1265
    TRIAL :  cpu time  519.4773: real time  519.7104
    CORREC:  cpu time    0.0019: real time    0.0022
    CHARGE:  cpu time    1.6769: real time    1.6775
    --------------------------------------------
      LOOP:  cpu time  524.6913: real time  524.9260

 eigenvalue-minimisations  :     0
 total energy-change (2. order) :-0.3491970E+00  (-0.2797829E+00)
 number of electron     243.0000002 magnetization       0.9989790
 augmentation part       13.1065944 magnetization       0.4996779

 DIPCOR: dipole corrections for dipol
 direction  3 min pos     1,
 dipolmoment           0.000027      0.000012     -0.016593 electrons x Angstroem
 Tr[quadrupol]     -6454.459378

 energy correction for charged system         0.000000 eV
 dipol+quadrupol energy correction           -0.000008 eV
 added-field ion interaction          0.000403 eV  (added to PSCEN)


 Free energy of the ion-electron system (eV)
  ---------------------------------------------------
  alpha Z        PSCENC =       100.91811604
  Ewald energy   TEWEN  =     39079.40692715
  -Hartree energ DENC   =    -47346.64791823
  -exchange      EXHF   =       549.63125218
  -V(xc)+E(xc)   XCENC  =       605.14741071
  PAW double counting   =     26604.73411293   -26631.44314881
  entropy T*S    EENTRO =        -0.00051052
  eigenvalues    EBANDS =     -3180.34486481
  atomic energy  EATOM  =      9607.45362622
  ---------------------------------------------------
  free energy    TOTEN  =      -611.14577743 eV

  energy without entropy =     -611.14526692  energy(sigma->0) =     -611.14552217
  exchange ACFDT corr.  =        -0.00057696  see jH, gK, PRB 81, 115126


--------------------------------------------------------------------------------------------------------




--------------------------------------- Iteration      1(   4)  ---------------------------------------


    POTLOK:  cpu time    1.4072: real time    1.4077
    SETDIJ:  cpu time    2.0982: real time    2.0984
    TRIAL :  cpu time  520.4128: real time  520.6561
    CORREC:  cpu time    0.0020: real time    0.0022
    CHARGE:  cpu time    1.6763: real time    1.6766
    --------------------------------------------
      LOOP:  cpu time  525.5992: real time  525.8437

 eigenvalue-minimisations  :     0
 total energy-change (2. order) :-0.2219594E+00  (-0.1780249E+00)
 number of electron     243.0000002 magnetization       0.9994387
 augmentation part       13.1119215 magnetization       0.4974264

 DIPCOR: dipole corrections for dipol
 direction  3 min pos     1,
 dipolmoment           0.000027      0.000012     -0.016492 electrons x Angstroem
 Tr[quadrupol]     -6454.388010

 energy correction for charged system         0.000000 eV
 dipol+quadrupol energy correction           -0.000008 eV
 added-field ion interaction          0.000401 eV  (added to PSCEN)


 Free energy of the ion-electron system (eV)
  ---------------------------------------------------
  alpha Z        PSCENC =       100.91811368
  Ewald energy   TEWEN  =     39079.40692715
  -Hartree energ DENC   =    -47339.96610446
  -exchange      EXHF   =       549.83663967
  -V(xc)+E(xc)   XCENC  =       605.09528857
  PAW double counting   =     26757.20029868   -26784.06616389
  entropy T*S    EENTRO =        -0.00022542
  eigenvalues    EBANDS =     -3187.24585187
  atomic energy  EATOM  =      9607.45362622
  ---------------------------------------------------
  free energy    TOTEN  =      -611.36773679 eV

  energy without entropy =     -611.36751137  energy(sigma->0) =     -611.36762408
  exchange ACFDT corr.  =        -0.00017093  see jH, gK, PRB 81, 115126


--------------------------------------------------------------------------------------------------------




--------------------------------------- Iteration      1(   5)  ---------------------------------------


    POTLOK:  cpu time    1.4119: real time    1.4121
    SETDIJ:  cpu time    2.0947: real time    2.0950
    TRIAL :  cpu time  520.9075: real time  521.0819
    CORREC:  cpu time    0.0020: real time    0.0022
    CHARGE:  cpu time    1.6769: real time    1.6774
    --------------------------------------------
      LOOP:  cpu time  526.0954: real time  526.2710

 eigenvalue-minimisations  :     0
 total energy-change (2. order) :-0.1470804E+00  (-0.1252183E+00)
 number of electron     243.0000002 magnetization       0.9996659
 augmentation part       13.1124943 magnetization       0.4920394

 DIPCOR: dipole corrections for dipol
 direction  3 min pos     1,
 dipolmoment           0.000027      0.000012     -0.016502 electrons x Angstroem
 Tr[quadrupol]     -6454.405506

 energy correction for charged system         0.000000 eV
 dipol+quadrupol energy correction           -0.000008 eV
 added-field ion interaction          0.000401 eV  (added to PSCEN)


 Free energy of the ion-electron system (eV)
  ---------------------------------------------------
  alpha Z        PSCENC =       100.91811391
  Ewald energy   TEWEN  =     39079.40692715
  -Hartree energ DENC   =    -47340.42980234
  -exchange      EXHF   =       550.16236650
  -V(xc)+E(xc)   XCENC  =       605.21456255
  PAW double counting   =     26865.87278061   -26892.88203762
  entropy T*S    EENTRO =        -0.00011684
  eigenvalues    EBANDS =     -3187.23112872
  atomic energy  EATOM  =      9607.45362622
  ---------------------------------------------------
  free energy    TOTEN  =      -611.51481717 eV

  energy without entropy =     -611.51470033  energy(sigma->0) =     -611.51475875
  exchange ACFDT corr.  =        -0.00006214  see jH, gK, PRB 81, 115126


--------------------------------------------------------------------------------------------------------




--------------------------------------- Iteration      1(   6)  ---------------------------------------


    POTLOK:  cpu time    1.4084: real time    1.4089
    SETDIJ:  cpu time    2.0931: real time    2.0938
    TRIAL :  cpu time  520.5535: real time  520.8539
    CORREC:  cpu time    0.0020: real time    0.0022
    CHARGE:  cpu time    1.6763: real time    1.6771
    --------------------------------------------
      LOOP:  cpu time  525.7357: real time  526.0382

 eigenvalue-minimisations  :     0
 total energy-change (2. order) :-0.1060253E+00  (-0.8863351E-01)
 number of electron     243.0000003 magnetization       0.9997868
 augmentation part       13.1136666 magnetization       0.4887062

 DIPCOR: dipole corrections for dipol
 direction  3 min pos     1,
 dipolmoment           0.000027      0.000012     -0.016779 electrons x Angstroem
 Tr[quadrupol]     -6454.455896

 energy correction for charged system         0.000000 eV
 dipol+quadrupol energy correction           -0.000008 eV
 added-field ion interaction          0.000408 eV  (added to PSCEN)


 Free energy of the ion-electron system (eV)
  ---------------------------------------------------
  alpha Z        PSCENC =       100.91812039
  Ewald energy   TEWEN  =     39079.40692715
  -Hartree energ DENC   =    -47343.65585841
  -exchange      EXHF   =       550.49660737
  -V(xc)+E(xc)   XCENC  =       605.39552166
  PAW double counting   =     26934.56141402   -26961.60560750
  entropy T*S    EENTRO =        -0.00006973
  eigenvalues    EBANDS =     -3184.59147652
  atomic energy  EATOM  =      9607.45362622
  ---------------------------------------------------
  free energy    TOTEN  =      -611.62084249 eV

  energy without entropy =     -611.62077275  energy(sigma->0) =     -611.62080762
  exchange ACFDT corr.  =        -0.00002895  see jH, gK, PRB 81, 115126


--------------------------------------------------------------------------------------------------------




--------------------------------------- Iteration      1(   7)  ---------------------------------------


    POTLOK:  cpu time    1.4102: real time    1.4109
    SETDIJ:  cpu time    2.1221: real time    2.1226
    TRIAL :  cpu time  520.3910: real time  520.6559
    CORREC:  cpu time    0.0019: real time    0.0022
    CHARGE:  cpu time    1.6787: real time    1.6789
    --------------------------------------------
      LOOP:  cpu time  525.6060: real time  525.8724

 eigenvalue-minimisations  :     0
 total energy-change (2. order) :-0.7652501E-01  (-0.6395170E-01)
 number of electron     243.0000003 magnetization       0.9998545
 augmentation part       13.1184153 magnetization       0.4884387

 DIPCOR: dipole corrections for dipol
 direction  3 min pos     1,
 dipolmoment           0.000028      0.000012     -0.017060 electrons x Angstroem
 Tr[quadrupol]     -6454.502277

 energy correction for charged system         0.000000 eV
 dipol+quadrupol energy correction           -0.000008 eV
 added-field ion interaction          0.000415 eV  (added to PSCEN)


 Free energy of the ion-electron system (eV)
  ---------------------------------------------------
  alpha Z        PSCENC =       100.91812695
  Ewald energy   TEWEN  =     39079.40692715
  -Hartree energ DENC   =    -47346.92023690
  -exchange      EXHF   =       550.77545676
  -V(xc)+E(xc)   XCENC  =       605.56756256
  PAW double counting   =     26975.87845829   -27002.94340938
  entropy T*S    EENTRO =        -0.00004630
  eigenvalues    EBANDS =     -3181.83380940
  atomic energy  EATOM  =      9607.45362622
  ---------------------------------------------------
  free energy    TOTEN  =      -611.69736749 eV

  energy without entropy =     -611.69732120  energy(sigma->0) =     -611.69734435
  exchange ACFDT corr.  =        -0.00001632  see jH, gK, PRB 81, 115126


--------------------------------------------------------------------------------------------------------




--------------------------------------- Iteration      1(   8)  ---------------------------------------


    POTLOK:  cpu time    1.4080: real time    1.4086
    SETDIJ:  cpu time    2.0905: real time    2.0911
    TRIAL :  cpu time  520.3553: real time  520.5401
    CORREC:  cpu time    0.0018: real time    0.0020
    CHARGE:  cpu time    1.6959: real time    1.6960
    --------------------------------------------
      LOOP:  cpu time  525.5535: real time  525.7399

 eigenvalue-minimisations  :     0
 total energy-change (2. order) :-0.5655468E-01  (-0.4810313E-01)
 number of electron     243.0000003 magnetization       0.9998940
 augmentation part       13.1243932 magnetization       0.4892540

 DIPCOR: dipole corrections for dipol
 direction  3 min pos     1,
 dipolmoment           0.000028      0.000012     -0.017252 electrons x Angstroem
 Tr[quadrupol]     -6454.531812

 energy correction for charged system         0.000000 eV
 dipol+quadrupol energy correction           -0.000009 eV
 added-field ion interaction          0.000419 eV  (added to PSCEN)


 Free energy of the ion-electron system (eV)
  ---------------------------------------------------
  alpha Z        PSCENC =       100.91813143
  Ewald energy   TEWEN  =     39079.40692715
  -Hartree energ DENC   =    -47349.22129454
  -exchange      EXHF   =       550.98479575
  -V(xc)+E(xc)   XCENC  =       605.70572833
  PAW double counting   =     27000.37209608   -27027.50643453
  entropy T*S    EENTRO =        -0.00003341
  eigenvalues    EBANDS =     -3179.86745176
  atomic energy  EATOM  =      9607.45362622
  ---------------------------------------------------
  free energy    TOTEN  =      -611.75392218 eV

  energy without entropy =     -611.75388876  energy(sigma->0) =     -611.75390547
  exchange ACFDT corr.  =        -0.00001046  see jH, gK, PRB 81, 115126


--------------------------------------------------------------------------------------------------------




--------------------------------------- Iteration      1(   9)  ---------------------------------------


    POTLOK:  cpu time    1.4018: real time    1.4020
    SETDIJ:  cpu time    2.0983: real time    2.0983
    TRIAL :  cpu time  519.9051: real time  519.9548
    CORREC:  cpu time    0.0019: real time    0.0021
    CHARGE:  cpu time    1.6743: real time    1.6744
    --------------------------------------------
      LOOP:  cpu time  525.0831: real time  525.1332

 eigenvalue-minimisations  :     0
 total energy-change (2. order) :-0.4334874E-01  (-0.3744278E-01)
 number of electron     243.0000003 magnetization       0.9999177
 augmentation part       13.1288698 magnetization       0.4893867

 DIPCOR: dipole corrections for dipol
 direction  3 min pos     1,
 dipolmoment           0.000028      0.000012     -0.017377 electrons x Angstroem
 Tr[quadrupol]     -6454.545588

 energy correction for charged system         0.000000 eV
 dipol+quadrupol energy correction           -0.000009 eV
 added-field ion interaction          0.000422 eV  (added to PSCEN)


 Free energy of the ion-electron system (eV)
  ---------------------------------------------------
  alpha Z        PSCENC =       100.91813433
  Ewald energy   TEWEN  =     39079.40692715
  -Hartree energ DENC   =    -47350.45808857
  -exchange      EXHF   =       551.13502147
  -V(xc)+E(xc)   XCENC  =       605.80908973
  PAW double counting   =     27014.65301073   -27041.88172972
  entropy T*S    EENTRO =        -0.00002585
  eigenvalues    EBANDS =     -3178.83322882
  atomic energy  EATOM  =      9607.45362622
  ---------------------------------------------------
  free energy    TOTEN  =      -611.79727091 eV

  energy without entropy =     -611.79724507  energy(sigma->0) =     -611.79725799
  exchange ACFDT corr.  =        -0.00000738  see jH, gK, PRB 81, 115126


--------------------------------------------------------------------------------------------------------




--------------------------------------- Iteration      1(  10)  ---------------------------------------


    POTLOK:  cpu time    1.4010: real time    1.4011
    SETDIJ:  cpu time    2.1245: real time    2.1245
    TRIAL :  cpu time  519.8134: real time  519.9936
    CORREC:  cpu time    0.0018: real time    0.0021
    CHARGE:  cpu time    1.6844: real time    1.6850
    --------------------------------------------
      LOOP:  cpu time  525.0271: real time  525.2082

 eigenvalue-minimisations  :     0
 total energy-change (2. order) :-0.3427634E-01  (-0.3012639E-01)
 number of electron     243.0000003 magnetization       0.9999326
 augmentation part       13.1314854 magnetization       0.4884131

 DIPCOR: dipole corrections for dipol
 direction  3 min pos     1,
 dipolmoment           0.000029      0.000012     -0.017434 electrons x Angstroem
 Tr[quadrupol]     -6454.549582

 energy correction for charged system         0.000000 eV
 dipol+quadrupol energy correction           -0.000009 eV
 added-field ion interaction          0.000424 eV  (added to PSCEN)


 Free energy of the ion-electron system (eV)
  ---------------------------------------------------
  alpha Z        PSCENC =       100.91813566
  Ewald energy   TEWEN  =     39079.40692715
  -Hartree energ DENC   =    -47350.92458182
  -exchange      EXHF   =       551.24399862
  -V(xc)+E(xc)   XCENC  =       605.88645825
  PAW double counting   =     27022.69415341   -27050.00295840
  entropy T*S    EENTRO =        -0.00002117
  eigenvalues    EBANDS =     -3178.50728047
  atomic energy  EATOM  =      9607.45362622
  ---------------------------------------------------
  free energy    TOTEN  =      -611.83154725 eV

  energy without entropy =     -611.83152608  energy(sigma->0) =     -611.83153667
  exchange ACFDT corr.  =        -0.00000561  see jH, gK, PRB 81, 115126


--------------------------------------------------------------------------------------------------------




--------------------------------------- Iteration      1(  11)  ---------------------------------------


    POTLOK:  cpu time    1.3982: real time    1.3987
    SETDIJ:  cpu time    2.0910: real time    2.0912
    TRIAL :  cpu time  519.8057: real time  520.0373
    CORREC:  cpu time    0.0018: real time    0.0020
    CHARGE:  cpu time    1.6748: real time    1.6750
    --------------------------------------------
      LOOP:  cpu time  524.9739: real time  525.2067

 eigenvalue-minimisations  :     0
 total energy-change (2. order) :-0.2796048E-01  (-0.2501016E-01)
 number of electron     243.0000003 magnetization       0.9999423
 augmentation part       13.1332724 magnetization       0.4867512

 DIPCOR: dipole corrections for dipol
 direction  3 min pos     1,
 dipolmoment           0.000028      0.000012     -0.017425 electrons x Angstroem
 Tr[quadrupol]     -6454.549330

 energy correction for charged system         0.000000 eV
 dipol+quadrupol energy correction           -0.000009 eV
 added-field ion interaction          0.000423 eV  (added to PSCEN)


 Free energy of the ion-electron system (eV)
  ---------------------------------------------------
  alpha Z        PSCENC =       100.91813546
  Ewald energy   TEWEN  =     39079.40692715
  -Hartree energ DENC   =    -47351.00473013
  -exchange      EXHF   =       551.32799951
  -V(xc)+E(xc)   XCENC  =       605.94832470
  PAW double counting   =     27027.27403201   -27054.63987730
  entropy T*S    EENTRO =        -0.00001814
  eigenvalues    EBANDS =     -3178.54392418
  atomic energy  EATOM  =      9607.45362622
  ---------------------------------------------------
  free energy    TOTEN  =      -611.85950773 eV

  energy without entropy =     -611.85948959  energy(sigma->0) =     -611.85949866
  exchange ACFDT corr.  =        -0.00000454  see jH, gK, PRB 81, 115126


--------------------------------------------------------------------------------------------------------




--------------------------------------- Iteration      1(  12)  ---------------------------------------


    POTLOK:  cpu time    1.3998: real time    1.3999
    SETDIJ:  cpu time    2.0923: real time    2.0923
    TRIAL :  cpu time  519.8101: real time  520.0433
    CORREC:  cpu time    0.0018: real time    0.0020
    CHARGE:  cpu time    1.6738: real time    1.6744
    --------------------------------------------
      LOOP:  cpu time  524.9803: real time  525.2145

 eigenvalue-minimisations  :     0
 total energy-change (2. order) :-0.2350373E-01  (-0.2140427E-01)
 number of electron     243.0000003 magnetization       0.9999489
 augmentation part       13.1350155 magnetization       0.4848137

 DIPCOR: dipole corrections for dipol
 direction  3 min pos     1,
 dipolmoment           0.000028      0.000012     -0.017391 electrons x Angstroem
 Tr[quadrupol]     -6454.548132

 energy correction for charged system         0.000000 eV
 dipol+quadrupol energy correction           -0.000009 eV
 added-field ion interaction          0.000423 eV  (added to PSCEN)


 Free energy of the ion-electron system (eV)
  ---------------------------------------------------
  alpha Z        PSCENC =       100.91813465
  Ewald energy   TEWEN  =     39079.40692715
  -Hartree energ DENC   =    -47350.98148214
  -exchange      EXHF   =       551.39795025
  -V(xc)+E(xc)   XCENC  =       606.00237412
  PAW double counting   =     27030.39255395   -27057.80459404
  entropy T*S    EENTRO =        -0.00001608
  eigenvalues    EBANDS =     -3178.66848347
  atomic energy  EATOM  =      9607.45362622
  ---------------------------------------------------
  free energy    TOTEN  =      -611.88301146 eV

  energy without entropy =     -611.88299537  energy(sigma->0) =     -611.88300341
  exchange ACFDT corr.  =        -0.00000386  see jH, gK, PRB 81, 115126


--------------------------------------------------------------------------------------------------------




--------------------------------------- Iteration      1(  13)  ---------------------------------------


    POTLOK:  cpu time    1.3905: real time    1.3910
    SETDIJ:  cpu time    2.0854: real time    2.0894
    TRIAL :  cpu time  520.1923: real time  520.5496
    CORREC:  cpu time    0.0019: real time    0.0021
    CHARGE:  cpu time    1.6748: real time    1.6754
    --------------------------------------------
      LOOP:  cpu time  525.3473: real time  525.7100

 eigenvalue-minimisations  :     0
 total energy-change (2. order) :-0.2033920E-01  (-0.1882489E-01)
 number of electron     243.0000003 magnetization       0.9999536
 augmentation part       13.1366953 magnetization       0.4826599

 DIPCOR: dipole corrections for dipol
 direction  3 min pos     1,
 dipolmoment           0.000028      0.000012     -0.017368 electrons x Angstroem
 Tr[quadrupol]     -6454.547364

 energy correction for charged system         0.000000 eV
 dipol+quadrupol energy correction           -0.000009 eV
 added-field ion interaction          0.000422 eV  (added to PSCEN)


 Free energy of the ion-electron system (eV)
  ---------------------------------------------------
  alpha Z        PSCENC =       100.91813412
  Ewald energy   TEWEN  =     39079.40692715
  -Hartree energ DENC   =    -47350.98419681
  -exchange      EXHF   =       551.45976964
  -V(xc)+E(xc)   XCENC  =       606.05255212
  PAW double counting   =     27033.30180909   -27060.75917610
  entropy T*S    EENTRO =        -0.00001465
  eigenvalues    EBANDS =     -3178.75277999
  atomic energy  EATOM  =      9607.45362622
  ---------------------------------------------------
  free energy    TOTEN  =      -611.90335065 eV

  energy without entropy =     -611.90333601  energy(sigma->0) =     -611.90334333
  exchange ACFDT corr.  =        -0.00000340  see jH, gK, PRB 81, 115126


--------------------------------------------------------------------------------------------------------




--------------------------------------- Iteration      1(  14)  ---------------------------------------


    POTLOK:  cpu time    1.3907: real time    1.3913
    SETDIJ:  cpu time    2.0898: real time    2.0902
    TRIAL :  cpu time  520.0532: real time  520.3028
    CORREC:  cpu time    0.0019: real time    0.0021
    CHARGE:  cpu time    1.6737: real time    1.6737
    --------------------------------------------
      LOOP:  cpu time  525.2113: real time  525.4620

 eigenvalue-minimisations  :     0
 total energy-change (2. order) :-0.1805383E-01  (-0.1694230E-01)
 number of electron     243.0000003 magnetization       0.9999569
 augmentation part       13.1380909 magnetization       0.4802759

 DIPCOR: dipole corrections for dipol
 direction  3 min pos     1,
 dipolmoment           0.000028      0.000012     -0.017360 electrons x Angstroem
 Tr[quadrupol]     -6454.547277

 energy correction for charged system         0.000000 eV
 dipol+quadrupol energy correction           -0.000009 eV
 added-field ion interaction          0.000422 eV  (added to PSCEN)


 Free energy of the ion-electron system (eV)
  ---------------------------------------------------
  alpha Z        PSCENC =       100.91813392
  Ewald energy   TEWEN  =     39079.40692715
  -Hartree energ DENC   =    -47351.02703853
  -exchange      EXHF   =       551.51614617
  -V(xc)+E(xc)   XCENC  =       606.10013467
  PAW double counting   =     27036.51552831   -27064.01651604
  entropy T*S    EENTRO =        -0.00001361
  eigenvalues    EBANDS =     -3178.78833170
  atomic energy  EATOM  =      9607.45362622
  ---------------------------------------------------
  free energy    TOTEN  =      -611.92140448 eV

  energy without entropy =     -611.92139088  energy(sigma->0) =     -611.92139768
  exchange ACFDT corr.  =        -0.00000308  see jH, gK, PRB 81, 115126


--------------------------------------------------------------------------------------------------------




--------------------------------------- Iteration      1(  15)  ---------------------------------------


    POTLOK:  cpu time    1.3883: real time    1.3884
    SETDIJ:  cpu time    2.0856: real time    2.0858
    TRIAL :  cpu time  519.8560: real time  520.0240
    CORREC:  cpu time    0.0018: real time    0.0021
    CHARGE:  cpu time    1.6761: real time    1.6761
    --------------------------------------------
      LOOP:  cpu time  525.0099: real time  525.1786

 eigenvalue-minimisations  :     0
 total energy-change (2. order) :-0.1636958E-01  (-0.1554345E-01)
 number of electron     243.0000003 magnetization       0.9999595
 augmentation part       13.1393041 magnetization       0.4778154

 DIPCOR: dipole corrections for dipol
 direction  3 min pos     1,
 dipolmoment           0.000028      0.000012     -0.017343 electrons x Angstroem
 Tr[quadrupol]     -6454.547674

 energy correction for charged system         0.000000 eV
 dipol+quadrupol energy correction           -0.000009 eV
 added-field ion interaction          0.000421 eV  (added to PSCEN)


 Free energy of the ion-electron system (eV)
  ---------------------------------------------------
  alpha Z        PSCENC =       100.91813355
  Ewald energy   TEWEN  =     39079.40692715
  -Hartree energ DENC   =    -47351.08799992
  -exchange      EXHF   =       551.56840172
  -V(xc)+E(xc)   XCENC  =       606.14548979
  PAW double counting   =     27040.10873505   -27067.64825157
  entropy T*S    EENTRO =        -0.00001283
  eigenvalues    EBANDS =     -3178.80282243
  atomic energy  EATOM  =      9607.45362622
  ---------------------------------------------------
  free energy    TOTEN  =      -611.93777406 eV

  energy without entropy =     -611.93776123  energy(sigma->0) =     -611.93776765
  exchange ACFDT corr.  =        -0.00000285  see jH, gK, PRB 81, 115126


--------------------------------------------------------------------------------------------------------




--------------------------------------- Iteration      1(  16)  ---------------------------------------


    POTLOK:  cpu time    1.3865: real time    1.3866
    SETDIJ:  cpu time    2.0894: real time    2.0896
    TRIAL :  cpu time  519.5806: real time  519.7510
    CORREC:  cpu time    0.0018: real time    0.0021
    CHARGE:  cpu time    1.6740: real time    1.6741
    --------------------------------------------
      LOOP:  cpu time  524.7342: real time  524.9052

 eigenvalue-minimisations  :     0
 total energy-change (2. order) :-0.1510486E-01  (-0.1447593E-01)
 number of electron     243.0000003 magnetization       0.9999614
 augmentation part       13.1404721 magnetization       0.4753990

 DIPCOR: dipole corrections for dipol
 direction  3 min pos     1,
 dipolmoment           0.000028      0.000012     -0.017308 electrons x Angstroem
 Tr[quadrupol]     -6454.548269

 energy correction for charged system         0.000000 eV
 dipol+quadrupol energy correction           -0.000009 eV
 added-field ion interaction          0.000421 eV  (added to PSCEN)


 Free energy of the ion-electron system (eV)
  ---------------------------------------------------
  alpha Z        PSCENC =       100.91813273
  Ewald energy   TEWEN  =     39079.40692715
  -Hartree energ DENC   =    -47351.15663816
  -exchange      EXHF   =       551.61748606
  -V(xc)+E(xc)   XCENC  =       606.18906687
  PAW double counting   =     27043.98852725   -27071.56317740
  entropy T*S    EENTRO =        -0.00001225
  eigenvalues    EBANDS =     -3178.80681681
  atomic energy  EATOM  =      9607.45362622
  ---------------------------------------------------
  free energy    TOTEN  =      -611.95287893 eV

  energy without entropy =     -611.95286668  energy(sigma->0) =     -611.95287280
  exchange ACFDT corr.  =        -0.00000268  see jH, gK, PRB 81, 115126


--------------------------------------------------------------------------------------------------------




--------------------------------------- Iteration      1(  17)  ---------------------------------------


    POTLOK:  cpu time    1.3824: real time    1.3825
    SETDIJ:  cpu time    2.0892: real time    2.0893
    TRIAL :  cpu time  519.7650: real time  519.9424
    CORREC:  cpu time    0.0018: real time    0.0020
    CHARGE:  cpu time    1.6744: real time    1.6745
    --------------------------------------------
      LOOP:  cpu time  524.9155: real time  525.0934

 eigenvalue-minimisations  :     0
 total energy-change (2. order) :-0.1412921E-01  (-0.1363534E-01)
 number of electron     243.0000003 magnetization       0.9999629
 augmentation part       13.1415088 magnetization       0.4729455

 DIPCOR: dipole corrections for dipol
 direction  3 min pos     1,
 dipolmoment           0.000028      0.000012     -0.017262 electrons x Angstroem
 Tr[quadrupol]     -6454.548761

 energy correction for charged system         0.000000 eV
 dipol+quadrupol energy correction           -0.000009 eV
 added-field ion interaction          0.000419 eV  (added to PSCEN)


 Free energy of the ion-electron system (eV)
  ---------------------------------------------------
  alpha Z        PSCENC =       100.91813164
  Ewald energy   TEWEN  =     39079.40692715
  -Hartree energ DENC   =    -47351.22360537
  -exchange      EXHF   =       551.66393193
  -V(xc)+E(xc)   XCENC  =       606.23109469
  PAW double counting   =     27047.95956688   -27075.56823181
  entropy T*S    EENTRO =        -0.00001179
  eigenvalues    EBANDS =     -3178.80843722
  atomic energy  EATOM  =      9607.45362622
  ---------------------------------------------------
  free energy    TOTEN  =      -611.96700813 eV

  energy without entropy =     -611.96699634  energy(sigma->0) =     -611.96700224
  exchange ACFDT corr.  =        -0.00000255  see jH, gK, PRB 81, 115126


--------------------------------------------------------------------------------------------------------




--------------------------------------- Iteration      1(  18)  ---------------------------------------


    POTLOK:  cpu time    1.3817: real time    1.3818
    SETDIJ:  cpu time    2.1123: real time    2.1168
    TRIAL :  cpu time  519.4117: real time  519.5896
    CORREC:  cpu time    0.0019: real time    0.0021
    CHARGE:  cpu time    1.6757: real time    1.6758
    --------------------------------------------
      LOOP:  cpu time  524.5857: real time  524.7684

 eigenvalue-minimisations  :     0
 total energy-change (2. order) :-0.1335105E-01  (-0.1295462E-01)
 number of electron     243.0000003 magnetization       0.9999641
 augmentation part       13.1424075 magnetization       0.4703882

 DIPCOR: dipole corrections for dipol
 direction  3 min pos     1,
 dipolmoment           0.000028      0.000012     -0.017216 electrons x Angstroem
 Tr[quadrupol]     -6454.548935

 energy correction for charged system         0.000000 eV
 dipol+quadrupol energy correction           -0.000008 eV
 added-field ion interaction          0.000418 eV  (added to PSCEN)


 Free energy of the ion-electron system (eV)
  ---------------------------------------------------
  alpha Z        PSCENC =       100.91813058
  Ewald energy   TEWEN  =     39079.40692715
  -Hartree energ DENC   =    -47351.27307947
  -exchange      EXHF   =       551.70792201
  -V(xc)+E(xc)   XCENC  =       606.27145736
[...]
  augment    42.54582    49.29975    47.37475    -0.17613    -0.21992     0.00753
  Kinetic  3601.39953  3620.08635  4101.32409    -1.71026    -1.02781    -0.06950
  Fock     -323.47672  -329.38081  -302.84218     1.33205    -0.02281    -0.04529
  -------------------------------------------------------------------------------------
  Total     -14.56662   -37.53674    -0.36412    -3.37502    -0.28368     0.08211
  in kB      -7.34625   -18.93057    -0.18363    -1.70209    -0.14307     0.04141
  external pressure =       -8.82 kB  Pullay stress =        0.00 kB


 VOLUME and BASIS-vectors are now :
 -----------------------------------------------------------------------------
  energy-cutoff  :      500.00
  volume of cell :     3176.90
      direct lattice vectors                 reciprocal lattice vectors
    12.669700000  0.000000000  0.000000000     0.078928467 -0.000452121  0.000128754
     0.071833731 12.540294262  0.000000000     0.000000000  0.079742945  0.000057152
    -0.032699933 -0.014330724 19.995368126     0.000000000  0.000000000  0.050011582

  length of vectors
    12.669700000 12.540500000 19.995400000     0.078929867  0.079742966  0.050011582


 FORCES acting on ions:
    Electron-Ion                     Ewald-Force                    Non-Local-Force
 -----------------------------------------------------------------------------------------------
   0.152E+01 -.907E+00 -.122E+01   -.149E+01 0.844E+00 0.121E+01   -.976E-01 0.269E-01 0.656E-02
   0.158E+01 0.134E+01 -.410E+00   -.157E+01 -.134E+01 0.409E+00   0.329E-01 0.452E-01 0.225E-02
   0.869E+01 -.945E+00 -.224E+01   -.860E+01 0.108E+01 0.224E+01   -.353E-01 -.108E+00 -.101E-01
   0.265E+01 0.260E+01 -.225E+01   -.231E+01 -.258E+01 0.226E+01   -.304E+00 0.520E-01 -.597E-02
   0.287E+01 0.891E+01 -.216E+01   -.273E+01 -.911E+01 0.215E+01   -.639E-01 0.150E+00 0.164E-01
   0.122E+02 -.127E+01 0.142E+01   -.127E+02 0.136E+01 -.141E+01   0.311E+00 -.727E-01 0.576E-02
   0.133E+02 0.564E+00 0.660E+00   -.135E+02 -.695E+00 -.668E+00   0.192E+00 0.759E-01 0.221E-01
   -.143E+02 0.273E+02 -.784E+01   0.175E+02 -.307E+02 0.792E+01   -.295E+01 0.327E+01 -.797E-01
   0.791E+01 -.405E+01 0.190E+01   -.797E+01 0.362E+01 -.190E+01   0.146E+00 0.123E+00 0.704E-02
   0.427E+02 -.128E+02 0.608E+00   -.464E+02 0.134E+02 -.646E+00   0.354E+01 -.408E+00 0.500E-01
   0.898E+01 0.434E+01 -.688E+00   -.937E+01 -.434E+01 0.698E+00   0.265E+00 0.154E+00 -.839E-02
   0.400E+02 0.159E+02 0.186E+01   -.431E+02 -.164E+02 -.182E+01   0.347E+01 0.547E+00 -.304E-01
   -.132E+02 -.258E+02 0.517E+01   0.153E+02 0.288E+02 -.519E+01   -.230E+01 -.301E+01 0.194E-01
   0.152E+01 -.119E+02 0.102E+01   -.129E+01 0.123E+02 -.102E+01   -.181E+00 -.418E+00 0.370E-02
   -.114E+01 -.113E+01 -.332E+01   0.103E+01 0.136E+01 0.332E+01   0.223E-01 -.195E+00 -.159E-01
   0.138E+02 -.256E+01 -.164E+01   -.139E+02 0.259E+01 0.163E+01   0.151E+00 -.139E+00 0.361E-03
   0.378E+01 -.130E+01 0.588E+00   -.352E+01 0.149E+01 -.577E+00   -.211E+00 -.174E+00 -.110E-01
   -.458E+01 -.753E+00 0.235E+01   0.429E+01 0.562E+00 -.235E+01   0.219E+00 0.140E+00 0.734E-03
   -.186E+01 -.866E-01 -.322E+01   0.212E+01 0.302E+00 0.322E+01   -.281E+00 -.183E+00 -.272E-02
   0.159E+01 0.515E+00 0.977E+00   -.159E+01 -.460E+00 -.974E+00   0.750E-01 -.265E-01 -.454E-02
   -.128E+01 0.952E+01 -.885E+00   0.992E+00 -.988E+01 0.875E+00   0.192E+00 0.426E+00 0.114E-01
   0.135E+02 0.171E+02 -.652E+01   -.155E+02 -.201E+02 0.649E+01   0.225E+01 0.297E+01 0.231E-01
   0.152E+01 -.503E+00 -.816E+01   -.267E+01 0.160E+01 0.817E+01   0.996E+00 -.919E+00 -.220E-01
   0.141E+02 -.206E+02 0.103E+02   -.173E+02 0.240E+02 -.104E+02   0.304E+01 -.336E+01 0.123E+00
   -.772E+01 -.467E+01 0.817E+01   0.878E+01 0.347E+01 -.823E+01   -.947E+00 0.988E+00 0.636E-01
   -.373E+01 -.667E+01 0.919E+01   0.355E+01 0.698E+01 -.921E+01   0.142E+00 -.193E+00 0.203E-01
   -.409E+01 -.285E+01 0.910E+01   0.377E+01 0.286E+01 -.910E+01   0.304E+00 -.133E+00 0.258E-01
   -.235E+01 -.163E+01 0.350E+01   0.237E+01 0.156E+01 -.351E+01   -.897E-01 0.355E-01 0.112E-01
   0.573E+00 -.593E+00 0.744E+01   -.840E+00 0.372E+00 -.743E+01   0.272E+00 0.239E+00 0.464E-02
   -.196E+01 0.505E+00 0.630E+01   0.191E+01 -.386E+00 -.630E+01   0.109E+00 -.502E-01 0.155E-01
   -.710E+01 0.166E+00 -.125E+01   0.704E+01 -.499E-01 0.125E+01   -.356E-01 -.364E-01 -.918E-02
   -.127E+02 0.569E+00 -.470E+00   0.128E+02 -.635E+00 0.467E+00   -.141E+00 0.137E+00 -.916E-03
   0.195E+01 0.478E+00 0.112E+01   -.184E+01 -.676E+00 -.112E+01   -.244E-01 0.206E+00 0.105E-01
   0.698E+01 -.357E+01 -.140E+00   -.694E+01 0.372E+01 0.139E+00   -.362E-01 -.931E-01 0.379E-02
   -.427E+01 -.432E+01 0.784E+00   0.449E+01 0.447E+01 -.801E+00   -.261E+00 -.229E+00 0.246E-01
   -.347E+02 -.183E+02 -.383E+01   0.379E+02 0.187E+02 0.373E+01   -.342E+01 -.608E+00 0.854E-01
   -.622E+01 -.602E+01 -.154E+01   0.664E+01 0.604E+01 0.154E+01   -.299E+00 -.109E+00 -.693E-02
   0.779E+01 -.405E+01 0.146E+01   -.790E+01 0.451E+01 -.146E+01   0.185E+00 -.355E+00 0.106E-01
   0.287E+01 -.422E+01 0.392E+00   -.292E+01 0.450E+01 -.395E+00   0.183E+00 -.180E+00 0.955E-02
   -.390E+02 0.168E+02 0.973E+00   0.428E+02 -.174E+02 -.968E+00   -.366E+01 0.513E+00 -.121E-01
   -.294E+01 0.449E+01 -.225E+01   0.311E+01 -.415E+01 0.225E+01   -.236E+00 -.102E+00 -.114E-01
   0.393E+00 0.446E+01 0.132E+01   -.318E+00 -.476E+01 -.131E+01   -.243E+00 0.215E+00 -.151E-02
   -.565E+01 0.526E+01 0.878E+00   0.585E+01 -.572E+01 -.879E+00   -.258E+00 0.340E+00 -.739E-03
   -.119E+02 0.183E+00 0.494E+01   0.121E+02 -.505E-01 -.492E+01   -.157E+00 -.830E-01 -.757E-02
   -.103E+02 0.253E+01 0.271E+01   0.108E+02 -.261E+01 -.271E+01   -.392E+00 0.362E-01 0.395E-02
   0.578E+01 0.356E+01 -.932E+00   -.595E+01 -.369E+01 0.930E+00   0.229E+00 0.210E+00 -.506E-02
   -.571E+01 0.318E+01 -.139E+01   0.572E+01 -.331E+01 0.140E+01   0.157E-01 0.951E-01 -.172E-01
   -.858E+01 0.467E+00 0.401E+01   0.849E+01 -.604E+00 -.400E+01   0.377E-01 0.741E-01 0.915E-02
   -.794E+00 -.823E+00 0.299E+01   0.787E+00 0.872E+00 -.300E+01   -.530E-01 -.817E-01 0.922E-02
   0.798E+01 -.531E+00 -.286E+01   -.790E+01 0.416E+00 0.286E+01   0.211E-01 0.298E-01 -.119E-01
   -.263E+02 -.306E+02 -.140E+02   0.295E+02 0.364E+02 0.142E+02   -.401E+01 -.624E+01 -.202E+00
   0.877E+01 0.291E+02 0.110E+02   -.124E+02 -.347E+02 -.111E+02   0.433E+01 0.620E+01 0.950E-01
   0.717E+01 -.307E+02 -.771E+01   0.258E+01 0.465E+02 0.798E+01   -.966E+01 -.155E+02 -.262E+00
   -.837E+00 0.415E+02 0.923E+01   0.123E+02 -.601E+02 -.965E+01   -.118E+02 0.179E+02 0.407E+00
   0.150E+02 -.570E+02 -.136E+02   -.265E+02 0.756E+02 0.140E+02   0.118E+02 -.178E+02 -.474E+00
   0.728E+01 0.491E+02 0.604E+01   -.172E+02 -.653E+02 -.610E+01   0.961E+01 0.158E+02 0.215E-01
   -.316E+02 0.777E+00 0.916E+01   0.287E+02 0.347E+01 -.924E+01   0.114E+01 -.254E+01 -.167E-01
   -.994E+00 0.105E+02 -.375E+02   0.298E+01 -.140E+02 0.371E+02   -.217E+00 0.197E+01 0.537E+00
 -----------------------------------------------------------------------------------------------
   -.110E+01 0.483E+00 -.427E+00   -.213E-13 -.711E-13 0.000E+00   0.862E+00 -.348E+00 0.431E+00
 
 
 POSITION                                       TOTAL-FORCE (eV/Angst)
 -----------------------------------------------------------------------------------
      2.86534     12.51553     10.00579        -0.071320     -0.036055     -0.001266
      0.68083      1.23269     10.00613         0.039554      0.060377      0.001651
      1.45249     12.52259     10.00855         0.064731      0.017478     -0.011619
      3.50429      1.20693     10.01568         0.015663      0.079301      0.002676
      2.79886      2.43693     10.01902         0.070477     -0.041058      0.012744
      0.70774      3.73917     10.00146        -0.116371      0.011507      0.016890
      1.38501      2.47008     10.00665         0.031875     -0.055870      0.016443
      3.52210      3.65619     10.03629         0.102500      0.094639     -0.005035
      0.80911      6.24353      9.99216         0.084175     -0.309836      0.006653
      1.47797      4.95571     10.00370         0.127164      0.162545      0.014681
      0.77595      8.76025      9.99452        -0.117915      0.157884      0.000708
      1.52593      7.52389      9.98567         0.566473      0.167894      0.000098
      3.54622      8.81901      9.97070        -0.291281     -0.199051     -0.003270
      2.85941     10.04686      9.98714         0.033854     -0.057698     -0.003531
      0.75360     11.27382     10.00760        -0.097044      0.026410     -0.017729
      1.44840     10.02598      9.99844         0.059383     -0.113927     -0.006916
      3.56692     11.28358      9.99193         0.045330      0.011436     -0.001042
      7.10052     12.51694      9.99071        -0.061435     -0.047414      0.000955
      4.91991      1.20823     10.01940        -0.038942      0.024194      0.000410
      5.68929     12.51260      9.99620         0.082045      0.029022     -0.001941
      7.73613      1.21468     10.01051        -0.076427      0.096162      0.001476
      7.05010      2.44161     10.03652         0.330368      0.147041     -0.006169
      5.61656      2.44895     10.04226        -0.096828      0.135893     -0.012170
      7.06739      7.60249      9.96022        -0.005697     -0.175075      0.022004
      4.97853      8.80281      9.95851         0.057424     -0.164667      0.009297
      7.79089      8.82266      9.95596        -0.023083      0.099342      0.011451
      7.08978     10.05423      9.95595        -0.004582     -0.136602      0.023665
      4.97896     11.28230      9.98064        -0.082148     -0.027252      0.002584
      5.67585     10.04539      9.96085         0.023148      0.030760      0.009760
      7.80108     11.28509      9.97048         0.071160      0.067751      0.018940
     11.31996     12.52965     10.00296        -0.112028      0.079829     -0.009886
      9.14740      1.23690     10.00611        -0.037174      0.077572     -0.003810
      9.91227     12.52832      9.99498         0.092267      0.019583      0.004463
     11.93513      1.24549     10.00389         0.006364      0.048663      0.003071
     11.24282      2.50822     10.00332        -0.065516     -0.091617      0.009495
      9.07059      3.74260     10.02460        -0.471852     -0.233771     -0.004963
      9.82105      2.50282     10.01236         0.112101     -0.096312     -0.010588
     11.95164      3.76088      9.99973         0.089719      0.087875      0.017350
     11.24652      5.01628     10.00000         0.150100      0.087333      0.007166
      9.12394      6.30866      9.99289        -0.122633     -0.050678     -0.007597
      9.79116      5.01963     10.00923        -0.074740      0.242971     -0.012428
     12.02401      6.24680      9.99308        -0.185180     -0.076310      0.006629
     11.31773      7.50379      9.99035        -0.080323     -0.106057     -0.001521
      9.20702      8.79012      9.97071        -0.026187      0.048954      0.005602
      9.89299      7.52631      9.98290         0.092623     -0.045675      0.001410
     12.02341      8.75569      9.99530         0.078830      0.086273     -0.007367
     11.32810     10.01619      9.99619         0.008868     -0.036824     -0.014738
      9.21342     11.27932      9.97903        -0.056218     -0.058621      0.015639
      9.91262     10.02886      9.97999        -0.054813     -0.040105      0.005658
     12.01551     11.27277     10.00527         0.112577     -0.084391     -0.020951
      4.93602      3.69071     10.05785        -1.017738     -0.771944     -0.031108
      5.64329      7.54900      9.95746         0.953207      0.916278     -0.024345
      2.84651      4.87305     10.02250        -0.760054     -1.049663     -0.004910
      2.90764      7.60073      9.97055        -1.402281      0.877135      0.019112
      7.69168      3.66288     10.04776         1.263702     -0.857268     -0.050975
      7.76371      6.39759      9.98598         0.539273      0.975644     -0.030755
      4.26099      6.12218      9.98969        -1.012033      1.656916     -0.076847
      6.28832      5.15545     10.07135         1.256887     -1.660919      0.114796
 -----------------------------------------------------------------------------------
    total drift:                                0.001987     -0.003745     -0.000431


--------------------------------------------------------------------------------------------------------



  FREE ENERGIE OF THE ION-ELECTRON SYSTEM (eV)
  ---------------------------------------------------
  free  energy   TOTEN  =      -612.19558210 eV

  energy  without entropy=     -612.19557403  energy(sigma->0) =     -612.19557806
 


--------------------------------------------------------------------------------------------------------


    POTLOK:  cpu time    3.4557: real time    3.4560


--------------------------------------------------------------------------------------------------------


 stress matrix after NEB project (eV)
    -14.56662     -3.37562      0.08211
     -3.37502    -37.53674     -0.29146
      0.08130     -0.28368     -0.36412
  FORCES: max atom, RMS     2.086048    0.603996
  FORCE total and by dimension    4.599893    1.660919
  Stress total and by dimension   40.549846   37.536738
 writing wavefunctions
     LOOP+:  cpu time69382.1396: real time69401.1163
    4ORBIT:  cpu time    0.0000: real time    0.0000
 


 total charge     
 
# of ion       s       p       d       tot
------------------------------------------
    1        0.872   1.790   0.000   2.662
    2        0.867   1.781   0.000   2.649
    3        0.867   1.776   0.000   2.643
    4        0.872   1.788   0.000   2.660
    5        0.874   1.797   0.000   2.671
    6        0.863   1.762   0.000   2.624
    7        0.868   1.773   0.000   2.641
    8        0.869   1.734   0.000   2.602
    9        0.845   1.734   0.000   2.580
   10        0.854   1.717   0.000   2.571
   11        0.864   1.763   0.000   2.628
   12        0.851   1.692   0.000   2.543
   13        0.869   1.757   0.000   2.626
   14        0.874   1.805   0.000   2.679
   15        0.869   1.783   0.000   2.652
   16        0.870   1.773   0.000   2.642
   17        0.870   1.794   0.000   2.664
   18        0.870   1.795   0.000   2.664
   19        0.871   1.790   0.000   2.661
   20        0.872   1.791   0.000   2.663
   21        0.873   1.805   0.000   2.679
   22        0.868   1.753   0.000   2.622
   23        0.873   1.769   0.000   2.642
   24        0.868   1.726   0.000   2.594
   25        0.872   1.767   0.000   2.640
   26        0.873   1.797   0.000   2.670
   27        0.872   1.790   0.000   2.663
   28        0.872   1.790   0.000   2.662
   29        0.871   1.789   0.000   2.660
   30        0.872   1.791   0.000   2.663
   31        0.868   1.774   0.000   2.642
   32        0.870   1.771   0.000   2.641
   33        0.869   1.784   0.000   2.653
   34        0.866   1.768   0.000   2.634
   35        0.863   1.758   0.000   2.621
   36        0.852   1.688   0.000   2.539
   37        0.864   1.762   0.000   2.626
   38        0.862   1.754   0.000   2.616
   39        0.853   1.725   0.000   2.578
   40        0.856   1.717   0.000   2.574
   41        0.845   1.737   0.000   2.582
   42        0.852   1.725   0.000   2.578
   43        0.862   1.754   0.000   2.617
   44        0.868   1.768   0.000   2.636
   45        0.863   1.764   0.000   2.627
   46        0.863   1.761   0.000   2.624
   47        0.866   1.766   0.000   2.632
   48        0.867   1.775   0.000   2.643
   49        0.867   1.781   0.000   2.648
   50        0.868   1.775   0.000   2.643
   51        0.867   1.716   0.000   2.583
   52        0.864   1.699   0.000   2.562
   53        1.235   2.707   0.000   3.942
   54        1.240   2.660   0.000   3.900
   55        1.238   2.665   0.000   3.903
   56        1.235   2.715   0.000   3.950
   57        0.483   0.584   6.122   7.189
   58        0.384   0.427   4.902   5.714
--------------------------------------------------
tot         50.835 103.456  11.024 165.316
 


 magnetization (x)
 
# of ion       s       p       d       tot
------------------------------------------
    1       -0.001  -0.007   0.000  -0.008
    2       -0.000  -0.005   0.000  -0.005
    3        0.001   0.007   0.000   0.007
    4        0.001   0.014   0.000   0.014
    5       -0.002  -0.012   0.000  -0.014
    6       -0.001  -0.007   0.000  -0.008
    7        0.001   0.009   0.000   0.009
    8       -0.000   0.017   0.000   0.016
    9       -0.001  -0.013   0.000  -0.014
   10        0.001   0.014   0.000   0.014
   11       -0.001  -0.009   0.000  -0.010
   12        0.001   0.015   0.000   0.016
   13        0.001   0.006   0.000   0.007
   14       -0.001  -0.005   0.000  -0.006
   15       -0.001  -0.006   0.000  -0.007
   16        0.001   0.008   0.000   0.009
   17        0.001   0.008   0.000   0.008
   18       -0.001  -0.009   0.000  -0.009
   19       -0.002  -0.012   0.000  -0.014
   20        0.001   0.008   0.000   0.009
   21        0.001   0.005   0.000   0.005
   22       -0.001  -0.005   0.000  -0.006
   23        0.001   0.023   0.000   0.024
   24        0.002   0.003   0.000   0.005
   25        0.001  -0.012   0.000  -0.012
   26        0.001   0.008   0.000   0.009
   27       -0.000  -0.006   0.000  -0.007
   28       -0.001  -0.007   0.000  -0.008
   29        0.002   0.009   0.000   0.011
   30        0.000   0.005   0.000   0.006
   31       -0.000  -0.003   0.000  -0.004
   32       -0.000  -0.002   0.000  -0.003
   33        0.000   0.006   0.000   0.006
   34        0.001   0.007   0.000   0.007
   35       -0.000  -0.006   0.000  -0.006
   36        0.000  -0.001   0.000  -0.001
   37        0.001   0.006   0.000   0.007
   38        0.001   0.009   0.000   0.010
   39       -0.001  -0.006   0.000  -0.007
   40        0.000  -0.000   0.000  -0.000
   41        0.001   0.011   0.000   0.011
   42        0.001   0.006   0.000   0.007
   43       -0.001  -0.008   0.000  -0.009
   44       -0.000  -0.002   0.000  -0.002
   45        0.000   0.003   0.000   0.004
   46        0.001   0.008   0.000   0.009
   47       -0.000  -0.004   0.000  -0.004
   48       -0.000  -0.004   0.000  -0.005
   49        0.000   0.004   0.000   0.005
   50        0.001   0.007   0.000   0.007
   51       -0.026  -0.090   0.000  -0.116
   52        0.020   0.050   0.000   0.070
   53       -0.003  -0.003   0.000  -0.006
   54       -0.012  -0.059   0.000  -0.071
   55        0.008   0.034   0.000   0.043
   56       -0.001  -0.015   0.000  -0.015
   57       -0.071  -0.017  -3.170  -3.258
   58        0.080   0.037   4.004   4.122
--------------------------------------------------
tot          0.001   0.010   0.834   0.845
 

 total amount of memory used by VASP MPI-rank0   178853. kBytes
=======================================================================

   base      :      30000. kBytes
   nonl-proj :       5318. kBytes
   fftplans  :      14250. kBytes
   grid      :      36827. kBytes
   one-center:         62. kBytes
   HF        :         23. kBytes
   nonlr-proj:      15504. kBytes
   wavefun   :      76869. kBytes
 
  
  
 General timing and accounting informations for this job:
 ========================================================
  
                  Total CPU time used (sec):    69474.648
                            User time (sec):    69405.284
                          System time (sec):       69.362
                         Elapsed time (sec):    69496.359
  
                   Maximum memory used (kb):      435260.
                   Average memory used (kb):           0.
  
                          Minor page faults:       539784
                          Major page faults:            0
                 Voluntary context switches:         1404
