 vasp.5.4.4.18Apr17-6-g9f103f2a35 (build Feb 25 2019 10:51:38) complex          
  
 executed on             LinuxIFC date 2021.03.10  00:18:01
 running on   80 total cores
 distrk:  each k-point on   40 cores,    2 groups
 distr:  one band on NCORES_PER_BAND=  40 cores,    1 groups


--------------------------------------------------------------------------------------------------------


 INCAR:
 POTCAR:    PAW_PBE C 08Apr2002                   
 POTCAR:    PAW_PBE N 08Apr2002                   
 POTCAR:    PAW_PBE Cu 22Jun2005                  
 POTCAR:    PAW_PBE Fe 06Sep2000                  

 ----------------------------------------------------------------------------- 
|                                                                             |
|           W    W    AA    RRRRR   N    N  II  N    N   GGGG   !!!           |
|           W    W   A  A   R    R  NN   N  II  NN   N  G    G  !!!           |
|           W    W  A    A  R    R  N N  N  II  N N  N  G       !!!           |
|           W WW W  AAAAAA  RRRRR   N  N N  II  N  N N  G  GGG   !            |
|           WW  WW  A    A  R   R   N   NN  II  N   NN  G    G                |
|           W    W  A    A  R    R  N    N  II  N    N   GGGG   !!!           |
|                                                                             |
|      For optimal performance we recommend to set                            |
|        NCORE= 4 - approx SQRT( number of cores)                             |
|      NCORE specifies how many cores store one orbital (NPAR=cpu/NCORE).     |
|      This setting can  greatly improve the performance of VASP for DFT.     |
|      The default,   NCORE=1            might be grossly inefficient         |
|      on modern multi-core architectures or massively parallel machines.     |
|      Do your own testing !!!!                                               |
|      Unfortunately you need to use the default for GW and RPA calculations. |
|      (for HF NCORE is supported but not extensively tested yet)             |
|                                                                             |
 ----------------------------------------------------------------------------- 


 ----------------------------------------------------------------------------- 
|                                                                             |
|           W    W    AA    RRRRR   N    N  II  N    N   GGGG   !!!           |
|           W    W   A  A   R    R  NN   N  II  NN   N  G    G  !!!           |
|           W    W  A    A  R    R  N N  N  II  N N  N  G       !!!           |
|           W WW W  AAAAAA  RRRRR   N  N N  II  N  N N  G  GGG   !            |
|           WW  WW  A    A  R   R   N   NN  II  N   NN  G    G                |
|           W    W  A    A  R    R  N    N  II  N    N   GGGG   !!!           |
|                                                                             |
|      You have enabled k-point parallelism (KPAR>1).                         |
|      This developmental code was originally  written by Paul Kent at ORNL,  |
|      and carefully double checked in Vienna.                                |
|      GW as well as linear response parallelism added by Martijn Marsman     |
|      and Georg Kresse.                                                      |
|      Carefully verify results versus KPAR=1.                                |
|      Report problems to Paul Kent and Vienna.                               |
|                                                                             |
 ----------------------------------------------------------------------------- 

 POTCAR:    PAW_PBE C 08Apr2002                   
   VRHFIN =C: s2p2                                                              
   LEXCH  = PE                                                                  
   EATOM  =   147.1560 eV,   10.8157 Ry                                         
                                                                                
   TITEL  = PAW_PBE C 08Apr2002                                                 
   LULTRA =        F    use ultrasoft PP ?                                      
   IUNSCR =        1    unscreen: 0-lin 1-nonlin 2-no                           
   RPACOR =    1.200    partial core radius                                     
   POMASS =   12.011; ZVAL   =    4.000    mass and valenz                      
   RCORE  =    1.500    outmost cutoff radius                                   
   RWIGS  =    1.630; RWIGS  =    0.863    wigner-seitz radius (au A)           
   ENMAX  =  400.000; ENMIN  =  300.000 eV                                      
   ICORE  =        2    local potential                                         
   LCOR   =        T    correct aug charges                                     
   LPAW   =        T    paw PP                                                  
   EAUG   =  644.873                                                            
   DEXC   =    0.000                                                            
   RMAX   =    1.529    core radius for proj-oper                               
   RAUG   =    1.300    factor for augmentation sphere                          
   RDEP   =    1.501    radius for radial grids                                 
   RDEPT  =    1.300    core radius for aug-charge                              
                                                                                
   Atomic configuration                                                         
    4 entries                                                                   
     n  l   j            E        occ.                                          
     1  0  0.50      -273.3789   2.0000                                         
     2  0  0.50       -13.7508   2.0000                                         
     2  1  0.50        -5.2854   2.0000                                         
     3  2  1.50        -5.4423   0.0000                                         
   Description                                                                  
     l       E           TYP  RCUT    TYP  RCUT                                 
     0    -13.7508458     23  1.200                                             
     0     -8.2022199     23  1.200                                             
     1     -5.2854383     23  1.500                                             
     1     34.0145650     23  1.500                                             
     2     -5.4423304      7  1.500                                             
  local pseudopotential read in
  partial core-charges read in
  partial kinetic energy density read in
  atomic valenz-charges read in
  non local Contribution for L=           0  read in
    real space projection operators read in
  non local Contribution for L=           0  read in
    real space projection operators read in
  non local Contribution for L=           1  read in
    real space projection operators read in
  non local Contribution for L=           1  read in
    real space projection operators read in
    PAW grid and wavefunctions read in
 
   number of l-projection  operators is LMAX  =           4
   number of lm-projection operators is LMMAX =           8
 
 POTCAR:    PAW_PBE N 08Apr2002                   
   VRHFIN =N: s2p3                                                              
   LEXCH  = PE                                                                  
   EATOM  =   264.5486 eV,   19.4438 Ry                                         
                                                                                
   TITEL  = PAW_PBE N 08Apr2002                                                 
   LULTRA =        F    use ultrasoft PP ?                                      
   IUNSCR =        1    unscreen: 0-lin 1-nonlin 2-no                           
   RPACOR =    1.200    partial core radius                                     
   POMASS =   14.001; ZVAL   =    5.000    mass and valenz                      
   RCORE  =    1.500    outmost cutoff radius                                   
   RWIGS  =    1.400; RWIGS  =    0.741    wigner-seitz radius (au A)           
   ENMAX  =  400.000; ENMIN  =  300.000 eV                                      
   ICORE  =        2    local potential                                         
   LCOR   =        T    correct aug charges                                     
   LPAW   =        T    paw PP                                                  
   EAUG   =  627.112                                                            
   DEXC   =    0.000                                                            
   RMAX   =    1.529    core radius for proj-oper                               
   RAUG   =    1.300    factor for augmentation sphere                          
   RDEP   =    1.514    radius for radial grids                                 
   RDEPT  =    1.338    core radius for aug-charge                              
                                                                                
   Atomic configuration                                                         
    4 entries                                                                   
     n  l   j            E        occ.                                          
     1  0  0.50      -384.7179   2.0000                                         
     2  0  0.50       -18.5828   2.0000                                         
     2  1  0.50        -7.0898   3.0000                                         
     3  2  1.50        -6.8029   0.0000                                         
   Description                                                                  
     l       E           TYP  RCUT    TYP  RCUT                                 
     0    -18.5828119     23  1.200                                             
     0    -13.5018863     23  1.200                                             
     1     -7.0897853     23  1.500                                             
     1      9.5240782     23  1.500                                             
     2     -6.8029130      7  1.500                                             
  local pseudopotential read in
  partial core-charges read in
  partial kinetic energy density read in
  atomic valenz-charges read in
  non local Contribution for L=           0  read in
    real space projection operators read in
  non local Contribution for L=           0  read in
    real space projection operators read in
  non local Contribution for L=           1  read in
    real space projection operators read in
  non local Contribution for L=           1  read in
    real space projection operators read in
    PAW grid and wavefunctions read in
 
   number of l-projection  operators is LMAX  =           4
   number of lm-projection operators is LMMAX =           8
 
 POTCAR:    PAW_PBE Cu 22Jun2005                  
   VRHFIN =Cu: d10 p1                                                           
   LEXCH  = PE                                                                  
   EATOM  =  1390.9808 eV,  102.2342 Ry                                         
                                                                                
   TITEL  = PAW_PBE Cu 22Jun2005                                                
   LULTRA =        F    use ultrasoft PP ?                                      
   IUNSCR =        1    unscreen: 0-lin 1-nonlin 2-no                           
   RPACOR =    2.000    partial core radius                                     
   POMASS =   63.546; ZVAL   =   11.000    mass and valenz                      
   RCORE  =    2.300    outmost cutoff radius                                   
   RWIGS  =    2.200; RWIGS  =    1.164    wigner-seitz radius (au A)           
   ENMAX  =  295.446; ENMIN  =  221.585 eV                                      
   ICORE  =        3    local potential                                         
   LCOR   =        T    correct aug charges                                     
   LPAW   =        T    paw PP                                                  
   EAUG   =  586.980                                                            
   DEXC   =    0.000                                                            
   RMAX   =    2.344    core radius for proj-oper                               
   RAUG   =    1.300    factor for augmentation sphere                          
   RDEP   =    2.302    radius for radial grids                                 
   RDEPT  =    1.771    core radius for aug-charge                              
                                                                                
   Atomic configuration                                                         
    9 entries                                                                   
     n  l   j            E        occ.                                          
     1  0  0.50     -8850.2468   2.0000                                         
     2  0  0.50     -1062.3498   2.0000                                         
     2  1  1.50      -916.8226   6.0000                                         
     3  0  0.50      -114.6929   2.0000                                         
     3  1  1.50       -72.1325   6.0000                                         
     3  2  2.50        -5.0394  10.0000                                         
     4  0  0.50        -4.6097   1.0000                                         
     4  1  0.50        -4.0817   0.0000                                         
     4  3  2.50        -1.3606   0.0000                                         
   Description                                                                  
     l       E           TYP  RCUT    TYP  RCUT                                 
     2     -5.0393973     23  2.200                                             
     2     10.8846608     23  2.200                                             
     0     -4.6097109     23  2.200                                             
     0      8.2520465     23  2.200                                             
     1     -2.7211652     23  2.200                                             
     1     21.7055443     23  2.200                                             
     3      2.7211652     23  2.300                                             
  local pseudopotential read in
  partial core-charges read in
  partial kinetic energy density read in
  atomic valenz-charges read in
  non local Contribution for L=           2  read in
    real space projection operators read in
  non local Contribution for L=           2  read in
    real space projection operators read in
  non local Contribution for L=           0  read in
    real space projection operators read in
  non local Contribution for L=           0  read in
    real space projection operators read in
  non local Contribution for L=           1  read in
    real space projection operators read in
  non local Contribution for L=           1  read in
    real space projection operators read in
    PAW grid and wavefunctions read in
 
   number of l-projection  operators is LMAX  =           6
   number of lm-projection operators is LMMAX =          18
 
 POTCAR:    PAW_PBE Fe 06Sep2000                  
   VRHFIN =Fe:  d7 s1                                                           
   LEXCH  = PE                                                                  
   EATOM  =   594.3153 eV,   43.6809 Ry                                         
                                                                                
   TITEL  = PAW_PBE Fe 06Sep2000                                                
   LULTRA =        F    use ultrasoft PP ?                                      
   IUNSCR =        1    unscreen: 0-lin 1-nonlin 2-no                           
   RPACOR =    2.000    partial core radius                                     
   POMASS =   55.847; ZVAL   =    8.000    mass and valenz                      
   RCORE  =    2.300    outmost cutoff radius                                   
   RWIGS  =    2.460; RWIGS  =    1.302    wigner-seitz radius (au A)           
   ENMAX  =  267.882; ENMIN  =  200.911 eV                                      
   RCLOC  =    1.701    cutoff for local pot                                    
   LCOR   =        T    correct aug charges                                     
   LPAW   =        T    paw PP                                                  
   EAUG   =  511.368                                                            
   DEXC   =    0.000                                                            
   RMAX   =    2.356    core radius for proj-oper                               
   RAUG   =    1.300    factor for augmentation sphere                          
   RDEP   =    2.442    radius for radial grids                                 
   RDEPT  =    1.890    core radius for aug-charge                              
                                                                                
   Atomic configuration                                                         
    9 entries                                                                   
     n  l   j            E        occ.                                          
     1  0  0.50     -6993.8440   2.0000                                         
     2  0  0.50      -814.6047   2.0000                                         
     2  1  1.50      -693.3689   6.0000                                         
     3  0  0.50       -89.4732   2.0000                                         
     3  1  1.50       -55.6373   6.0000                                         
     3  2  2.50        -3.8151   7.0000                                         
     4  0  0.50        -4.2551   1.0000                                         
     4  1  1.50        -3.4015   0.0000                                         
     4  3  2.50        -1.3606   0.0000                                         
   Description                                                                  
     l       E           TYP  RCUT    TYP  RCUT                                 
     2     -3.8151135     23  2.300                                             
     2     -5.1756961     23  2.300                                             
     0     -4.2550963     23  2.300                                             
     0      7.2035603     23  2.300                                             
     1     -2.7211652     23  2.300                                             
     1     18.4316424     23  2.300                                             
  local pseudopotential read in
  partial core-charges read in
  partial kinetic energy density read in
  atomic valenz-charges read in
  non local Contribution for L=           2  read in
    real space projection operators read in
  non local Contribution for L=           2  read in
    real space projection operators read in
  non local Contribution for L=           0  read in
    real space projection operators read in
  non local Contribution for L=           0  read in
    real space projection operators read in
  non local Contribution for L=           1  read in
    real space projection operators read in
  non local Contribution for L=           1  read in
    real space projection operators read in
    PAW grid and wavefunctions read in
 
   number of l-projection  operators is LMAX  =           6
   number of lm-projection operators is LMMAX =          18
 

 ----------------------------------------------------------------------------- 
|                                                                             |
|  ADVICE TO THIS USER RUNNING 'VASP/VAMP'   (HEAR YOUR MASTER'S VOICE ...):  |
|                                                                             |
|      You have a (more or less) 'large supercell' and for larger cells       |
|      it might be more efficient to use real space projection opertators     |
|      So try LREAL= Auto  in the INCAR   file.                               |
|      Mind:          For very  accurate calculation you might also keep the  |
|      reciprocal projection scheme          (i.e. LREAL=.FALSE.)             |
|                                                                             |
 ----------------------------------------------------------------------------- 

  PAW_PBE C 08Apr2002                   :
 energy of atom  1       EATOM= -147.1560
 kinetic energy error for atom=    0.0076 (will be added to EATOM!!)
  PAW_PBE N 08Apr2002                   :
 energy of atom  2       EATOM= -264.5486
 kinetic energy error for atom=    0.0138 (will be added to EATOM!!)
  PAW_PBE Cu 22Jun2005                  :
 energy of atom  3       EATOM=-1390.9808
 kinetic energy error for atom=    0.0043 (will be added to EATOM!!)
  PAW_PBE Fe 06Sep2000                  :
 energy of atom  4       EATOM= -594.3153
 kinetic energy error for atom=    0.0026 (will be added to EATOM!!)
 
 
 POSCAR:  C  N Cu Fe                             
  positions in cartesian coordinates
  No initial velocities read in
 exchange correlation table for  LEXCH =        8
   RHO(1)=    0.500       N(1)  =     2000
   RHO(2)=  100.500       N(2)  =     4000

 VTST: version 3.2, (02/03/18)

 CHAIN: initializing optimizer
 
 OPT: Using VASP Conjugate-Gradient optimizer
 CHAIN: Read ICHAIN            0
 
 POSCAR:  C  N Cu Fe                             
  positions in cartesian coordinates
  No initial velocities read in
 


--------------------------------------------------------------------------------------------------------


 ion  position               nearest neighbor table
   1  0.223  0.003  0.499-   3 1.42  19 1.42   4 1.44
   2  0.058  0.102  0.500-  36 1.43   3 1.43   7 1.44
   3  0.111  0.002  0.499-   1 1.42   2 1.43  17 1.44
   4  0.278  0.104  0.500-  21 1.42   5 1.44   1 1.44
   5  0.225  0.206  0.502-   7 1.44   4 1.44   8 1.45
   6  0.057  0.303  0.500-   7 1.43  40 1.43  11 1.43
   7  0.113  0.203  0.501-   6 1.43   5 1.44   2 1.44
   8  0.282  0.307  0.504-  25 1.45   5 1.45   9 1.46
   9  0.223  0.408  0.506-  53 1.37  11 1.44   8 1.46
  10  0.054  0.503  0.500-  14 1.43  11 1.43  44 1.44
  11  0.111  0.404  0.501-   6 1.43  10 1.43   9 1.44
  12  0.222  0.602  0.504-  53 1.37  14 1.44  15 1.46
  13  0.054  0.702  0.498-  14 1.42  18 1.43  48 1.44
  14  0.110  0.603  0.500-  13 1.42  10 1.43  12 1.44
  15  0.282  0.701  0.500-  56 1.41  16 1.44  12 1.46
  16  0.224  0.800  0.499-  15 1.44  19 1.44  18 1.44
  17  0.056  0.901  0.499-  18 1.43  52 1.44   3 1.44
  18  0.111  0.801  0.498-  13 1.43  17 1.43  16 1.44
  19  0.277  0.902  0.499-  30 1.42   1 1.42  16 1.44
  20  0.555  0.001  0.500-  23 1.42  32 1.42  22 1.42
  21  0.389  0.103  0.500-   4 1.42  26 1.43  22 1.43
  22  0.444  0.002  0.500-  20 1.42  30 1.43  21 1.43
  23  0.612  0.099  0.499-  24 1.41  20 1.42  34 1.43
  24  0.557  0.198  0.499-  27 1.41  23 1.41  26 1.42
  25  0.395  0.305  0.503-  54 1.39  26 1.44   8 1.45
  26  0.446  0.202  0.500-  24 1.42  21 1.43  25 1.44
  27  0.615  0.295  0.499-  28 1.39  24 1.41  38 1.41
  28  0.560  0.392  0.500-  54 1.36  55 1.38  27 1.39
  29  0.554  0.804  0.499-  57 1.38  32 1.41  31 1.43
  30  0.388  0.903  0.499-  31 1.42  19 1.42  22 1.43
  31  0.443  0.803  0.499-  56 1.40  30 1.42  29 1.43
  32  0.610  0.902  0.499-  29 1.41  20 1.42  50 1.43
  33  0.890  0.001  0.499-  52 1.43  35 1.43  36 1.44
  34  0.723  0.100  0.499-  35 1.42  23 1.43  39 1.43
  35  0.778  1.000  0.499-  34 1.42  50 1.43  33 1.43
  36  0.946  0.101  0.499-  37 1.42   2 1.43  33 1.44
  37  0.891  0.201  0.499-  39 1.42  36 1.42  40 1.43
  38  0.725  0.298  0.498-  27 1.41  39 1.41  43 1.42
  39  0.780  0.199  0.499-  38 1.41  37 1.42  34 1.43
  40  0.945  0.301  0.499-   6 1.43  37 1.43  41 1.43
  41  0.889  0.401  0.498-  43 1.42  44 1.43  40 1.43
  42  0.718  0.497  0.498-  55 1.38  43 1.43  47 1.44
  43  0.778  0.399  0.498-  38 1.42  41 1.42  42 1.43
  44  0.942  0.502  0.498-  41 1.43  10 1.44  45 1.44
  45  0.884  0.601  0.498-  48 1.44  44 1.44  47 1.46
  46  0.714  0.701  0.498-  57 1.40  47 1.44  51 1.45
  47  0.770  0.600  0.498-  42 1.44  46 1.44  45 1.46
  48  0.941  0.700  0.497-  49 1.42  45 1.44  13 1.44
  49  0.886  0.800  0.498-  48 1.42  51 1.44  52 1.44
  50  0.721  0.901  0.499-  51 1.43  32 1.43  35 1.43
  51  0.774  0.800  0.498-  50 1.43  49 1.44  46 1.45
  52  0.944  0.900  0.499-  33 1.43  17 1.44  49 1.44
  53  0.273  0.505  0.513-  12 1.37   9 1.37  58 2.01
  54  0.455  0.398  0.505-  28 1.36  25 1.39  58 2.13
  55  0.610  0.490  0.500-  28 1.38  42 1.38  59 1.86
  56  0.393  0.703  0.500-  31 1.40  15 1.41  59 1.97
  57  0.605  0.705  0.497-  29 1.38  46 1.40  59 1.88
  58  0.395  0.510  0.576-  53 2.01  54 2.13  59 2.35
  59  0.505  0.594  0.498-  55 1.86  57 1.88  56 1.97  58 2.35
 
  LATTYP: Found a simple orthorhombic cell.
 ALAT       =    12.4000000000
 B/A-ratio  =     1.0330645161
 C/A-ratio  =     1.6129032258
  
  Lattice vectors:
  
 A1 = (   0.0000000000, -12.4000000000,   0.0000000000)
 A2 = ( -12.8100000000,   0.0000000000,   0.0000000000)
 A3 = (   0.0000000000,   0.0000000000, -20.0000000000)


Analysis of symmetry for initial positions (statically):
=====================================================================
 Subroutine PRICEL returns:
 Original cell was already a primitive cell.
 

 Routine SETGRP: Setting up the symmetry group for a 
 simple orthorhombic supercell.


 Subroutine GETGRP returns: Found  1 space group operations
 (whereof  1 operations were pure point group operations)
 out of a pool of  8 trial point group operations.


The static configuration has the point symmetry C_1 .


Analysis of symmetry for dynamics (positions and initial velocities):
=====================================================================
 Subroutine PRICEL returns:
 Original cell was already a primitive cell.
 

 Routine SETGRP: Setting up the symmetry group for a 
 simple orthorhombic supercell.


 Subroutine GETGRP returns: Found  1 space group operations
 (whereof  1 operations were pure point group operations)
 out of a pool of  8 trial point group operations.


The dynamic configuration has the point symmetry C_1 .


Analysis of structural, dynamic, and magnetic symmetry:
=====================================================================
 Subroutine PRICEL returns:
 Original cell was already a primitive cell.
 

 Routine SETGRP: Setting up the symmetry group for a 
 simple orthorhombic supercell.


 Subroutine GETGRP returns: Found  1 space group operations
 (whereof  1 operations were pure point group operations)
 out of a pool of  8 trial point group operations.


The magnetic configuration has the point symmetry C_1 .


 Subroutine INISYM returns: Found  1 space group operations
 (whereof  1 operations are pure point group operations),
 and found     1 'primitive' translations

 
 
 KPOINTS: KPOINTS created by Atomic Simulation Env

Automatic generation of k-mesh.
Space group operators:
 irot       det(A)        alpha          n_x          n_y          n_z        tau_x        tau_y        tau_z
    1     1.000000     0.000000     1.000000     0.000000     0.000000     0.000000     0.000000     0.000000
 
 Subroutine IBZKPT returns following result:
 ===========================================
 
 Found      2 irreducible k-points:
 
 Following reciprocal coordinates:
            Coordinates               Weight
  0.250000  0.250000  0.000000      2.000000
 -0.250000  0.250000  0.000000      2.000000
 
 Following cartesian coordinates:
            Coordinates               Weight
  0.019516  0.020161  0.000000      2.000000
 -0.019516  0.020161  0.000000      2.000000
 
 
 Subroutine IBZKPT_HF returns following result:
 ==============================================
 
 Found      4 k-points in 1st BZ
 the following      4 k-points will be used (e.g. in the exchange kernel)
 Following reciprocal coordinates:   # in IRBZ
  0.250000  0.250000  0.000000    0.25000000   1 t-inv F
 -0.250000  0.250000  0.000000    0.25000000   2 t-inv F
 -0.250000 -0.250000  0.000000    0.25000000   1 t-inv T
  0.250000 -0.250000  0.000000    0.25000000   2 t-inv T


--------------------------------------------------------------------------------------------------------




 Dimension of arrays:
   k-points           NKPTS =      2   k-points in BZ     NKDIM =      4   number of bands    NBANDS=    158
   number of dos      NEDOS =    301   number of ions     NIONS =     59
   non local maximal  LDIM  =      6   non local SUM 2l+1 LMDIM =     18
   total plane-waves  NPLWV = ******
   max r-space proj   IRMAX =      1   max aug-charges    IRDMAX=  14730
   dimension x,y,z NGX =    96 NGY =   90 NGZ =  150
   dimension x,y,z NGXF=   192 NGYF=  180 NGZF=  300
   support grid    NGXF=   192 NGYF=  180 NGZF=  300
   ions per type =              52   5   1   1
   NGX,Y,Z   is equivalent  to a cutoff of  12.46, 12.07, 12.47 a.u.
   NGXF,Y,Z  is equivalent  to a cutoff of  24.92, 24.13, 24.94 a.u.

 SYSTEM =  unknown system                          
 POSCAR =   C  N Cu Fe                             

 Startparameter for this run:
   NWRITE =      2    write-flag & timer
   PREC   = accura    normal or accurate (medium, high low for compatibility)
   ISTART =      1    job   : 0-new  1-cont  2-samecut
   ICHARG =      0    charge: 1-file 2-atom 10-const
   ISPIN  =      2    spin polarized calculation?
   LNONCOLLINEAR =      F non collinear calculations
   LSORBIT =      F    spin-orbit coupling
   INIWAV =      1    electr: 0-lowe 1-rand  2-diag
   LASPH  =      T    aspherical Exc in radial PAW
   METAGGA=      F    non-selfconsistent MetaGGA calc.

 Electronic Relaxation 1
   ENCUT  =  500.0 eV  36.75 Ry    6.06 a.u.  23.36 22.61 36.46*2*pi/ulx,y,z
   ENINI  =  500.0     initial cutoff
   ENAUG  =  644.9 eV  augmentation charge cutoff
   NELM   =    250;   NELMIN=  2; NELMDL=  0     # of ELM steps 
   EDIFF  = 0.1E-03   stopping-criterion for ELM
   LREAL  =      F    real-space projection
   NLSPLINE    = F    spline interpolate recip. space projectors
   LCOMPAT=      F    compatible to vasp.4.4
   GGA_COMPAT  = T    GGA compatible to vasp.4.4-vasp.4.6
   LMAXPAW     = -100 max onsite density
   LMAXMIX     =    2 max onsite mixed and CHGCAR
   VOSKOWN=      0    Vosko Wilk Nusair interpolation
   ROPT   =    0.00000   0.00000   0.00000   0.00000
 Ionic relaxation
   EDIFFG = -.3E-01   stopping-criterion for IOM
   NSW    =      0    number of steps for IOM
   NBLOCK =      1;   KBLOCK =      1    inner block; outer block 
   IBRION =     -1    ionic relax: 0-MD 1-quasi-New 2-CG
   NFREE  =      1    steps in history (QN), initial steepest desc. (CG)
   ISIF   =      2    stress and relaxation
   IWAVPR =     10    prediction:  0-non 1-charg 2-wave 3-comb
   ISYM   =      3    0-nonsym 1-usesym 2-fastsym
   LCORR  =      T    Harris-Foulkes like correction to forces

   POTIM  = 0.5000    time-step for ionic-motion
   TEIN   =    0.0    initial temperature
   TEBEG  =    0.0;   TEEND  =   0.0 temperature during run
   SMASS  =  -3.00    Nose mass-parameter (am)
   estimated Nose-frequenzy (Omega)   =  0.10E-29 period in steps =****** mass=  -0.375E-26a.u.
   SCALEE = 1.0000    scale energy and forces
   NPACO  =    256;   APACO  = 16.0  distance and # of slots for P.C.
   PSTRESS=    0.0 pullay stress

  Mass of Ions in am
   POMASS =  12.01 14.00 63.55 55.85
  Ionic Valenz
   ZVAL   =   4.00  5.00 11.00  8.00
  Atomic Wigner-Seitz radii
   RWIGS  =  -1.00 -1.00 -1.00 -1.00
  virtual crystal weights 
   VCA    =   1.00  1.00  1.00  1.00
   NELECT =     252.0000    total number of electrons
   NUPDOWN=      -1.0000    fix difference up-down

 DOS related values:
   EMIN   =  10.00;   EMAX   =-10.00  energy-range for DOS
   EFERMI =   0.00
   ISMEAR =     0;   SIGMA  =   0.10  broadening in eV -4-tet -1-fermi 0-gaus

 Electronic relaxation 2 (details)
   IALGO  =     53    algorithm
   LDIAG  =      T    sub-space diagonalisation (order eigenvalues)
   LSUBROT=      F    optimize rotation matrix (better conditioning)
   TURBO    =      0    0=normal 1=particle mesh
   IRESTART =      0    0=no restart 2=restart with 2 vectors
   NREBOOT  =      0    no. of reboots
   NMIN     =      0    reboot dimension
   EREF     =   0.00    reference energy to select bands
   IMIX   =      4    mixing-type and parameters
     AMIX     =   0.40;   BMIX     =  1.00
     AMIX_MAG =   1.60;   BMIX_MAG =  1.00
     AMIN     =   0.10
     WC   =   100.;   INIMIX=   1;  MIXPRE=   1;  MAXMIX= -45

 Intra band minimization:
   WEIMIN = 0.0000     energy-eigenvalue tresh-hold
   EBREAK =  0.16E-06  absolut break condition
   DEPER  =   0.30     relativ break condition  

   TIME   =   0.20     timestep for ELM

  volume/ion in A,a.u.               =      53.85       363.37
  Fermi-wavevector in a.u.,A,eV,Ry     =   0.703409  1.329251  6.731953  0.494785
  Thomas-Fermi vector in A             =   1.788372
 
 Write flags
   LWAVE        =      T    write WAVECAR
   LDOWNSAMPLE  =      F    k-point downsampling of WAVECAR
   LCHARG       =      T    write CHGCAR
   LVTOT        =      F    write LOCPOT, total local potential
   LVHAR        =      T    write LOCPOT, Hartree potential only
   LELF         =      F    write electronic localiz. function (ELF)
   LORBIT       =     11    0 simple, 1 ext, 2 COOP (PROOUT), +10 PAW based schemes


 Dipole corrections
   LMONO  =      F    monopole corrections only (constant potential shift)
   LDIPOL =      T    correct potential (dipole corrections)
   IDIPOL =      3    1-x, 2-y, 3-z, 4-all directions 
   EPSILON=  1.0000000 bulk dielectric constant

 Exchange correlation treatment:
   GGA     =    PE    GGA type
   LEXCH   =     8    internal setting for exchange type
   VOSKOWN=      0    Vosko Wilk Nusair interpolation
   EXXOEP  =     0    0=HF, 1=EXX-LHF (local Hartree Fock) 2=EXX OEP
   LHFCALC =     T    Hartree Fock is set to
   LSYMGRAD=     F    symmetrize gradient (conserves proper symmetry)
   PRECFOCK=normal    Normal, Fast or Accurate (Low or Medium for compatibility)
   LRHFCALC=     F    long range Hartree Fock
   LRSCOR  =     F    long range correlation only (use DFT for short range part)
   LTHOMAS =     F    Thomas Fermi screening in HF
   LMODELHF=     F    short range full HF, long range fraction AEXX
   ENCUT4O =  -1.0   cutoff for four orbital integrals eV
   LMAXFOCK=     4    L truncation for augmentation on plane wave grid
   LMAXFOCKAE=  -1    L truncation for all-electron charge restoration on plane wave grid
   NMAXFOCKAE=   1    number of basis functions for all-electron charge restoration
   LFOCKAEDFT=     F  apply the AE augmentation even for DFT
   NKREDX  =     1    reduce k-point grid by
   NKREDY  =     1    reduce k-point grid by
   NKREDZ  =     1    reduce k-point grid by
   SHIFTRED=     F    shift reduced grid of Gamma
   HFKIDENT=     F    idential grid for each k-point
   ODDONLY =     F    use only odd q-grid points
   EVENONLY=     F    use only even q-grid points
   HFALPHA =   -1.0000 decay constant for conv. correction
   MCALPHA =    0.0000 extent of test-charge in conv. correction in multipole expansion
   AEXX    =    0.2500 exact exchange contribution
   HFSCREEN=    0.2000 screening length (either q_TF or 0.3 A-1)
   HFSCREENC=   0.2000 screening length for correlation (either q_TF or 0.3 A-1)
   HFRCUT  =    0.0000 spherical cutoff for potential kernel
   ALDAX   =    0.7500 LDA exchange part
   AGGAX   =    0.7500 GGA exchange part
   ALDAC   =    1.0000 LDA correlation
   AGGAC   =    1.0000 GGA correlation
   ENCUTFOCK=  -1.0 apply spherical cutoff to Coloumb kernel
   NBANDSGWLOW=     1    first orbital included in HF term
   NBLOCK_FOCK=    64    blocking factor in FOCK_ACC
 Linear response parameters
   LEPSILON=     F    determine dielectric tensor
   LRPA    =     F    only Hartree local field effects (RPA)
   LNABLA  =     F    use nabla operator in PAW spheres
   LVEL    =     F    velocity operator in full k-point grid
   LINTERFAST=   F  fast interpolation
   KINTER  =     0    interpolate to denser k-point grid
   CSHIFT  =0.1000    complex shift for real part using Kramers Kronig
   OMEGAMAX=  -1.0    maximum frequency
   DEG_THRESHOLD= 0.2000000E-02 threshold for treating states as degnerate
   RTIME   =   -0.100 relaxation time in fs
  (WPLASMAI=    0.000 imaginary part of plasma frequency in eV, 0.658/RTIME)
   DFIELD  = 0.0000000 0.0000000 0.0000000 field for delta impulse in time
 
 Orbital magnetization related:
   ORBITALMAG=     F  switch on orbital magnetization
   LCHIMAG   =     F  perturbation theory with respect to B field
   DQ        =  0.001000  dq finite difference perturbation B field
   LLRAUG    =     F  two centre corrections for induced B field



--------------------------------------------------------------------------------------------------------


 Static calculation
 charge density and potential will be updated during run
 spin polarized calculation
 Conjugate gradient for all bands (Freysoldt, et al. PRB 79, 241103 (2009))
 perform sub-space diagonalisation
    before iterative eigenvector-optimisation
 modified Broyden-mixing scheme, WC =      100.0
 initial mixing is a Kerker type mixing with AMIX =  0.4000 and BMIX =      1.0000
 Hartree-type preconditioning will be used
 using additional bands           32
 reciprocal scheme for non local part
 use partial core corrections
 no Harris-corrections to forces 
 use gradient corrections 
 use of overlap-Matrix (Vanderbilt PP)
 Gauss-broadening in eV      SIGMA  =   0.10


--------------------------------------------------------------------------------------------------------


  energy-cutoff  :      500.00
  volume of cell :     3176.88
      direct lattice vectors                 reciprocal lattice vectors
    12.810000000  0.000000000  0.000000000     0.078064012  0.000000000  0.000000000
     0.000000000 12.400000000  0.000000000     0.000000000  0.080645161  0.000000000
     0.000000000  0.000000000 20.000000000     0.000000000  0.000000000  0.050000000

  length of vectors
    12.810000000 12.400000000 20.000000000     0.078064012  0.080645161  0.050000000


 
 old parameters found on file WAVECAR:
  energy-cutoff  :      500.00
  volume of cell :     3176.88
      direct lattice vectors                 reciprocal lattice vectors
    12.810000000  0.000000000  0.000000000     0.078064012  0.000000000  0.000000000
     0.000000000 12.400000000  0.000000000     0.000000000  0.080645161  0.000000000
     0.000000000  0.000000000 20.000000000     0.000000000  0.000000000  0.050000000

  length of vectors

 
 k-points in units of 2pi/SCALE and weight: KPOINTS created by Atomic Simulation Env
   0.01951600  0.02016129  0.00000000       0.500
  -0.01951600  0.02016129  0.00000000       0.500
 
 k-points in reciprocal lattice and weights: KPOINTS created by Atomic Simulation Env
   0.25000000  0.25000000  0.00000000       0.500
  -0.25000000  0.25000000  0.00000000       0.500
 
 position of ions in fractional coordinates (direct lattice) 
   0.22266209  0.00252649  0.49942251
   0.05754975  0.10223054  0.49974964
   0.11142907  0.00152208  0.49937559
   0.27840752  0.10374678  0.50039235
   0.22525812  0.20575558  0.50176857
   0.05688254  0.30267469  0.49968116
   0.11319798  0.20330382  0.50052300
   0.28172220  0.30729025  0.50430416
   0.22257913  0.40793338  0.50623860
   0.05410068  0.50322137  0.50001639
   0.11089656  0.40373508  0.50106328
   0.22220029  0.60161464  0.50391308
   0.05368823  0.70164587  0.49792787
   0.11026490  0.60304303  0.49982089
   0.28242362  0.70122600  0.50030429
   0.22377987  0.80029734  0.49883615
   0.05590826  0.90093043  0.49870130
   0.11123254  0.80051164  0.49844677
   0.27732645  0.90244681  0.49897493
   0.55510434  0.00129114  0.49969118
   0.38916351  0.10258105  0.50010176
   0.44430325  0.00235593  0.49967060
   0.61223194  0.09927536  0.49933703
   0.55709313  0.19804061  0.49937317
   0.39464484  0.30456228  0.50282063
   0.44601978  0.20174245  0.50037420
   0.61494503  0.29495222  0.49863551
   0.56013359  0.39193359  0.50043602
   0.55406972  0.80382285  0.49862862
   0.38844805  0.90256759  0.49940393
   0.44257589  0.80283259  0.49912224
   0.61002335  0.90191487  0.49941738
   0.88995111  0.00053768  0.49908336
   0.72349246  0.09969722  0.49909731
   0.77836268  0.99989422  0.49916980
   0.94618039  0.10076720  0.49929382
   0.89107727  0.20058934  0.49888755
   0.72519525  0.29790395  0.49817560
   0.78011417  0.19898640  0.49864911
   0.94531497  0.30148400  0.49875299
   0.88873832  0.40121659  0.49837737
   0.71765598  0.49693727  0.49836286
   0.77751944  0.39927945  0.49820255
   0.94204772  0.50233207  0.49849773
   0.88355040  0.60114531  0.49766167
   0.71389306  0.70097451  0.49765237
   0.76996188  0.59995336  0.49759215
   0.94122344  0.70039098  0.49749707
   0.88621199  0.80010960  0.49803690
   0.72136105  0.90101192  0.49904005
   0.77392967  0.79966443  0.49831272
   0.94385475  0.90000959  0.49863001
   0.27281042  0.50512383  0.51261956
   0.45455533  0.39803999  0.50460012
   0.61030168  0.49004416  0.49958015
   0.39269673  0.70262546  0.49953342
   0.60468253  0.70516139  0.49700551
   0.39513364  0.51020685  0.57550820
   0.50527746  0.59395488  0.49753726
 
 position of ions in cartesian coordinates  (Angst):
   2.85230138  0.03132848  9.98845014
   0.73721231  1.26765872  9.99499288
   1.42740633  0.01887382  9.98751182
   3.56640031  1.28646012 10.00784701
   2.88555654  2.55136916 10.03537135
   0.72866536  3.75316616  9.99362316
   1.45006611  2.52096736 10.01046002
   3.60886136  3.81039916 10.08608315
   2.85123866  5.05837390 10.12477195
   0.69302968  6.23994498 10.00032773
   1.42058495  5.00631505 10.02126558
   2.84638575  7.46002150 10.07826153
   0.68774629  8.70040882  9.95855743
   1.41249338  7.47773351  9.99641782
   3.61784659  8.69520242 10.00608577
   2.86662017  9.92368700  9.97672309
   0.71618479 11.17153730  9.97402607
   1.42488878  9.92634432  9.96893537
   3.55255180 11.19034044  9.97949862
   7.11088658  0.01601008  9.99382361
   4.98518451  1.27200507 10.00203513
   5.69152465  0.02921357  9.99341199
   7.84269114  1.23101443  9.98674053
   7.13636301  2.45570362  9.98746342
   5.05540042  3.77657227 10.05641259
   5.71351342  2.50160633 10.00748408
   7.87744589  3.65740758  9.97271024
   7.17531131  4.85997652 10.00872034
   7.09763310  9.96740335  9.97257248
   4.97601952 11.19183807  9.98807862
   5.66939709  9.95512407  9.98244489
   7.81439908 11.18374436  9.98834761
  11.40027373  0.00666719  9.98166722
   9.26793840  1.23624549  9.98194613
   9.97082593 12.39868831  9.98339594
  12.12057074  1.24951323  9.98587641
  11.41469981  2.48730776  9.97775106
   9.28975111  3.69400893  9.96351202
   9.99326254  2.46743141  9.97298218
  12.10948472  3.73840164  9.97505989
  11.38473792  4.97508575  9.96754743
   9.19317310  6.16202220  9.96725723
   9.96002407  4.95106519  9.96405097
  12.06763125  6.22891762  9.96995462
  11.31828065  7.45420190  9.95323331
   9.14497006  8.69208387  9.95304744
   9.86321163  7.43942164  9.95184295
  12.05707232  8.68484812  9.94994136
  11.35237557  9.92135908  9.96073794
   9.24063499 11.17254785  9.98080108
   9.91403906  9.91583889  9.96625442
  12.09077939 11.16011890  9.97260015
   3.49470147  6.26353548 10.25239121
   5.82285371  4.93569592 10.09200237
   7.81796458  6.07654761  9.99160300
   5.03044513  8.71255575  9.99066832
   7.74598315  8.74400124  9.94011015
   5.06166197  6.32656494 11.51016402
   6.47260431  7.36504053  9.95074520
 


--------------------------------------------------------------------------------------------------------


 k-point  1 :   0.2500 0.2500 0.0000  plane waves:   80679
 k-point  2 :  -0.2500 0.2500 0.0000  plane waves:   80679

 maximum and minimum number of plane-waves per node :      2047     1989

 maximum number of plane-waves:     80679
 maximum index in each direction: 
   IXMAX=   23   IYMAX=   22   IZMAX=   36
   IXMIN=  -23   IYMIN=  -22   IZMIN=  -36


 parallel 3D FFT for wavefunctions:
    minimum data exchange during FFTs selected (reduces bandwidth)
 parallel 3D FFT for charge:
    minimum data exchange during FFTs selected (reduces bandwidth)


 FFT grid for exact exchange (Hartree Fock) 
  NGX = 72; NGY = 70; NGZ =112

 
 Radii for the augmentation spheres in the non-local exchange
 for species   1 augmentation radius   0.874 (default was   0.699)
       energy cutoff for augmentation   2000.0
 for species   2 augmentation radius   0.886 (default was   0.709)
       energy cutoff for augmentation   2000.0
 for species   3 augmentation radius   1.179 (default was   0.943)
       energy cutoff for augmentation   2000.0
 for species   4 augmentation radius   1.263 (default was   1.010)
       energy cutoff for augmentation   2000.0

 real space projection operators:
  total allocation   :       2499.30 KBytes
  max/ min on nodes  :         90.26         42.68

 Maximum index for augmentation-charges in exchange          117
  SETUP_FOCK is finished

 total amount of memory used by VASP MPI-rank0   139666. kBytes
=======================================================================

   base      :      30000. kBytes
   nonl-proj :       4307. kBytes
   fftplans  :      11188. kBytes
   grid      :      29312. kBytes
   one-center:         62. kBytes
   HF        :         23. kBytes
   nonlr-proj:       1645. kBytes
   wavefun   :      63129. kBytes
 
     INWAV:  cpu time    5.2482: real time    5.2659
 Broyden mixing: mesh for mixing (old mesh)
   NGX = 47   NGY = 45   NGZ = 73
  (NGX  =192   NGY  =180   NGZ  =300)
  gives a total of 154395 points

 charge density for first step will be calculated from the start-wavefunctions


--------------------------------------------------------------------------------------------------------


 Maximum index for augmentation-charges          555 (set IRDMAX)


--------------------------------------------------------------------------------------------------------


 initial charge from wavefunction
 First call to EWALD:  gamma=   0.121
 Maximum number of real-space cells 3x 3x 2
 Maximum number of reciprocal cells 2x 2x 4

    FEWALD:  cpu time    0.0033: real time    0.0033


--------------------------------------- Iteration      1(   1)  ---------------------------------------


    POTLOK:  cpu time    1.0326: real time    1.0397
    SETDIJ:  cpu time    1.2334: real time    1.2370
    TRIAL :  cpu time  217.5516: real time  218.3647
    CORREC:  cpu time    0.0013: real time    0.0013
    CHARGE:  cpu time    1.2123: real time    1.2157
    --------------------------------------------
      LOOP:  cpu time  221.0534: real time  221.8827

 eigenvalue-minimisations  :     0
 total energy-change (2. order) :-0.6116387E+03  (-0.4943857E+00)
 number of electron     251.9999993 magnetization       1.6888322
 augmentation part       17.3584170 magnetization       1.2735965

 DIPCOR: dipole corrections for dipol
 direction  3 min pos     1,
 dipolmoment           0.000000      0.000000     -0.090804 electrons x Angstroem
 Tr[quadrupol]     -7088.617521

 energy correction for charged system         0.000000 eV
 dipol+quadrupol energy correction           -0.000236 eV
 added-field ion interaction          0.080930 eV  (added to PSCEN)


 Free energy of the ion-electron system (eV)
  ---------------------------------------------------
  alpha Z        PSCENC =       105.46381479
  Ewald energy   TEWEN  =     41239.85843303
  -Hartree energ DENC   =    -50660.73614823
  -exchange      EXHF   =       578.45640157
  -V(xc)+E(xc)   XCENC  =       663.32684010
  PAW double counting   =     27448.23041470   -27584.50588563
  entropy T*S    EENTRO =        -0.02542405
  eigenvalues    EBANDS =     -3249.03219322
  atomic energy  EATOM  =     10847.32740298
  ---------------------------------------------------
  free energy    TOTEN  =      -611.63870260 eV

  energy without entropy =     -611.61327855  energy(sigma->0) =     -611.62599057
  exchange ACFDT corr.  =        -0.03766784  see jH, gK, PRB 81, 115126


--------------------------------------------------------------------------------------------------------




--------------------------------------- Iteration      1(   2)  ---------------------------------------


    POTLOK:  cpu time    1.0496: real time    1.0538
    SETDIJ:  cpu time    1.2079: real time    1.2124
    TRIAL :  cpu time  218.5378: real time  219.2719
    CORREC:  cpu time    0.0012: real time    0.0012
    CHARGE:  cpu time    1.2154: real time    1.2189
    --------------------------------------------
      LOOP:  cpu time  222.0141: real time  222.7650

 eigenvalue-minimisations  :     0
 total energy-change (2. order) :-0.3584575E+00  (-0.4338639E+00)
 number of electron     251.9999993 magnetization       1.7648908
 augmentation part       17.3303434 magnetization       1.3196956

 DIPCOR: dipole corrections for dipol
 direction  3 min pos     1,
 dipolmoment           0.000000      0.000000     -0.070688 electrons x Angstroem
 Tr[quadrupol]     -7088.461843

 energy correction for charged system         0.000000 eV
 dipol+quadrupol energy correction           -0.000143 eV
 added-field ion interaction          0.063001 eV  (added to PSCEN)


 Free energy of the ion-electron system (eV)
  ---------------------------------------------------
  alpha Z        PSCENC =       105.44597869
  Ewald energy   TEWEN  =     41239.85843303
  -Hartree energ DENC   =    -50653.09348291
  -exchange      EXHF   =       578.53438692
  -V(xc)+E(xc)   XCENC  =       663.20160296
  PAW double counting   =     27579.92167128   -27718.00227980
  entropy T*S    EENTRO =        -0.02205476
  eigenvalues    EBANDS =     -3255.16544919
  atomic energy  EATOM  =     10847.32740298
  ---------------------------------------------------
  free energy    TOTEN  =      -611.99716008 eV

  energy without entropy =     -611.97510532  energy(sigma->0) =     -611.98613270
  exchange ACFDT corr.  =        -0.06500471  see jH, gK, PRB 81, 115126


--------------------------------------------------------------------------------------------------------




--------------------------------------- Iteration      1(   3)  ---------------------------------------


    POTLOK:  cpu time    1.0605: real time    1.0636
    SETDIJ:  cpu time    1.2227: real time    1.2290
    TRIAL :  cpu time  218.8610: real time  219.5974
    CORREC:  cpu time    0.0015: real time    0.0015
    CHARGE:  cpu time    1.2108: real time    1.2169
    --------------------------------------------
      LOOP:  cpu time  222.3588: real time  223.1155

 eigenvalue-minimisations  :     0
 total energy-change (2. order) :-0.3324606E+00  (-0.2407719E+00)
 number of electron     251.9999993 magnetization       1.8461209
 augmentation part       17.3171057 magnetization       1.3633557

 DIPCOR: dipole corrections for dipol
 direction  3 min pos     1,
 dipolmoment           0.000000      0.000000     -0.104463 electrons x Angstroem
 Tr[quadrupol]     -7088.351346

 energy correction for charged system         0.000000 eV
 dipol+quadrupol energy correction           -0.000312 eV
 added-field ion interaction          0.093104 eV  (added to PSCEN)


 Free energy of the ion-electron system (eV)
  ---------------------------------------------------
  alpha Z        PSCENC =       105.47591239
  Ewald energy   TEWEN  =     41239.85843303
  -Hartree energ DENC   =    -50637.44198010
  -exchange      EXHF   =       578.42335530
  -V(xc)+E(xc)   XCENC  =       662.75354826
  PAW double counting   =     27746.31392785   -27882.99876405
  entropy T*S    EENTRO =        -0.01703995
  eigenvalues    EBANDS =     -3272.01940157
  atomic energy  EATOM  =     10847.32740298
  ---------------------------------------------------
  free energy    TOTEN  =      -612.32962066 eV

  energy without entropy =     -612.31258071  energy(sigma->0) =     -612.32110068
  exchange ACFDT corr.  =        -0.02501620  see jH, gK, PRB 81, 115126


--------------------------------------------------------------------------------------------------------




--------------------------------------- Iteration      1(   4)  ---------------------------------------


    POTLOK:  cpu time    1.0561: real time    1.0674
    SETDIJ:  cpu time    1.2202: real time    1.2238
    TRIAL :  cpu time  218.2073: real time  218.9534
    CORREC:  cpu time    0.0012: real time    0.0012
    CHARGE:  cpu time    1.2126: real time    1.2161
    --------------------------------------------
      LOOP:  cpu time  221.7004: real time  222.4695

 eigenvalue-minimisations  :     0
 total energy-change (2. order) :-0.1834378E+00  (-0.1574775E+00)
 number of electron     251.9999993 magnetization       1.9145536
 augmentation part       17.3411236 magnetization       1.3965455

 DIPCOR: dipole corrections for dipol
 direction  3 min pos     1,
 dipolmoment           0.000000      0.000000     -0.128892 electrons x Angstroem
 Tr[quadrupol]     -7088.336615

 energy correction for charged system         0.000000 eV
 dipol+quadrupol energy correction           -0.000475 eV
 added-field ion interaction          0.114876 eV  (added to PSCEN)


 Free energy of the ion-electron system (eV)
  ---------------------------------------------------
  alpha Z        PSCENC =       105.49752175
  Ewald energy   TEWEN  =     41239.85843303
  -Hartree energ DENC   =    -50630.42270865
  -exchange      EXHF   =       578.54726806
  -V(xc)+E(xc)   XCENC  =       662.56611383
  PAW double counting   =     27891.43140711   -28027.35407982
  entropy T*S    EENTRO =        -0.01132344
  eigenvalues    EBANDS =     -3279.94737685
  atomic energy  EATOM  =     10847.32740298
  ---------------------------------------------------
  free energy    TOTEN  =      -612.51305849 eV

  energy without entropy =     -612.50173506  energy(sigma->0) =     -612.50739677
  exchange ACFDT corr.  =        -0.01905098  see jH, gK, PRB 81, 115126


--------------------------------------------------------------------------------------------------------




--------------------------------------- Iteration      1(   5)  ---------------------------------------


    POTLOK:  cpu time    1.0624: real time    1.0655
    SETDIJ:  cpu time    1.2249: real time    1.2283
    TRIAL :  cpu time  218.1158: real time  218.8481
    CORREC:  cpu time    0.0017: real time    0.0017
    CHARGE:  cpu time    1.2131: real time    1.2166
    --------------------------------------------
      LOOP:  cpu time  221.6204: real time  222.3673

 eigenvalue-minimisations  :     0
 total energy-change (2. order) :-0.1191308E+00  (-0.9415531E-01)
 number of electron     251.9999993 magnetization       1.9560362
 augmentation part       17.3437214 magnetization       1.4180107

 DIPCOR: dipole corrections for dipol
 direction  3 min pos     1,
 dipolmoment           0.000000      0.000000     -0.137662 electrons x Angstroem
 Tr[quadrupol]     -7088.411121

 energy correction for charged system         0.000000 eV
 dipol+quadrupol energy correction           -0.000542 eV
 added-field ion interaction          0.122693 eV  (added to PSCEN)


 Free energy of the ion-electron system (eV)
  ---------------------------------------------------
  alpha Z        PSCENC =       105.50527138
  Ewald energy   TEWEN  =     41239.85843303
  -Hartree energ DENC   =    -50634.67890495
  -exchange      EXHF   =       578.91604732
  -V(xc)+E(xc)   XCENC  =       662.71513202
  PAW double counting   =     27997.66639464   -28134.38527124
  entropy T*S    EENTRO =        -0.00687461
  eigenvalues    EBANDS =     -3275.54537108
  atomic energy  EATOM  =     10847.32740298
  ---------------------------------------------------
  free energy    TOTEN  =      -612.63218932 eV

  energy without entropy =     -612.62531471  energy(sigma->0) =     -612.62875201
  exchange ACFDT corr.  =        -0.01032757  see jH, gK, PRB 81, 115126


--------------------------------------------------------------------------------------------------------




--------------------------------------- Iteration      1(   6)  ---------------------------------------


    POTLOK:  cpu time    1.0601: real time    1.0643
    SETDIJ:  cpu time    1.2021: real time    1.2063
    TRIAL :  cpu time  218.2527: real time  218.9861
    CORREC:  cpu time    0.0013: real time    0.0013
    CHARGE:  cpu time    1.2094: real time    1.2140
    --------------------------------------------
      LOOP:  cpu time  221.7279: real time  222.4793

 eigenvalue-minimisations  :     0
 total energy-change (2. order) :-0.7774424E-01  (-0.6361719E-01)
 number of electron     251.9999993 magnetization       1.9780185
 augmentation part       17.3442667 magnetization       1.4319335

 DIPCOR: dipole corrections for dipol
 direction  3 min pos     1,
 dipolmoment           0.000000      0.000000     -0.148002 electrons x Angstroem
 Tr[quadrupol]     -7088.508780

 energy correction for charged system         0.000000 eV
 dipol+quadrupol energy correction           -0.000626 eV
 added-field ion interaction          0.131908 eV  (added to PSCEN)


 Free energy of the ion-electron system (eV)
  ---------------------------------------------------
  alpha Z        PSCENC =       105.51440238
  Ewald energy   TEWEN  =     41239.85843303
  -Hartree energ DENC   =    -50638.74252959
  -exchange      EXHF   =       579.21225509
  -V(xc)+E(xc)   XCENC  =       662.83510682
  PAW double counting   =     28064.43478585   -28200.95252635
  entropy T*S    EENTRO =        -0.00402378
  eigenvalues    EBANDS =     -3272.19038916
  atomic energy  EATOM  =     10847.32740298
  ---------------------------------------------------
  free energy    TOTEN  =      -612.70993355 eV

  energy without entropy =     -612.70590977  energy(sigma->0) =     -612.70792166
  exchange ACFDT corr.  =        -0.00506990  see jH, gK, PRB 81, 115126


--------------------------------------------------------------------------------------------------------




--------------------------------------- Iteration      1(   7)  ---------------------------------------


    POTLOK:  cpu time    1.0576: real time    1.0610
    SETDIJ:  cpu time    1.2261: real time    1.2337
    TRIAL :  cpu time  217.8134: real time  218.5200
    CORREC:  cpu time    0.0014: real time    0.0014
    CHARGE:  cpu time    1.2001: real time    1.2134
    --------------------------------------------
      LOOP:  cpu time  221.3019: real time  222.0369

 eigenvalue-minimisations  :     0
 total energy-change (2. order) :-0.5230626E-01  (-0.4422757E-01)
 number of electron     251.9999993 magnetization       1.9890009
 augmentation part       17.3610680 magnetization       1.4413250

 DIPCOR: dipole corrections for dipol
 direction  3 min pos     1,
 dipolmoment           0.000000      0.000000     -0.157988 electrons x Angstroem
 Tr[quadrupol]     -7088.592007

 energy correction for charged system         0.000000 eV
 dipol+quadrupol energy correction           -0.000714 eV
 added-field ion interaction          0.140807 eV  (added to PSCEN)


 Free energy of the ion-electron system (eV)
  ---------------------------------------------------
  alpha Z        PSCENC =       105.52321455
  Ewald energy   TEWEN  =     41239.85843303
  -Hartree energ DENC   =    -50642.24920945
  -exchange      EXHF   =       579.43442886
  -V(xc)+E(xc)   XCENC  =       662.93142354
  PAW double counting   =     28103.26407653   -28239.44814639
  entropy T*S    EENTRO =        -0.00237304
  eigenvalues    EBANDS =     -3269.39983970
  atomic energy  EATOM  =     10847.32740298
  ---------------------------------------------------
  free energy    TOTEN  =      -612.76223981 eV

  energy without entropy =     -612.75986678  energy(sigma->0) =     -612.76105330
  exchange ACFDT corr.  =        -0.00239603  see jH, gK, PRB 81, 115126


--------------------------------------------------------------------------------------------------------




--------------------------------------- Iteration      1(   8)  ---------------------------------------


    POTLOK:  cpu time    1.0545: real time    1.0577
    SETDIJ:  cpu time    1.2252: real time    1.2286
    TRIAL :  cpu time  218.0018: real time  218.7246
    CORREC:  cpu time    0.0011: real time    0.0011
    CHARGE:  cpu time    1.2049: real time    1.2081
    --------------------------------------------
      LOOP:  cpu time  221.4904: real time  222.2288

 eigenvalue-minimisations  :     0
 total energy-change (2. order) :-0.3725244E-01  (-0.3014917E-01)
 number of electron     251.9999993 magnetization       1.9941426
 augmentation part       17.3661890 magnetization       1.4487835

 DIPCOR: dipole corrections for dipol
 direction  3 min pos     1,
 dipolmoment           0.000000      0.000000     -0.164745 electrons x Angstroem
 Tr[quadrupol]     -7088.650830

 energy correction for charged system         0.000000 eV
 dipol+quadrupol energy correction           -0.000776 eV
 added-field ion interaction          0.146830 eV  (added to PSCEN)


 Free energy of the ion-electron system (eV)
  ---------------------------------------------------
  alpha Z        PSCENC =       105.52917488
  Ewald energy   TEWEN  =     41239.85843303
  -Hartree energ DENC   =    -50646.50695325
  -exchange      EXHF   =       579.63481772
  -V(xc)+E(xc)   XCENC  =       663.05919292
  PAW double counting   =     28124.78450111   -28261.35988515
  entropy T*S    EENTRO =        -0.00149346
  eigenvalues    EBANDS =     -3265.12380347
  atomic energy  EATOM  =     10847.32740298
  ---------------------------------------------------
  free energy    TOTEN  =      -612.79949226 eV

  energy without entropy =     -612.79799880  energy(sigma->0) =     -612.79874553
  exchange ACFDT corr.  =        -0.00113860  see jH, gK, PRB 81, 115126


--------------------------------------------------------------------------------------------------------




--------------------------------------- Iteration      1(   9)  ---------------------------------------


    POTLOK:  cpu time    1.0507: real time    1.0540
    SETDIJ:  cpu time    1.2446: real time    1.2480
    TRIAL :  cpu time  217.8885: real time  218.6226
    CORREC:  cpu time    0.0015: real time    0.0015
    CHARGE:  cpu time    1.2079: real time    1.2114
    --------------------------------------------
      LOOP:  cpu time  221.3958: real time  222.1448

 eigenvalue-minimisations  :     0
 total energy-change (2. order) :-0.2646640E-01  (-0.2246716E-01)
 number of electron     251.9999993 magnetization       1.9964640
 augmentation part       17.3641342 magnetization       1.4551041

 DIPCOR: dipole corrections for dipol
 direction  3 min pos     1,
 dipolmoment           0.000000      0.000000     -0.170047 electrons x Angstroem
 Tr[quadrupol]     -7088.678254

 energy correction for charged system         0.000000 eV
 dipol+quadrupol energy correction           -0.000827 eV
 added-field ion interaction          0.151556 eV  (added to PSCEN)


 Free energy of the ion-electron system (eV)
  ---------------------------------------------------
  alpha Z        PSCENC =       105.53384975
  Ewald energy   TEWEN  =     41239.85843303
  -Hartree energ DENC   =    -50647.98734648
  -exchange      EXHF   =       579.74600057
  -V(xc)+E(xc)   XCENC  =       663.11312694
  PAW double counting   =     28134.38587482   -28271.00466408
  entropy T*S    EENTRO =        -0.00103836
  eigenvalues    EBANDS =     -3263.79714274
  atomic energy  EATOM  =     10847.32740298
  ---------------------------------------------------
  free energy    TOTEN  =      -612.82595866 eV

  energy without entropy =     -612.82492030  energy(sigma->0) =     -612.82543948
  exchange ACFDT corr.  =        -0.00059102  see jH, gK, PRB 81, 115126


--------------------------------------------------------------------------------------------------------




--------------------------------------- Iteration      1(  10)  ---------------------------------------


    POTLOK:  cpu time    1.0499: real time    1.0531
    SETDIJ:  cpu time    1.2232: real time    1.2266
    TRIAL :  cpu time  218.3199: real time  219.0589
    CORREC:  cpu time    0.0019: real time    0.0019
    CHARGE:  cpu time    1.2084: real time    1.2120
    --------------------------------------------
      LOOP:  cpu time  221.8060: real time  222.5595

 eigenvalue-minimisations  :     0
 total energy-change (2. order) :-0.1963907E-01  (-0.1668689E-01)
 number of electron     251.9999993 magnetization       1.9975532
 augmentation part       17.3710430 magnetization       1.4601165

 DIPCOR: dipole corrections for dipol
 direction  3 min pos     1,
 dipolmoment           0.000000      0.000000     -0.174230 electrons x Angstroem
 Tr[quadrupol]     -7088.688006

 energy correction for charged system         0.000000 eV
 dipol+quadrupol energy correction           -0.000868 eV
 added-field ion interaction          0.155284 eV  (added to PSCEN)


 Free energy of the ion-electron system (eV)
  ---------------------------------------------------
  alpha Z        PSCENC =       105.53753633
  Ewald energy   TEWEN  =     41239.85843303
  -Hartree energ DENC   =    -50647.76137863
  -exchange      EXHF   =       579.79943044
  -V(xc)+E(xc)   XCENC  =       663.11867353
  PAW double counting   =     28137.62528641   -28274.05346268
  entropy T*S    EENTRO =        -0.00079202
  eigenvalues    EBANDS =     -3264.29648079
  atomic energy  EATOM  =     10847.32740298
  ---------------------------------------------------
  free energy    TOTEN  =      -612.84559773 eV

  energy without entropy =     -612.84480571  energy(sigma->0) =     -612.84520172
  exchange ACFDT corr.  =        -0.00035990  see jH, gK, PRB 81, 115126


--------------------------------------------------------------------------------------------------------




--------------------------------------- Iteration      1(  11)  ---------------------------------------


    POTLOK:  cpu time    1.0480: real time    1.0516
    SETDIJ:  cpu time    1.2170: real time    1.2212
    TRIAL :  cpu time  218.2376: real time  218.9916
    CORREC:  cpu time    0.0015: real time    0.0015
    CHARGE:  cpu time    1.2063: real time    1.2098
    --------------------------------------------
      LOOP:  cpu time  221.7131: real time  222.4828

 eigenvalue-minimisations  :     0
 total energy-change (2. order) :-0.1486751E-01  (-0.1236119E-01)
 number of electron     251.9999993 magnetization       1.9981177
 augmentation part       17.3742479 magnetization       1.4643994

 DIPCOR: dipole corrections for dipol
 direction  3 min pos     1,
 dipolmoment           0.000000      0.000000     -0.177213 electrons x Angstroem
 Tr[quadrupol]     -7088.698034

 energy correction for charged system         0.000000 eV
 dipol+quadrupol energy correction           -0.000898 eV
 added-field ion interaction          0.157942 eV  (added to PSCEN)


 Free energy of the ion-electron system (eV)
  ---------------------------------------------------
  alpha Z        PSCENC =       105.54016509
  Ewald energy   TEWEN  =     41239.85843303
  -Hartree energ DENC   =    -50648.48236852
  -exchange      EXHF   =       579.86060678
  -V(xc)+E(xc)   XCENC  =       663.15009757
  PAW double counting   =     28138.85004230   -28275.44734236
  entropy T*S    EENTRO =        -0.00064722
  eigenvalues    EBANDS =     -3263.51671011
  atomic energy  EATOM  =     10847.32740298
  ---------------------------------------------------
  free energy    TOTEN  =      -612.86046524 eV

  energy without entropy =     -612.85981802  energy(sigma->0) =     -612.86014163
  exchange ACFDT corr.  =        -0.00025536  see jH, gK, PRB 81, 115126


--------------------------------------------------------------------------------------------------------




--------------------------------------- Iteration      1(  12)  ---------------------------------------


    POTLOK:  cpu time    1.0428: real time    1.0493
    SETDIJ:  cpu time    1.2103: real time    1.2138
    TRIAL :  cpu time  217.6399: real time  218.3889
    CORREC:  cpu time    0.0011: real time    0.0011
    CHARGE:  cpu time    1.2046: real time    1.2079
    --------------------------------------------
      LOOP:  cpu time  221.1013: real time  221.8685

 eigenvalue-minimisations  :     0
 total energy-change (2. order) :-0.1122605E-01  (-0.9550539E-02)
 number of electron     251.9999993 magnetization       1.9984456
 augmentation part       17.3738836 magnetization       1.4679183

 DIPCOR: dipole corrections for dipol
 direction  3 min pos     1,
 dipolmoment           0.000000      0.000000     -0.179787 electrons x Angstroem
 Tr[quadrupol]     -7088.706682

 energy correction for charged system         0.000000 eV
 dipol+quadrupol energy correction           -0.000924 eV
 added-field ion interaction          0.160237 eV  (added to PSCEN)


 Free energy of the ion-electron system (eV)
  ---------------------------------------------------
  alpha Z        PSCENC =       105.54243305
  Ewald energy   TEWEN  =     41239.85843303
  -Hartree energ DENC   =    -50648.77707057
  -exchange      EXHF   =       579.90272431
  -V(xc)+E(xc)   XCENC  =       663.16575737
  PAW double counting   =     28138.91240503   -28275.54921192
  entropy T*S    EENTRO =        -0.00055469
  eigenvalues    EBANDS =     -3263.25391737
  atomic energy  EATOM  =     10847.32740298
  ---------------------------------------------------
  free energy    TOTEN  =      -612.87169130 eV

  energy without entropy =     -612.87113661  energy(sigma->0) =     -612.87141395
  exchange ACFDT corr.  =        -0.00020108  see jH, gK, PRB 81, 115126


--------------------------------------------------------------------------------------------------------




--------------------------------------- Iteration      1(  13)  ---------------------------------------


    POTLOK:  cpu time    1.0431: real time    1.0462
    SETDIJ:  cpu time    1.2403: real time    1.2438
    TRIAL :  cpu time  218.2209: real time  219.7639
    CORREC:  cpu time    0.0012: real time    0.0012
    CHARGE:  cpu time    1.2093: real time    1.2126
    --------------------------------------------
      LOOP:  cpu time  221.7178: real time  223.2753

 eigenvalue-minimisations  :     0
 total energy-change (2. order) :-0.8658564E-02  (-0.7381966E-02)
 number of electron     251.9999993 magnetization       1.9986546
 augmentation part       17.3773418 magnetization       1.4705778

 DIPCOR: dipole corrections for dipol
 direction  3 min pos     1,
 dipolmoment           0.000000      0.000000     -0.181991 electrons x Angstroem
 Tr[quadrupol]     -7088.714117

 energy correction for charged system         0.000000 eV
 dipol+quadrupol energy correction           -0.000947 eV
 added-field ion interaction          0.162201 eV  (added to PSCEN)


 Free energy of the ion-electron system (eV)
  ---------------------------------------------------
  alpha Z        PSCENC =       105.54437487
  Ewald energy   TEWEN  =     41239.85843303
  -Hartree energ DENC   =    -50648.72579717
  -exchange      EXHF   =       579.93067102
  -V(xc)+E(xc)   XCENC  =       663.16900297
  PAW double counting   =     28138.75361501   -28275.31300330
  entropy T*S    EENTRO =        -0.00049154
  eigenvalues    EBANDS =     -3263.42449458
  atomic energy  EATOM  =     10847.32740298
  ---------------------------------------------------
  free energy    TOTEN  =      -612.88034986 eV

  energy without entropy =     -612.87985832  energy(sigma->0) =     -612.88010409
  exchange ACFDT corr.  =        -0.00016877  see jH, gK, PRB 81, 115126


--------------------------------------------------------------------------------------------------------




--------------------------------------- Iteration      1(  14)  ---------------------------------------


    POTLOK:  cpu time    1.0515: real time    1.0550
    SETDIJ:  cpu time    1.2230: real time    1.2276
    TRIAL :  cpu time  217.7326: real time  218.4649
    CORREC:  cpu time    0.0010: real time    0.0010
    CHARGE:  cpu time    1.2066: real time    1.2099
    --------------------------------------------
      LOOP:  cpu time  221.2177: real time  221.9656

 eigenvalue-minimisations  :     0
 total energy-change (2. order) :-0.6740754E-02  (-0.5697952E-02)
 number of electron     251.9999993 magnetization       1.9987952
 augmentation part       17.3781775 magnetization       1.4727857

 DIPCOR: dipole corrections for dipol
 direction  3 min pos     1,
 dipolmoment           0.000000      0.000000     -0.183845 electrons x Angstroem
 Tr[quadrupol]     -7088.722606

 energy correction for charged system         0.000000 eV
 dipol+quadrupol energy correction           -0.000966 eV
 added-field ion interaction          0.163853 eV  (added to PSCEN)


 Free energy of the ion-electron system (eV)
  ---------------------------------------------------
  alpha Z        PSCENC =       105.54600754
  Ewald energy   TEWEN  =     41239.85843303
  -Hartree energ DENC   =    -50649.22318982
  -exchange      EXHF   =       579.96649527
  -V(xc)+E(xc)   XCENC  =       663.18742400
  PAW double counting   =     28139.34195589   -28275.98710035
  entropy T*S    EENTRO =        -0.00044676
  eigenvalues    EBANDS =     -3262.90402763
  atomic energy  EATOM  =     10847.32740298
  ---------------------------------------------------
  free energy    TOTEN  =      -612.88709062 eV

  energy without entropy =     -612.88664386  energy(sigma->0) =     -612.88686724
  exchange ACFDT corr.  =        -0.00014757  see jH, gK, PRB 81, 115126


--------------------------------------------------------------------------------------------------------




--------------------------------------- Iteration      1(  15)  ---------------------------------------


    POTLOK:  cpu time    1.0422: real time    1.0452
    SETDIJ:  cpu time    1.2430: real time    1.2463
    TRIAL :  cpu time  217.9659: real time  218.6886
    CORREC:  cpu time    0.0010: real time    0.0010
    CHARGE:  cpu time    1.2255: real time    1.2288
    --------------------------------------------
      LOOP:  cpu time  221.4789: real time  222.2163

 eigenvalue-minimisations  :     0
 total energy-change (2. order) :-0.5265322E-02  (-0.4467751E-02)
 number of electron     251.9999993 magnetization       1.9988934
 augmentation part       17.3787527 magnetization       1.4745716

 DIPCOR: dipole corrections for dipol
 direction  3 min pos     1,
 dipolmoment           0.000000      0.000000     -0.185590 electrons x Angstroem
 Tr[quadrupol]     -7088.728724

 energy correction for charged system         0.000000 eV
 dipol+quadrupol energy correction           -0.000985 eV
 added-field ion interaction          0.165408 eV  (added to PSCEN)


 Free energy of the ion-electron system (eV)
  ---------------------------------------------------
  alpha Z        PSCENC =       105.54754402
  Ewald energy   TEWEN  =     41239.85843303
  -Hartree energ DENC   =    -50649.37564922
  -exchange      EXHF   =       579.99078025
  -V(xc)+E(xc)   XCENC  =       663.19461847
  PAW double counting   =     28140.30390592   -28276.93996750
  entropy T*S    EENTRO =        -0.00041418
  eigenvalues    EBANDS =     -3262.79897713
  atomic energy  EATOM  =     10847.32740298
  ---------------------------------------------------
  free energy    TOTEN  =      -612.89235594 eV

  energy without entropy =     -612.89194176  energy(sigma->0) =     -612.89214885
  exchange ACFDT corr.  =        -0.00013289  see jH, gK, PRB 81, 115126


--------------------------------------------------------------------------------------------------------




--------------------------------------- Iteration      1(  16)  ---------------------------------------


    POTLOK:  cpu time    1.0396: real time    1.0460
    SETDIJ:  cpu time    1.1927: real time    1.2010
    TRIAL :  cpu time  217.8184: real time  218.5317
    CORREC:  cpu time    0.0010: real time    0.0010
    CHARGE:  cpu time    1.2011: real time    1.2097
    --------------------------------------------
      LOOP:  cpu time  221.2557: real time  221.9965

 eigenvalue-minimisations  :     0
 total energy-change (2. order) :-0.4142470E-02  (-0.3527089E-02)
 number of electron     251.9999993 magnetization       1.9989635
 augmentation part       17.3805153 magnetization       1.4759351

 DIPCOR: dipole corrections for dipol
 direction  3 min pos     1,
 dipolmoment           0.000000      0.000000     -0.187043 electrons x Angstroem
 Tr[quadrupol]     -7088.733426

 energy correction for charged system         0.000000 eV
 dipol+quadrupol energy correction           -0.001000 eV
 added-field ion interaction          0.166703 eV  (added to PSCEN)


 Free energy of the ion-electron system (eV)
  ---------------------------------------------------
  alpha Z        PSCENC =       105.54882381
  Ewald energy   TEWEN  =     41239.85843303
  -Hartree energ DENC   =    -50649.47432359
  -exchange      EXHF   =       580.01109786
  -V(xc)+E(xc)   XCENC  =       663.19977684
  PAW double counting   =     28141.64128463   -28278.26380654
  entropy T*S    EENTRO =        -0.00039013
  eigenvalues    EBANDS =     -3262.74477326
  atomic energy  EATOM  =     10847.32740298
  ---------------------------------------------------
  free energy    TOTEN  =      -612.89649841 eV

  energy without entropy =     -612.89610828  energy(sigma->0) =     -612.89630334
  exchange ACFDT corr.  =        -0.00012238  see jH, gK, PRB 81, 115126


--------------------------------------------------------------------------------------------------------




--------------------------------------- Iteration      1(  17)  ---------------------------------------


    POTLOK:  cpu time    1.0394: real time    1.0429
    SETDIJ:  cpu time    1.2275: real time    1.2318
    TRIAL :  cpu time  218.1841: real time  218.9157
    CORREC:  cpu time    0.0010: real time    0.0010
    CHARGE:  cpu time    1.2047: real time    1.2080
    --------------------------------------------
      LOOP:  cpu time  221.6589: real time  222.4063

 eigenvalue-minimisations  :     0
 total energy-change (2. order) :-0.3277881E-02  (-0.2799883E-02)
 number of electron     251.9999993 magnetization       1.9990140
 augmentation part       17.3805697 magnetization       1.4769913

 DIPCOR: dipole corrections for dipol
 direction  3 min pos     1,
 dipolmoment           0.000000      0.000000     -0.188199 electrons x Angstroem
 Tr[quadrupol]     -7088.737650

 energy correction for charged system         0.000000 eV
 dipol+quadrupol energy correction           -0.001013 eV
 added-field ion interaction          0.167734 eV  (added to PSCEN)


 Free energy of the ion-electron system (eV)
  ---------------------------------------------------
  alpha Z        PSCENC =       105.54984158
  Ewald energy   TEWEN  =     41239.85843303
  -Hartree energ DENC   =    -50649.72038809
  -exchange      EXHF   =       580.03268107
  -V(xc)+E(xc)   XCENC  =       663.20933159
  PAW double counting   =     28143.17585348   -28279.83924508
  entropy T*S    EENTRO =        -0.00037229
  eigenvalues    EBANDS =     -3262.49329672
  atomic energy  EATOM  =     10847.32740298
  ---------------------------------------------------
  free energy    TOTEN  =      -612.89977629 eV

  energy without entropy =     -612.89940400  energy(sigma->0) =     -612.89959014
  exchange ACFDT corr.  =        -0.00011471  see jH, gK, PRB 81, 115126


[...]
  in kB     -22.48332   -22.51635    -0.49394    -6.26846    -0.24119    -0.26945
  external pressure =      -15.16 kB  Pullay stress =        0.00 kB


 VOLUME and BASIS-vectors are now :
 -----------------------------------------------------------------------------
  energy-cutoff  :      500.00
  volume of cell :     3176.88
      direct lattice vectors                 reciprocal lattice vectors
    12.810000000  0.000000000  0.000000000     0.078064012  0.000000000  0.000000000
     0.000000000 12.400000000  0.000000000     0.000000000  0.080645161  0.000000000
     0.000000000  0.000000000 20.000000000     0.000000000  0.000000000  0.050000000

  length of vectors
    12.810000000 12.400000000 20.000000000     0.078064012  0.080645161  0.050000000


 FORCES acting on ions:
    Electron-Ion                     Ewald-Force                    Non-Local-Force
 -----------------------------------------------------------------------------------------------
   0.669E+01 -.638E+01 0.874E+01   -.670E+01 0.626E+01 -.878E+01   0.142E+00 -.106E+00 0.406E-01
   0.471E+00 -.239E+00 0.449E+01   -.275E+00 0.162E+00 -.452E+01   -.159E+00 0.237E-01 0.134E-01
   0.782E+01 0.972E+00 0.584E+01   -.783E+01 -.105E+01 -.582E+01   -.784E-01 0.657E-01 -.206E-01
   0.152E+02 0.692E+01 0.739E+01   -.154E+02 -.698E+01 -.738E+01   0.268E+00 0.141E+00 -.955E-03
   0.103E+02 0.104E+02 0.527E+01   -.102E+02 -.104E+02 -.529E+01   -.274E-01 -.199E-01 0.268E-01
   0.760E+01 0.829E+01 0.134E+02   -.745E+01 -.861E+01 -.135E+02   -.687E-01 0.290E+00 0.111E+00
   0.710E+01 0.114E+02 0.583E+01   -.709E+01 -.114E+02 -.578E+01   -.503E-01 0.981E-01 -.352E-01
   0.259E+02 0.322E+02 0.104E+02   -.260E+02 -.322E+02 -.106E+02   0.220E+00 -.114E+00 0.212E+00
   0.447E+02 0.568E+02 0.143E+02   -.462E+02 -.594E+02 -.147E+02   0.153E+01 0.279E+01 0.494E+00
   0.224E+02 0.737E+00 0.127E+02   -.225E+02 -.549E+00 -.125E+02   0.176E+00 -.129E+00 -.151E+00
   0.250E+02 0.156E+02 0.184E+02   -.252E+02 -.159E+02 -.185E+02   0.180E+00 0.263E+00 0.869E-01
   0.487E+02 -.496E+02 0.288E+02   -.502E+02 0.526E+02 -.294E+02   0.157E+01 -.265E+01 0.553E+00
   0.157E+02 -.107E+02 0.201E+02   -.158E+02 0.109E+02 -.201E+02   0.174E+00 -.189E+00 0.310E-01
   0.260E+02 -.109E+02 0.223E+02   -.260E+02 0.115E+02 -.224E+02   -.160E-01 -.513E+00 0.137E+00
   0.456E+02 -.230E+02 0.334E+02   -.490E+02 0.227E+02 -.336E+02   0.291E+01 0.239E+00 0.202E+00
   0.220E+02 -.172E+02 0.189E+02   -.222E+02 0.170E+02 -.190E+02   0.220E+00 -.429E-01 0.381E-01
   0.465E+01 -.477E+01 0.846E+01   -.450E+01 0.480E+01 -.848E+01   -.122E+00 0.159E-01 0.274E-01
   0.933E+01 -.992E+01 0.138E+02   -.954E+01 0.972E+01 -.137E+02   0.157E+00 0.115E+00 -.726E-01
   0.169E+02 -.122E+02 0.130E+02   -.173E+02 0.126E+02 -.131E+02   0.290E+00 -.201E+00 0.748E-01
   -.347E+01 -.465E+01 0.406E+01   0.316E+01 0.465E+01 -.401E+01   0.281E+00 -.101E+00 -.536E-01
   0.555E+01 0.838E+01 0.936E+01   -.605E+01 -.871E+01 -.934E+01   0.374E+00 0.303E+00 -.101E-01
   0.586E+01 -.557E+01 0.733E+01   -.572E+01 0.560E+01 -.735E+01   -.658E-01 -.430E-01 0.225E-01
   -.982E+01 0.918E+01 0.741E+01   0.997E+01 -.958E+01 -.743E+01   -.977E-01 0.473E+00 0.202E-01
   -.486E+01 0.258E+02 0.147E+02   0.469E+01 -.265E+02 -.146E+02   0.231E+00 0.620E+00 -.285E-01
   0.351E+02 0.590E+02 0.300E+02   -.375E+02 -.621E+02 -.304E+02   0.221E+01 0.289E+01 0.355E+00
   0.912E+01 0.288E+02 0.170E+02   -.958E+01 -.291E+02 -.170E+02   0.402E+00 0.408E+00 0.546E-01
   -.273E+02 0.361E+02 0.244E+02   0.280E+02 -.372E+02 -.245E+02   -.668E+00 0.107E+01 0.518E-01
   -.453E+02 0.547E+02 0.376E+02   0.470E+02 -.586E+02 -.377E+02   -.166E+01 0.395E+01 0.175E+00
   -.384E+01 -.524E+02 0.138E+02   0.180E+01 0.556E+02 -.138E+02   0.173E+01 -.306E+01 0.166E-02
   0.794E+01 -.236E+02 0.964E+01   -.794E+01 0.239E+02 -.955E+01   0.159E+00 -.366E+00 -.811E-01
   0.416E+00 -.535E+02 0.182E+02   0.912E+00 0.564E+02 -.183E+02   -.996E+00 -.258E+01 0.164E+00
   -.131E+02 -.191E+02 0.371E+01   0.130E+02 0.196E+02 -.369E+01   0.239E-01 -.415E+00 -.312E-01
   -.568E+01 -.202E+01 0.407E+01   0.585E+01 0.195E+01 -.409E+01   -.127E+00 0.348E-01 0.681E-02
   -.103E+02 0.422E+01 0.573E+01   0.104E+02 -.434E+01 -.574E+01   -.811E-01 0.149E+00 -.210E-02
   -.102E+02 0.106E+01 0.363E+01   0.104E+02 -.109E+01 -.364E+01   -.217E+00 -.347E-01 0.512E-02
   -.139E+01 0.561E+01 0.443E+01   0.156E+01 -.575E+01 -.445E+01   -.167E+00 0.131E+00 0.655E-02
   -.814E+01 0.396E+01 0.718E+01   0.840E+01 -.402E+01 -.720E+01   -.242E+00 0.867E-01 0.587E-02
   -.253E+02 0.130E+02 0.160E+02   0.259E+02 -.132E+02 -.161E+02   -.664E+00 0.184E+00 0.496E-01
   -.125E+02 0.118E+02 0.883E+01   0.127E+02 -.121E+02 -.885E+01   -.262E+00 0.324E+00 0.574E-02
   -.101E+01 0.469E+01 0.111E+02   0.113E+01 -.475E+01 -.111E+02   -.179E+00 0.578E-01 0.389E-01
   -.946E+01 0.300E+01 0.115E+02   0.997E+01 -.283E+01 -.115E+02   -.409E+00 -.128E+00 0.966E-03
   -.626E+02 -.111E+02 0.171E+02   0.668E+02 0.116E+02 -.171E+02   -.412E+01 -.522E+00 -.627E-02
   -.271E+02 0.357E+01 0.136E+02   0.277E+02 -.366E+01 -.136E+02   -.605E+00 0.193E+00 -.107E-01
   0.520E+00 -.301E+01 0.122E+02   -.642E+00 0.328E+01 -.123E+02   0.931E-01 -.276E+00 0.280E-01
   -.147E+01 -.392E+01 0.142E+02   0.166E+01 0.414E+01 -.142E+02   -.386E-01 -.139E+00 0.450E-02
   -.506E+02 -.367E+01 0.151E+02   0.541E+02 0.349E+01 -.151E+02   -.361E+01 0.244E+00 0.834E-02
   -.265E+02 -.686E+01 0.163E+02   0.268E+02 0.713E+01 -.164E+02   -.291E+00 -.245E+00 0.624E-01
   -.181E+01 -.205E+01 0.157E+02   0.189E+01 0.195E+01 -.157E+02   -.185E+00 0.532E-01 0.255E-01
   -.448E+01 -.789E+01 0.961E+01   0.478E+01 0.768E+01 -.965E+01   -.294E+00 0.120E+00 0.295E-01
   -.159E+02 -.100E+02 0.444E+01   0.161E+02 0.104E+02 -.450E+01   -.258E+00 -.169E+00 0.499E-01
   -.209E+02 -.335E+01 0.795E+01   0.214E+02 0.347E+01 -.791E+01   -.396E+00 -.218E+00 -.336E-01
   -.171E+01 0.150E+01 0.651E+01   0.182E+01 -.149E+01 -.651E+01   -.125E+00 0.348E-01 -.545E-02
   0.320E+02 0.508E+01 0.195E+02   -.772E+01 -.490E+01 -.190E+02   -.228E+02 -.329E+00 -.588E+00
   0.345E+02 0.236E+02 0.784E+02   -.469E+02 -.256E+01 -.793E+02   0.118E+02 -.196E+02 0.958E+00
   -.629E+02 -.287E+02 0.363E+02   0.542E+02 0.443E+02 -.357E+02   0.856E+01 -.151E+02 -.475E+00
   0.209E+02 -.623E+01 0.550E+02   -.113E+02 -.107E+02 -.564E+02   -.896E+01 0.157E+02 0.137E+01
   -.418E+02 0.218E+01 0.388E+02   0.334E+02 -.168E+02 -.404E+02   0.835E+01 0.139E+02 0.147E+01
   0.941E+01 -.187E+02 -.109E+04   -.120E+02 0.181E+02 0.109E+04   0.219E+01 0.147E+00 0.868E+01
   -.563E+01 -.298E+02 0.186E+03   0.943E+01 0.351E+02 -.184E+03   -.457E+01 -.502E+01 -.226E+01
 -----------------------------------------------------------------------------------------------
   0.865E+01 0.761E+01 -.127E+02   -.455E-12 -.995E-13 0.000E+00   -.836E+01 -.720E+01 0.118E+02
 
 
 POSITION                                       TOTAL-FORCE (eV/Angst)
 -----------------------------------------------------------------------------------
      2.85230      0.03133      9.98845         0.127358     -0.245795      0.008699
      0.73721      1.26766      9.99499         0.023750     -0.058459     -0.009142
      1.42741      0.01887      9.98751        -0.087570     -0.003689     -0.004163
      3.56640      1.28646     10.00785         0.087119      0.090626      0.009002
      2.88556      2.55137     10.03537         0.022556     -0.063790      0.007076
      0.72867      3.75317      9.99362         0.079537     -0.017081      0.010510
      1.45007      2.52097     10.01046        -0.041726      0.057689      0.008351
      3.60886      3.81040     10.08608         0.100675     -0.096635      0.001000
      2.85124      5.05837     10.12477         0.112296      0.400021      0.067468
      0.69303      6.23994     10.00033         0.063429      0.052290     -0.004362
      1.42058      5.00632     10.02127        -0.034028     -0.033689      0.008438
      2.84639      7.46002     10.07826         0.105784      0.145800     -0.002882
      0.68775      8.70041      9.95856         0.125405     -0.010140      0.036416
      1.41249      7.47773      9.99642        -0.100633      0.064431      0.066305
      3.61785      8.69520     10.00609        -0.331920     -0.064199     -0.020314
      2.86662      9.92369      9.97672         0.036860     -0.239631      0.015475
      0.71618     11.17154      9.97403         0.019706      0.046768      0.001740
      1.42489      9.92634      9.96894        -0.054820     -0.082688      0.001802
      3.55255     11.19034      9.97950        -0.094984      0.261635      0.010312
      7.11089      0.01601      9.99382        -0.016761     -0.102435     -0.000972
      4.98518      1.27201     10.00204        -0.112628     -0.009101      0.008242
      5.69152      0.02921      9.99341         0.075175     -0.017632     -0.003055
      7.84269      1.23101      9.98674         0.042679      0.108315     -0.000175
      7.13636      2.45570      9.98746         0.071663     -0.028564      0.004304
      5.05540      3.77657     10.05641        -0.009943     -0.023968      0.033270
      5.71351      2.50161     10.00748        -0.033627      0.098797      0.015435
      7.87745      3.65741      9.97271         0.001678      0.005304     -0.003030
      7.17531      4.85998     10.00872        -0.072450      0.269704      0.044853
      7.09763      9.96740      9.97257        -0.216711     -0.029481     -0.032721
      4.97602     11.19184      9.98808         0.162455     -0.139104      0.000190
      5.66940      9.95512      9.98244         0.282041      0.163058      0.052704
      7.81440     11.18374      9.98835        -0.047449      0.106664     -0.016431
     11.40027      0.00667      9.98167         0.039853     -0.035506     -0.013497
      9.26794      1.23625      9.98195        -0.077223      0.029540     -0.009153
      9.97083     12.39869      9.98340        -0.078444     -0.066251     -0.011540
     12.12057      1.24951      9.98588         0.002337      0.005433     -0.010248
     11.41470      2.48731      9.97775         0.001900      0.027569     -0.005291
      9.28975      3.69401      9.96351        -0.087824     -0.029380      0.005000
      9.99326      2.46743      9.97298        -0.038060      0.039288     -0.008080
     12.10948      3.73840      9.97506        -0.062759     -0.001330      0.001745
     11.38474      4.97509      9.96755         0.079649      0.043429      0.002134
      9.19317      6.16202      9.96726        -0.134957     -0.065745     -0.004247
      9.96002      4.95107      9.96405        -0.035841      0.106124     -0.010519
     12.06763      6.22892      9.96995        -0.026928     -0.027374      0.001639
     11.31828      7.45420      9.95323         0.154817      0.072281      0.012601
      9.14497      8.69208      9.95305        -0.271775      0.077955      0.022748
      9.86321      7.43942      9.95184        -0.012914      0.011958      0.012927
     12.05707      8.68485      9.94994        -0.123489     -0.038700      0.005869
     11.35238      9.92136      9.96074        -0.012025     -0.100507     -0.006931
      9.24063     11.17255      9.98080        -0.055068      0.125448     -0.013077
      9.91404      9.91584      9.96625         0.029522     -0.100214      0.000723
     12.09078     11.16012      9.97260        -0.020958      0.059445     -0.003399
      3.49470      6.26354     10.25239        -0.503576     -0.172643     -0.153983
      5.82285      4.93570     10.09200         0.489903     -0.284037      0.146313
      7.81796      6.07655      9.99160         0.538110     -0.877645      0.045501
      5.03045      8.71256      9.99067        -0.190641      0.107774      0.189690
      7.74598      8.74400      9.94011         0.658888      0.486552     -0.034498
      5.06166      6.32656     11.51016        -0.305392     -0.297698     -0.193242
      6.47260      7.36504      9.95075        -0.242017      0.299212     -0.283529
 -----------------------------------------------------------------------------------
    total drift:                                0.004335     -0.004421     -0.013940


--------------------------------------------------------------------------------------------------------



  FREE ENERGIE OF THE ION-ELECTRON SYSTEM (eV)
  ---------------------------------------------------
  free  energy   TOTEN  =      -612.91557859 eV

  energy  without entropy=     -612.91524895  energy(sigma->0) =     -612.91541377
 


--------------------------------------------------------------------------------------------------------


    POTLOK:  cpu time    2.2487: real time    2.2569


--------------------------------------------------------------------------------------------------------


 stress matrix after NEB project (eV)
    -44.58109    -12.42943     -0.53427
    -12.42942    -44.64658     -0.48137
     -0.53223     -0.47824     -0.97941
  FORCES: max atom, RMS     1.030482    0.266371
  FORCE total and by dimension    2.046038    0.877645
  Stress total and by dimension   65.511529   44.646578
 writing wavefunctions
     LOOP+:  cpu time12035.0678: real time12083.7517
 vacuum level on the upper side and lower side of the slab         1.376         1.604
    4ORBIT:  cpu time    0.0000: real time    0.0000
 


 total charge     
 
# of ion       s       p       d       tot
------------------------------------------
    1        0.863   1.765   0.000   2.628
    2        0.865   1.758   0.000   2.623
    3        0.864   1.771   0.000   2.635
    4        0.862   1.765   0.000   2.627
    5        0.860   1.734   0.000   2.594
    6        0.865   1.764   0.000   2.629
    7        0.860   1.761   0.000   2.621
    8        0.849   1.743   0.000   2.592
    9        0.858   1.706   0.000   2.564
   10        0.866   1.749   0.000   2.615
   11        0.863   1.771   0.000   2.634
   12        0.853   1.731   0.000   2.584
   13        0.863   1.767   0.000   2.629
   14        0.865   1.771   0.000   2.636
   15        0.845   1.698   0.000   2.544
   16        0.860   1.745   0.000   2.605
   17        0.863   1.753   0.000   2.616
   18        0.861   1.757   0.000   2.619
   19        0.865   1.768   0.000   2.633
   20        0.869   1.792   0.000   2.661
   21        0.868   1.768   0.000   2.636
   22        0.865   1.779   0.000   2.643
   23        0.870   1.792   0.000   2.661
   24        0.874   1.786   0.000   2.660
   25        0.854   1.705   0.000   2.559
   26        0.865   1.777   0.000   2.642
   27        0.877   1.834   0.000   2.711
   28        0.871   1.748   0.000   2.619
   29        0.864   1.761   0.000   2.625
   30        0.869   1.779   0.000   2.647
   31        0.859   1.748   0.000   2.607
   32        0.870   1.792   0.000   2.662
   33        0.865   1.763   0.000   2.628
   34        0.868   1.772   0.000   2.639
   35        0.865   1.778   0.000   2.644
   36        0.865   1.771   0.000   2.636
   37        0.869   1.769   0.000   2.638
   38        0.873   1.786   0.000   2.659
   39        0.869   1.788   0.000   2.656
   40        0.863   1.767   0.000   2.631
   41        0.867   1.761   0.000   2.628
   42        0.858   1.715   0.000   2.573
   43        0.864   1.784   0.000   2.648
   44        0.861   1.767   0.000   2.628
   45        0.858   1.737   0.000   2.595
   46        0.850   1.696   0.000   2.546
   47        0.850   1.755   0.000   2.605
   48        0.861   1.764   0.000   2.626
   49        0.863   1.752   0.000   2.615
   50        0.868   1.767   0.000   2.635
   51        0.860   1.763   0.000   2.623
   52        0.862   1.760   0.000   2.622
   53        1.234   2.665   0.000   3.899
   54        1.234   2.661   0.000   3.896
   55        1.232   2.709   0.000   3.941
   56        1.218   2.641   0.000   3.859
   57        1.224   2.667   0.000   3.891
   58        0.319   0.205   9.440   9.964
   59        0.439   0.534   6.272   7.244
--------------------------------------------------
tot         51.785 105.634  15.712 173.131
 


 magnetization (x)
 
# of ion       s       p       d       tot
------------------------------------------
    1        0.000   0.001   0.000   0.001
    2       -0.000  -0.002   0.000  -0.002
    3        0.000   0.002   0.000   0.002
    4        0.000   0.002   0.000   0.002
    5       -0.000  -0.002   0.000  -0.002
    6       -0.000  -0.001   0.000  -0.002
    7        0.000   0.004   0.000   0.004
    8        0.000   0.004   0.000   0.004
    9       -0.000  -0.001   0.000  -0.001
   10       -0.000  -0.000   0.000  -0.000
   11        0.000   0.004   0.000   0.004
   12        0.000   0.007   0.000   0.007
   13        0.000   0.002   0.000   0.002
   14       -0.000  -0.000   0.000  -0.000
   15       -0.001  -0.002   0.000  -0.003
   16       -0.000   0.001   0.000   0.001
   17       -0.000  -0.001   0.000  -0.001
   18        0.000   0.002   0.000   0.002
   19       -0.000  -0.000   0.000  -0.000
   20        0.000   0.004   0.000   0.004
   21       -0.000  -0.001   0.000  -0.001
   22       -0.000   0.000   0.000   0.000
   23        0.000   0.002   0.000   0.002
   24       -0.000   0.000   0.000  -0.000
   25       -0.000  -0.001   0.000  -0.002
   26        0.000   0.002   0.000   0.002
   27       -0.000   0.001   0.000   0.001
   28        0.000   0.004   0.000   0.004
   29        0.000   0.005   0.000   0.005
   30       -0.000   0.001   0.000   0.001
   31       -0.000  -0.001   0.000  -0.002
   32       -0.000  -0.001   0.000  -0.001
   33       -0.000  -0.002   0.000  -0.002
   34       -0.000   0.001   0.000   0.001
   35        0.000   0.002   0.000   0.002
   36        0.000   0.004   0.000   0.004
   37       -0.000  -0.003   0.000  -0.003
   38        0.000   0.002   0.000   0.002
   39        0.000   0.001   0.000   0.001
   40        0.000   0.002   0.000   0.003
   41       -0.000  -0.003   0.000  -0.003
   42       -0.000  -0.001   0.000  -0.002
   43        0.000   0.003   0.000   0.003
   44        0.000   0.004   0.000   0.004
   45       -0.000  -0.001   0.000  -0.001
   46       -0.000  -0.004   0.000  -0.004
   47        0.000   0.005   0.000   0.005
   48        0.000   0.004   0.000   0.005
   49       -0.000  -0.001   0.000  -0.001
   50       -0.000  -0.004   0.000  -0.004
   51        0.000   0.004   0.000   0.004
   52        0.000   0.002   0.000   0.002
   53       -0.001   0.004   0.000   0.004
   54       -0.001   0.003   0.000   0.002
   55       -0.005  -0.020   0.000  -0.025
   56       -0.002   0.011   0.000   0.009
   57       -0.006  -0.029   0.000  -0.035
   58       -0.018  -0.008  -0.002  -0.028
   59        0.019   0.010   1.908   1.936
--------------------------------------------------
tot         -0.015   0.019   1.906   1.911
 

 total amount of memory used by VASP MPI-rank0   153706. kBytes
=======================================================================

   base      :      30000. kBytes
   nonl-proj :       4307. kBytes
   fftplans  :      11188. kBytes
   grid      :      29312. kBytes
   one-center:         62. kBytes
   HF        :         23. kBytes
   nonlr-proj:      15685. kBytes
   wavefun   :      63129. kBytes
 
  
  
 General timing and accounting informations for this job:
 ========================================================
  
                  Total CPU time used (sec):    12101.900
                            User time (sec):    12051.660
                          System time (sec):       50.240
                         Elapsed time (sec):    12157.911
  
                   Maximum memory used (kb):      399208.
                   Average memory used (kb):           0.
  
                          Minor page faults:       953101
                          Major page faults:            2
                 Voluntary context switches:       166888
