 vasp.5.4.4.18Apr17-6-g9f103f2a35 (build Feb 25 2019 10:51:38) complex          
  
 executed on             LinuxIFC date 2021.08.09  10:48:56
 running on   32 total cores
 distrk:  each k-point on   32 cores,    1 groups
 distr:  one band on NCORES_PER_BAND=  32 cores,    1 groups


--------------------------------------------------------------------------------------------------------


 INCAR:
 POTCAR:    PAW_PBE C 08Apr2002                   
 POTCAR:    PAW_PBE N 08Apr2002                   
 POTCAR:    PAW_PBE Co 02Aug2007                  
 POTCAR:    PAW_PBE Fe 06Sep2000                  

 ----------------------------------------------------------------------------- 
|                                                                             |
|           W    W    AA    RRRRR   N    N  II  N    N   GGGG   !!!           |
|           W    W   A  A   R    R  NN   N  II  NN   N  G    G  !!!           |
|           W    W  A    A  R    R  N N  N  II  N N  N  G       !!!           |
|           W WW W  AAAAAA  RRRRR   N  N N  II  N  N N  G  GGG   !            |
|           WW  WW  A    A  R   R   N   NN  II  N   NN  G    G                |
|           W    W  A    A  R    R  N    N  II  N    N   GGGG   !!!           |
|                                                                             |
|      For optimal performance we recommend to set                            |
|        NCORE= 4 - approx SQRT( number of cores)                             |
|      NCORE specifies how many cores store one orbital (NPAR=cpu/NCORE).     |
|      This setting can  greatly improve the performance of VASP for DFT.     |
|      The default,   NCORE=1            might be grossly inefficient         |
|      on modern multi-core architectures or massively parallel machines.     |
|      Do your own testing !!!!                                               |
|      Unfortunately you need to use the default for GW and RPA calculations. |
|      (for HF NCORE is supported but not extensively tested yet)             |
|                                                                             |
 ----------------------------------------------------------------------------- 

 POTCAR:    PAW_PBE C 08Apr2002                   
   VRHFIN =C: s2p2                                                              
   LEXCH  = PE                                                                  
   EATOM  =   147.1560 eV,   10.8157 Ry                                         
                                                                                
   TITEL  = PAW_PBE C 08Apr2002                                                 
   LULTRA =        F    use ultrasoft PP ?                                      
   IUNSCR =        1    unscreen: 0-lin 1-nonlin 2-no                           
   RPACOR =    1.200    partial core radius                                     
   POMASS =   12.011; ZVAL   =    4.000    mass and valenz                      
   RCORE  =    1.500    outmost cutoff radius                                   
   RWIGS  =    1.630; RWIGS  =    0.863    wigner-seitz radius (au A)           
   ENMAX  =  400.000; ENMIN  =  300.000 eV                                      
   ICORE  =        2    local potential                                         
   LCOR   =        T    correct aug charges                                     
   LPAW   =        T    paw PP                                                  
   EAUG   =  644.873                                                            
   DEXC   =    0.000                                                            
   RMAX   =    1.529    core radius for proj-oper                               
   RAUG   =    1.300    factor for augmentation sphere                          
   RDEP   =    1.501    radius for radial grids                                 
   RDEPT  =    1.300    core radius for aug-charge                              
                                                                                
   Atomic configuration                                                         
    4 entries                                                                   
     n  l   j            E        occ.                                          
     1  0  0.50      -273.3789   2.0000                                         
     2  0  0.50       -13.7508   2.0000                                         
     2  1  0.50        -5.2854   2.0000                                         
     3  2  1.50        -5.4423   0.0000                                         
   Description                                                                  
     l       E           TYP  RCUT    TYP  RCUT                                 
     0    -13.7508458     23  1.200                                             
     0     -8.2022199     23  1.200                                             
     1     -5.2854383     23  1.500                                             
     1     34.0145650     23  1.500                                             
     2     -5.4423304      7  1.500                                             
  local pseudopotential read in
  partial core-charges read in
  partial kinetic energy density read in
  atomic valenz-charges read in
  non local Contribution for L=           0  read in
    real space projection operators read in
  non local Contribution for L=           0  read in
    real space projection operators read in
  non local Contribution for L=           1  read in
    real space projection operators read in
  non local Contribution for L=           1  read in
    real space projection operators read in
    PAW grid and wavefunctions read in
 
   number of l-projection  operators is LMAX  =           4
   number of lm-projection operators is LMMAX =           8
 
 POTCAR:    PAW_PBE N 08Apr2002                   
   VRHFIN =N: s2p3                                                              
   LEXCH  = PE                                                                  
   EATOM  =   264.5486 eV,   19.4438 Ry                                         
                                                                                
   TITEL  = PAW_PBE N 08Apr2002                                                 
   LULTRA =        F    use ultrasoft PP ?                                      
   IUNSCR =        1    unscreen: 0-lin 1-nonlin 2-no                           
   RPACOR =    1.200    partial core radius                                     
   POMASS =   14.001; ZVAL   =    5.000    mass and valenz                      
   RCORE  =    1.500    outmost cutoff radius                                   
   RWIGS  =    1.400; RWIGS  =    0.741    wigner-seitz radius (au A)           
   ENMAX  =  400.000; ENMIN  =  300.000 eV                                      
   ICORE  =        2    local potential                                         
   LCOR   =        T    correct aug charges                                     
   LPAW   =        T    paw PP                                                  
   EAUG   =  627.112                                                            
   DEXC   =    0.000                                                            
   RMAX   =    1.529    core radius for proj-oper                               
   RAUG   =    1.300    factor for augmentation sphere                          
   RDEP   =    1.514    radius for radial grids                                 
   RDEPT  =    1.338    core radius for aug-charge                              
                                                                                
   Atomic configuration                                                         
    4 entries                                                                   
     n  l   j            E        occ.                                          
     1  0  0.50      -384.7179   2.0000                                         
     2  0  0.50       -18.5828   2.0000                                         
     2  1  0.50        -7.0898   3.0000                                         
     3  2  1.50        -6.8029   0.0000                                         
   Description                                                                  
     l       E           TYP  RCUT    TYP  RCUT                                 
     0    -18.5828119     23  1.200                                             
     0    -13.5018863     23  1.200                                             
     1     -7.0897853     23  1.500                                             
     1      9.5240782     23  1.500                                             
     2     -6.8029130      7  1.500                                             
  local pseudopotential read in
  partial core-charges read in
  partial kinetic energy density read in
  atomic valenz-charges read in
  non local Contribution for L=           0  read in
    real space projection operators read in
  non local Contribution for L=           0  read in
    real space projection operators read in
  non local Contribution for L=           1  read in
    real space projection operators read in
  non local Contribution for L=           1  read in
    real space projection operators read in
    PAW grid and wavefunctions read in
 
   number of l-projection  operators is LMAX  =           4
   number of lm-projection operators is LMMAX =           8
 
 POTCAR:    PAW_PBE Co 02Aug2007                  
   VRHFIN =Co: d8 s1                                                            
   LEXCH  = PE                                                                  
   EATOM  =   813.3670 eV,   59.7808 Ry                                         
                                                                                
   TITEL  = PAW_PBE Co 02Aug2007                                                
   LULTRA =        F    use ultrasoft PP ?                                      
   IUNSCR =        1    unscreen: 0-lin 1-nonlin 2-no                           
   RPACOR =    2.000    partial core radius                                     
   POMASS =   58.933; ZVAL   =    9.000    mass and valenz                      
   RCORE  =    2.300    outmost cutoff radius                                   
   RWIGS  =    2.460; RWIGS  =    1.302    wigner-seitz radius (au A)           
   ENMAX  =  267.968; ENMIN  =  200.976 eV                                      
   RCLOC  =    1.203    cutoff for local pot                                    
   LCOR   =        T    correct aug charges                                     
   LPAW   =        T    paw PP                                                  
   EAUG   =  477.818                                                            
   DEXC   =    0.000                                                            
   RMAX   =    2.360    core radius for proj-oper                               
   RAUG   =    1.300    factor for augmentation sphere                          
   RDEP   =    2.393    radius for radial grids                                 
   RDEPT  =    1.864    core radius for aug-charge                              
                                                                                
   Atomic configuration                                                         
    9 entries                                                                   
     n  l   j            E        occ.                                          
     1  0  0.50     -7587.6674   2.0000                                         
     2  0  0.50      -893.6084   2.0000                                         
     2  1  1.50      -764.5805   6.0000                                         
     3  0  0.50       -97.5973   2.0000                                         
     3  1  1.50       -60.9648   6.0000                                         
     3  2  2.50        -4.2382   8.0000                                         
     4  0  0.50        -4.3746   1.0000                                         
     4  1  1.50        -4.0817   0.0000                                         
     4  3  2.50        -1.3606   0.0000                                         
   Description                                                                  
     l       E           TYP  RCUT    TYP  RCUT                                 
     2     -4.2382362     23  2.300                                             
     2     -5.5988188     23  2.300                                             
     0     -4.3745797     23  2.300                                             
     0      5.7660125     23  2.300                                             
     1     -2.7211652     23  2.300                                             
     1     16.9860234     23  2.300                                             
  local pseudopotential read in
  partial core-charges read in
  partial kinetic energy density read in
  atomic valenz-charges read in
  non local Contribution for L=           2  read in
    real space projection operators read in
  non local Contribution for L=           2  read in
    real space projection operators read in
  non local Contribution for L=           0  read in
    real space projection operators read in
  non local Contribution for L=           0  read in
    real space projection operators read in
  non local Contribution for L=           1  read in
    real space projection operators read in
  non local Contribution for L=           1  read in
    real space projection operators read in
    PAW grid and wavefunctions read in
 
   number of l-projection  operators is LMAX  =           6
   number of lm-projection operators is LMMAX =          18
 
 POTCAR:    PAW_PBE Fe 06Sep2000                  
   VRHFIN =Fe:  d7 s1                                                           
   LEXCH  = PE                                                                  
   EATOM  =   594.3153 eV,   43.6809 Ry                                         
                                                                                
   TITEL  = PAW_PBE Fe 06Sep2000                                                
   LULTRA =        F    use ultrasoft PP ?                                      
   IUNSCR =        1    unscreen: 0-lin 1-nonlin 2-no                           
   RPACOR =    2.000    partial core radius                                     
   POMASS =   55.847; ZVAL   =    8.000    mass and valenz                      
   RCORE  =    2.300    outmost cutoff radius                                   
   RWIGS  =    2.460; RWIGS  =    1.302    wigner-seitz radius (au A)           
   ENMAX  =  267.882; ENMIN  =  200.911 eV                                      
   RCLOC  =    1.701    cutoff for local pot                                    
   LCOR   =        T    correct aug charges                                     
   LPAW   =        T    paw PP                                                  
   EAUG   =  511.368                                                            
   DEXC   =    0.000                                                            
   RMAX   =    2.356    core radius for proj-oper                               
   RAUG   =    1.300    factor for augmentation sphere                          
   RDEP   =    2.442    radius for radial grids                                 
   RDEPT  =    1.890    core radius for aug-charge                              
                                                                                
   Atomic configuration                                                         
    9 entries                                                                   
     n  l   j            E        occ.                                          
     1  0  0.50     -6993.8440   2.0000                                         
     2  0  0.50      -814.6047   2.0000                                         
     2  1  1.50      -693.3689   6.0000                                         
     3  0  0.50       -89.4732   2.0000                                         
     3  1  1.50       -55.6373   6.0000                                         
     3  2  2.50        -3.8151   7.0000                                         
     4  0  0.50        -4.2551   1.0000                                         
     4  1  1.50        -3.4015   0.0000                                         
     4  3  2.50        -1.3606   0.0000                                         
   Description                                                                  
     l       E           TYP  RCUT    TYP  RCUT                                 
     2     -3.8151135     23  2.300                                             
     2     -5.1756961     23  2.300                                             
     0     -4.2550963     23  2.300                                             
     0      7.2035603     23  2.300                                             
     1     -2.7211652     23  2.300                                             
     1     18.4316424     23  2.300                                             
  local pseudopotential read in
  partial core-charges read in
  partial kinetic energy density read in
  atomic valenz-charges read in
  non local Contribution for L=           2  read in
    real space projection operators read in
  non local Contribution for L=           2  read in
    real space projection operators read in
  non local Contribution for L=           0  read in
    real space projection operators read in
  non local Contribution for L=           0  read in
    real space projection operators read in
  non local Contribution for L=           1  read in
    real space projection operators read in
  non local Contribution for L=           1  read in
    real space projection operators read in
    PAW grid and wavefunctions read in
 
   number of l-projection  operators is LMAX  =           6
   number of lm-projection operators is LMMAX =          18
 

 ----------------------------------------------------------------------------- 
|                                                                             |
|  ADVICE TO THIS USER RUNNING 'VASP/VAMP'   (HEAR YOUR MASTER'S VOICE ...):  |
|                                                                             |
|      You have a (more or less) 'large supercell' and for larger cells       |
|      it might be more efficient to use real space projection opertators     |
|      So try LREAL= Auto  in the INCAR   file.                               |
|      Mind:          For very  accurate calculation you might also keep the  |
|      reciprocal projection scheme          (i.e. LREAL=.FALSE.)             |
|                                                                             |
 ----------------------------------------------------------------------------- 

  PAW_PBE C 08Apr2002                   :
 energy of atom  1       EATOM= -147.1560
 kinetic energy error for atom=    0.0076 (will be added to EATOM!!)
  PAW_PBE N 08Apr2002                   :
 energy of atom  2       EATOM= -264.5486
 kinetic energy error for atom=    0.0138 (will be added to EATOM!!)
  PAW_PBE Co 02Aug2007                  :
 energy of atom  3       EATOM= -813.3670
 kinetic energy error for atom=    0.0028 (will be added to EATOM!!)
  PAW_PBE Fe 06Sep2000                  :
 energy of atom  4       EATOM= -594.3153
 kinetic energy error for atom=    0.0026 (will be added to EATOM!!)
 
 
 POSCAR:  C  N Co Fe                             
  positions in cartesian coordinates
  No initial velocities read in
 exchange correlation table for  LEXCH =        8
   RHO(1)=    0.500       N(1)  =     2000
   RHO(2)=  100.500       N(2)  =     4000

 VTST: version 3.2, (02/03/18)

 CHAIN: initializing optimizer
 
 OPT: Using VASP Conjugate-Gradient optimizer
 CHAIN: Read ICHAIN            0
 
 POSCAR:  C  N Co Fe                             
  positions in cartesian coordinates
  No initial velocities read in
 


--------------------------------------------------------------------------------------------------------


 ion  position               nearest neighbor table
   1  0.225  0.000  0.500-  18 1.44   4 1.45   3 1.47
   2  0.057  0.100  0.500-   7 1.43   3 1.43  33 1.45
   3  0.113  0.000  0.500-   2 1.43  16 1.43   1 1.47
   4  0.280  0.102  0.500-   1 1.45   5 1.45  20 1.47
   5  0.222  0.203  0.500-  50 1.43   4 1.45   7 1.46
   6  0.052  0.298  0.500-  10 1.41  37 1.43   7 1.44
   7  0.111  0.200  0.500-   2 1.43   6 1.44   5 1.46
   8  0.210  0.399  0.500-  10 1.41  50 1.41  11 1.42
   9  0.048  0.500  0.500-  41 1.41  14 1.43  10 1.43
  10  0.102  0.399  0.500-   8 1.41   6 1.41   9 1.43
  11  0.263  0.500  0.499-  56 1.32   8 1.42  12 1.43
  12  0.210  0.601  0.500-  14 1.41  51 1.41  11 1.43
  13  0.051  0.702  0.500-  14 1.41  45 1.43  17 1.44
  14  0.102  0.601  0.500-  12 1.41  13 1.41   9 1.43
  15  0.221  0.798  0.500-  51 1.43  17 1.45  18 1.46
  16  0.056  0.901  0.500-  17 1.43   3 1.43  49 1.45
  17  0.110  0.800  0.500-  16 1.43  13 1.44  15 1.45
  18  0.280  0.899  0.500-   1 1.44  15 1.46  28 1.47
  19  0.557  0.000  0.500-  22 1.43  29 1.43  21 1.45
  20  0.392  0.104  0.500-  52 1.44  21 1.45   4 1.47
  21  0.446  0.001  0.500-  19 1.45  20 1.45  28 1.46
  22  0.614  0.100  0.500-  23 1.43  19 1.43  31 1.44
  23  0.559  0.200  0.500-  52 1.42  22 1.43  24 1.46
  24  0.616  0.302  0.500-  55 1.37  35 1.43  23 1.46
  25  0.612  0.497  0.500-  55 1.41  53 1.44  39 1.45
  26  0.616  0.698  0.500-  43 1.42  53 1.43  27 1.47
  27  0.559  0.801  0.500-  29 1.42  54 1.43  26 1.47
  28  0.392  0.898  0.500-  54 1.44  21 1.46  18 1.47
  29  0.614  0.901  0.500-  27 1.42  19 1.43  47 1.44
  30  0.890  0.000  0.500-  49 1.42  33 1.42  32 1.45
  31  0.724  0.099  0.500-  32 1.42  36 1.43  22 1.44
  32  0.780  0.000  0.500-  31 1.42  47 1.42  30 1.45
  33  0.946  0.099  0.500-  30 1.42  34 1.43   2 1.45
  34  0.889  0.199  0.500-  37 1.42  36 1.43  33 1.43
  35  0.725  0.299  0.500-  40 1.42  24 1.43  36 1.43
  36  0.779  0.199  0.500-  31 1.43  35 1.43  34 1.43
  37  0.942  0.299  0.500-  34 1.42  38 1.43   6 1.43
  38  0.888  0.399  0.500-  41 1.42  40 1.43  37 1.43
  39  0.723  0.499  0.500-  40 1.43  44 1.44  25 1.45
  40  0.779  0.399  0.500-  35 1.42  38 1.43  39 1.43
  41  0.941  0.500  0.500-   9 1.41  38 1.42  42 1.43
  42  0.887  0.600  0.500-  41 1.43  44 1.43  45 1.43
  43  0.724  0.700  0.500-  44 1.42  26 1.42  48 1.43
  44  0.778  0.600  0.500-  43 1.42  42 1.43  39 1.44
  45  0.942  0.701  0.500-  46 1.42  13 1.43  42 1.43
  46  0.889  0.801  0.500-  45 1.42  48 1.43  49 1.43
  47  0.724  0.901  0.500-  32 1.42  48 1.43  29 1.44
  48  0.779  0.801  0.500-  47 1.43  46 1.43  43 1.43
  49  0.946  0.901  0.500-  30 1.42  46 1.43  16 1.45
  50  0.272  0.306  0.500-   8 1.41   5 1.43  57 1.91
  51  0.271  0.695  0.500-  12 1.41  15 1.43  58 1.98
  52  0.450  0.203  0.499-  23 1.42  20 1.44  57 1.91
  53  0.559  0.599  0.500-  26 1.43  25 1.44  58 1.97
  54  0.450  0.799  0.500-  27 1.43  28 1.44  58 1.95
  55  0.562  0.396  0.499-  24 1.37  25 1.41  57 2.04
  56  0.364  0.499  0.499-  11 1.32  57 1.92  58 1.92
  57  0.411  0.352  0.496-  50 1.91  52 1.91  56 1.92  55 2.04
  58  0.415  0.645  0.500-  56 1.92  54 1.95  53 1.97  51 1.98
 
  LATTYP: Found a triclinic cell.
 ALAT       =    17.9645315901
 B/A-ratio  =     0.6863198113
 C/A-ratio  =     1.0968367364
 COS(alpha) =     0.0000561366
 COS(beta)  =     0.0003546693
 COS(gamma) =     0.6856563039
  
  Lattice vectors:
  
 A1 = (  13.0752386077,  12.3191935721,   0.0005826308)
 A2 = (  -0.0016022258,  12.3294138243,   0.0002924721)
 A3 = (   0.0081209020,   0.0006397687,  19.7041565161)


Analysis of symmetry for initial positions (statically):
=====================================================================
 Subroutine PRICEL returns:
 Original cell was already a primitive cell.
 

 Routine SETGRP: Setting up the symmetry group for a 
 triclinic supercell.


 Subroutine GETGRP returns: Found  1 space group operations
 (whereof  1 operations were pure point group operations)
 out of a pool of  2 trial point group operations.


The static configuration has the point symmetry C_1 .


Analysis of symmetry for dynamics (positions and initial velocities):
=====================================================================
 Subroutine PRICEL returns:
 Original cell was already a primitive cell.
 

 Routine SETGRP: Setting up the symmetry group for a 
 triclinic supercell.


 Subroutine GETGRP returns: Found  1 space group operations
 (whereof  1 operations were pure point group operations)
 out of a pool of  2 trial point group operations.


The dynamic configuration has the point symmetry C_1 .


Analysis of structural, dynamic, and magnetic symmetry:
=====================================================================
 Subroutine PRICEL returns:
 Original cell was already a primitive cell.
 

 Routine SETGRP: Setting up the symmetry group for a 
 triclinic supercell.


 Subroutine GETGRP returns: Found  1 space group operations
 (whereof  1 operations were pure point group operations)
 out of a pool of  2 trial point group operations.


The magnetic configuration has the point symmetry C_1 .


 Subroutine INISYM returns: Found  1 space group operations
 (whereof  1 operations are pure point group operations),
 and found     1 'primitive' translations

 
 
 KPOINTS: KPOINTS created by Atomic Simulation Env

Automatic generation of k-mesh.
Space group operators:
 irot       det(A)        alpha          n_x          n_y          n_z        tau_x        tau_y        tau_z
    1     1.000000     0.000001     1.000000     0.000000     0.000000     0.000000     0.000000     0.000000
 
 Subroutine IBZKPT returns following result:
 ===========================================
 
 Found      2 irreducible k-points:
 
 Following reciprocal coordinates:
            Coordinates               Weight
  0.250000  0.250000  0.000000      2.000000
 -0.250000  0.250000 -0.000000      2.000000
 
 Following cartesian coordinates:
            Coordinates               Weight
  0.019134  0.020279 -0.000009      2.000000
 -0.019102  0.020274  0.000007      2.000000
 
 
 Subroutine IBZKPT_HF returns following result:
 ==============================================
 
 Found      4 k-points in 1st BZ
 the following      4 k-points will be used (e.g. in the exchange kernel)
 Following reciprocal coordinates:   # in IRBZ
  0.250000  0.250000  0.000000    0.25000000   1 t-inv F
 -0.250000  0.250000 -0.000000    0.25000000   2 t-inv F
 -0.250000 -0.250000 -0.000000    0.25000000   1 t-inv T
  0.250000 -0.250000  0.000000    0.25000000   2 t-inv T


--------------------------------------------------------------------------------------------------------




 Dimension of arrays:
   k-points           NKPTS =      2   k-points in BZ     NKDIM =      4   number of bands    NBANDS=    155
   number of dos      NEDOS =    301   number of ions     NIONS =     58
   non local maximal  LDIM  =      6   non local SUM 2l+1 LMDIM =     18
   total plane-waves  NPLWV = ******
   max r-space proj   IRMAX =      1   max aug-charges    IRDMAX=  15643
   dimension x,y,z NGX =    96 NGY =   90 NGZ =  144
   dimension x,y,z NGXF=   192 NGYF=  180 NGZF=  288
   support grid    NGXF=   192 NGYF=  180 NGZF=  288
   ions per type =              54   2   1   1
   NGX,Y,Z   is equivalent  to a cutoff of  12.20, 12.14, 12.15 a.u.
   NGXF,Y,Z  is equivalent  to a cutoff of  24.41, 24.27, 24.30 a.u.

 SYSTEM =  unknown system                          
 POSCAR =   C  N Co Fe                             

 Startparameter for this run:
   NWRITE =      2    write-flag & timer
   PREC   = accura    normal or accurate (medium, high low for compatibility)
   ISTART =      1    job   : 0-new  1-cont  2-samecut
   ICHARG =      0    charge: 1-file 2-atom 10-const
   ISPIN  =      2    spin polarized calculation?
   LNONCOLLINEAR =      F non collinear calculations
   LSORBIT =      F    spin-orbit coupling
   INIWAV =      1    electr: 0-lowe 1-rand  2-diag
   LASPH  =      T    aspherical Exc in radial PAW
   METAGGA=      F    non-selfconsistent MetaGGA calc.

 Electronic Relaxation 1
   ENCUT  =  500.0 eV  36.75 Ry    6.06 a.u.  23.84 22.48 35.93*2*pi/ulx,y,z
   ENINI  =  500.0     initial cutoff
   ENAUG  =  644.9 eV  augmentation charge cutoff
   NELM   =    250;   NELMIN=  2; NELMDL=  0     # of ELM steps 
   EDIFF  = 0.1E-03   stopping-criterion for ELM
   LREAL  =      F    real-space projection
   NLSPLINE    = F    spline interpolate recip. space projectors
   LCOMPAT=      F    compatible to vasp.4.4
   GGA_COMPAT  = T    GGA compatible to vasp.4.4-vasp.4.6
   LMAXPAW     = -100 max onsite density
   LMAXMIX     =    2 max onsite mixed and CHGCAR
   VOSKOWN=      0    Vosko Wilk Nusair interpolation
   ROPT   =    0.00000   0.00000   0.00000   0.00000
 Ionic relaxation
   EDIFFG = -.3E-01   stopping-criterion for IOM
   NSW    =      0    number of steps for IOM
   NBLOCK =      1;   KBLOCK =      1    inner block; outer block 
   IBRION =     -1    ionic relax: 0-MD 1-quasi-New 2-CG
   NFREE  =      1    steps in history (QN), initial steepest desc. (CG)
   ISIF   =      2    stress and relaxation
   IWAVPR =     10    prediction:  0-non 1-charg 2-wave 3-comb
   ISYM   =      3    0-nonsym 1-usesym 2-fastsym
   LCORR  =      T    Harris-Foulkes like correction to forces

   POTIM  = 0.5000    time-step for ionic-motion
   TEIN   =    0.0    initial temperature
   TEBEG  =    0.0;   TEEND  =   0.0 temperature during run
   SMASS  =  -3.00    Nose mass-parameter (am)
   estimated Nose-frequenzy (Omega)   =  0.10E-29 period in steps =****** mass=  -0.391E-26a.u.
   SCALEE = 1.0000    scale energy and forces
   NPACO  =    256;   APACO  = 16.0  distance and # of slots for P.C.
   PSTRESS=    0.0 pullay stress

  Mass of Ions in am
   POMASS =  12.01 14.00 58.93 55.85
  Ionic Valenz
   ZVAL   =   4.00  5.00  9.00  8.00
  Atomic Wigner-Seitz radii
   RWIGS  =  -1.00 -1.00 -1.00 -1.00
  virtual crystal weights 
   VCA    =   1.00  1.00  1.00  1.00
   NELECT =     243.0000    total number of electrons
   NUPDOWN=      -1.0000    fix difference up-down

 DOS related values:
   EMIN   =  10.00;   EMAX   =-10.00  energy-range for DOS
   EFERMI =   0.00
   ISMEAR =     0;   SIGMA  =   0.10  broadening in eV -4-tet -1-fermi 0-gaus

 Electronic relaxation 2 (details)
   IALGO  =     53    algorithm
   LDIAG  =      T    sub-space diagonalisation (order eigenvalues)
   LSUBROT=      F    optimize rotation matrix (better conditioning)
   TURBO    =      0    0=normal 1=particle mesh
   IRESTART =      0    0=no restart 2=restart with 2 vectors
   NREBOOT  =      0    no. of reboots
   NMIN     =      0    reboot dimension
   EREF     =   0.00    reference energy to select bands
   IMIX   =      4    mixing-type and parameters
     AMIX     =   0.40;   BMIX     =  1.00
     AMIX_MAG =   1.60;   BMIX_MAG =  1.00
     AMIN     =   0.10
     WC   =   100.;   INIMIX=   1;  MIXPRE=   1;  MAXMIX= -45

 Intra band minimization:
   WEIMIN = 0.0000     energy-eigenvalue tresh-hold
   EBREAK =  0.16E-06  absolut break condition
   DEPER  =   0.30     relativ break condition  

   TIME   =   0.20     timestep for ELM

  volume/ion in A,a.u.               =      54.77       369.63
  Fermi-wavevector in a.u.,A,eV,Ry     =   0.694932  1.313232  6.570676  0.482931
  Thomas-Fermi vector in A             =   1.777564
 
 Write flags
   LWAVE        =      T    write WAVECAR
   LDOWNSAMPLE  =      F    k-point downsampling of WAVECAR
   LCHARG       =      T    write CHGCAR
   LVTOT        =      F    write LOCPOT, total local potential
   LVHAR        =      F    write LOCPOT, Hartree potential only
   LELF         =      F    write electronic localiz. function (ELF)
   LORBIT       =     11    0 simple, 1 ext, 2 COOP (PROOUT), +10 PAW based schemes


 Dipole corrections
   LMONO  =      F    monopole corrections only (constant potential shift)
   LDIPOL =      T    correct potential (dipole corrections)
   IDIPOL =      3    1-x, 2-y, 3-z, 4-all directions 
   EPSILON=  1.0000000 bulk dielectric constant

 Exchange correlation treatment:
   GGA     =    PE    GGA type
   LEXCH   =     8    internal setting for exchange type
   VOSKOWN=      0    Vosko Wilk Nusair interpolation
   EXXOEP  =     0    0=HF, 1=EXX-LHF (local Hartree Fock) 2=EXX OEP
   LHFCALC =     T    Hartree Fock is set to
   LSYMGRAD=     F    symmetrize gradient (conserves proper symmetry)
   PRECFOCK=normal    Normal, Fast or Accurate (Low or Medium for compatibility)
   LRHFCALC=     F    long range Hartree Fock
   LRSCOR  =     F    long range correlation only (use DFT for short range part)
   LTHOMAS =     F    Thomas Fermi screening in HF
   LMODELHF=     F    short range full HF, long range fraction AEXX
   ENCUT4O =  -1.0   cutoff for four orbital integrals eV
   LMAXFOCK=     4    L truncation for augmentation on plane wave grid
   LMAXFOCKAE=  -1    L truncation for all-electron charge restoration on plane wave grid
   NMAXFOCKAE=   1    number of basis functions for all-electron charge restoration
   LFOCKAEDFT=     F  apply the AE augmentation even for DFT
   NKREDX  =     1    reduce k-point grid by
   NKREDY  =     1    reduce k-point grid by
   NKREDZ  =     1    reduce k-point grid by
   SHIFTRED=     F    shift reduced grid of Gamma
   HFKIDENT=     F    idential grid for each k-point
   ODDONLY =     F    use only odd q-grid points
   EVENONLY=     F    use only even q-grid points
   HFALPHA =   -1.0000 decay constant for conv. correction
   MCALPHA =    0.0000 extent of test-charge in conv. correction in multipole expansion
   AEXX    =    0.2500 exact exchange contribution
   HFSCREEN=    0.2000 screening length (either q_TF or 0.3 A-1)
   HFSCREENC=   0.2000 screening length for correlation (either q_TF or 0.3 A-1)
   HFRCUT  =    0.0000 spherical cutoff for potential kernel
   ALDAX   =    0.7500 LDA exchange part
   AGGAX   =    0.7500 GGA exchange part
   ALDAC   =    1.0000 LDA correlation
   AGGAC   =    1.0000 GGA correlation
   ENCUTFOCK=  -1.0 apply spherical cutoff to Coloumb kernel
   NBANDSGWLOW=     1    first orbital included in HF term
   NBLOCK_FOCK=    64    blocking factor in FOCK_ACC
 Linear response parameters
   LEPSILON=     F    determine dielectric tensor
   LRPA    =     F    only Hartree local field effects (RPA)
   LNABLA  =     F    use nabla operator in PAW spheres
   LVEL    =     F    velocity operator in full k-point grid
   LINTERFAST=   F  fast interpolation
   KINTER  =     0    interpolate to denser k-point grid
   CSHIFT  =0.1000    complex shift for real part using Kramers Kronig
   OMEGAMAX=  -1.0    maximum frequency
   DEG_THRESHOLD= 0.2000000E-02 threshold for treating states as degnerate
   RTIME   =   -0.100 relaxation time in fs
  (WPLASMAI=    0.000 imaginary part of plasma frequency in eV, 0.658/RTIME)
   DFIELD  = 0.0000000 0.0000000 0.0000000 field for delta impulse in time
 
 Orbital magnetization related:
   ORBITALMAG=     F  switch on orbital magnetization
   LCHIMAG   =     F  perturbation theory with respect to B field
   DQ        =  0.001000  dq finite difference perturbation B field
   LLRAUG    =     F  two centre corrections for induced B field



--------------------------------------------------------------------------------------------------------


 Static calculation
 charge density and potential will be updated during run
 spin polarized calculation
 Conjugate gradient for all bands (Freysoldt, et al. PRB 79, 241103 (2009))
 perform sub-space diagonalisation
    before iterative eigenvector-optimisation
 modified Broyden-mixing scheme, WC =      100.0
 initial mixing is a Kerker type mixing with AMIX =  0.4000 and BMIX =      1.0000
 Hartree-type preconditioning will be used
 using additional bands           33
 reciprocal scheme for non local part
 use partial core corrections
 no Harris-corrections to forces 
 use gradient corrections 
 use of overlap-Matrix (Vanderbilt PP)
 Gauss-broadening in eV      SIGMA  =   0.10


--------------------------------------------------------------------------------------------------------


  energy-cutoff  :      500.00
  volume of cell :     3176.90
      direct lattice vectors                 reciprocal lattice vectors
    13.076840833 -0.010220252  0.000290159     0.076471078  0.000009938 -0.000031517
    -0.001602226 12.329413824  0.000292472     0.000063389  0.081106865 -0.000002660
     0.008120902  0.000639769 19.704156516    -0.000001127 -0.000001204  0.050750714

  length of vectors
    13.076844830 12.329413932 19.704158200     0.076471085  0.081106890  0.050750714


 
 old parameters found on file WAVECAR:
  energy-cutoff  :      500.00
  volume of cell :     3176.90
      direct lattice vectors                 reciprocal lattice vectors
    12.980900000  0.000000000  0.000000000     0.077036261 -0.000051227 -0.000029042
     0.008137974 12.238097294  0.000000000     0.000000000  0.081712049 -0.000000407
     0.007539031  0.000099696 19.997898579     0.000000000  0.000000000  0.050005254

  length of vectors

 
 k-points in units of 2pi/SCALE and weight: KPOINTS created by Atomic Simulation Env
   0.01913362  0.02027920 -0.00000854       0.500
  -0.01910192  0.02027423  0.00000721       0.500
 
 k-points in reciprocal lattice and weights: KPOINTS created by Atomic Simulation Env
   0.25000000  0.25000000  0.00000000       0.500
  -0.25000000  0.25000000 -0.00000000       0.500
 
 position of ions in fractional coordinates (direct lattice) 
   0.22532285  0.00029150  0.49981507
   0.05660581  0.09958341  0.49993039
   0.11307435  0.00018830  0.49991608
   0.28024046  0.10206298  0.49966937
   0.22238941  0.20267444  0.49976038
   0.05173611  0.29830314  0.50005435
   0.11108548  0.20028268  0.49989663
   0.20995795  0.39894908  0.49997732
   0.04840393  0.50000270  0.50006900
   0.10230580  0.39940668  0.50007280
   0.26264902  0.50014316  0.49944944
   0.20966751  0.60134542  0.49975420
   0.05126879  0.70161733  0.50006316
   0.10218279  0.60074159  0.49994467
   0.22143326  0.79790769  0.49984057
   0.05622695  0.90076495  0.50003258
   0.11038461  0.80010998  0.49999688
   0.27990929  0.89853874  0.49980871
   0.55714812  0.00045867  0.49996020
   0.39232616  0.10356206  0.49965794
   0.44642751  0.00073336  0.49986852
   0.61387978  0.09982577  0.50000211
   0.55905282  0.19980625  0.49988300
   0.61592411  0.30185590  0.49983110
   0.61218946  0.49703262  0.49950078
   0.61556412  0.69806957  0.49973676
   0.55940456  0.80092449  0.49976390
   0.39207401  0.89767466  0.49979856
   0.61385443  0.90099430  0.49995305
   0.89029954  0.00002178  0.50008333
   0.72389806  0.09910315  0.50003687
   0.77974384  0.00000694  0.50007271
   0.94583975  0.09944395  0.50002749
   0.88865101  0.19852809  0.50006668
   0.72495086  0.29939859  0.50012564
   0.77917442  0.19878277  0.50009698
   0.94236206  0.29870833  0.50010612
   0.88765009  0.39897683  0.50013865
   0.72281650  0.49878701  0.49992796
   0.77863510  0.39943197  0.50007221
   0.94068496  0.49994317  0.50017079
   0.88681106  0.60046096  0.50016371
   0.72446365  0.70019166  0.49989645
   0.77769076  0.59965843  0.50001132
   0.94188678  0.70098689  0.50016595
   0.88851641  0.80128567  0.50015200
   0.72387757  0.90076670  0.50005387
   0.77906867  0.80086778  0.50005580
   0.94563938  0.90064955  0.50011673
   0.27223990  0.30586502  0.49979015
   0.27120347  0.69512761  0.49969081
   0.45038181  0.20313414  0.49942599
   0.55911314  0.59912724  0.49961460
   0.45036736  0.79905924  0.49983936
   0.56152988  0.39631735  0.49913548
   0.36387853  0.49910261  0.49875403
   0.41144706  0.35226701  0.49622904
   0.41489895  0.64502815  0.49992174
 
 position of ions in cartesian coordinates  (Angst):
   2.95056956  0.00161087  9.84849993
   0.74412549  1.22754634  9.85075221
   1.48271478  0.00148587  9.85045757
   3.66855410  1.25583220  9.84567463
   2.91188465  2.49690387  9.84748058
   0.68012776  3.67769397  9.85325143
   1.45638584  2.46855250  9.85013216
   2.74900772  4.91698232  9.85180894
   0.63623044  6.16456539  9.85359806
   1.34125775  4.92372458  9.85365917
   3.43787403  6.16410722  9.84145248
   2.74488364  7.41241345  9.84747162
   0.67337060  8.65032630  9.85354287
   1.33932550  7.40606718  9.85119338
   2.89842822  9.83579077  9.84923434
   0.73788836 11.10564914  9.85300003
   1.44626050  9.86407883  9.85228292
   3.66294846 11.07591501  9.84865307
   7.28979666  0.00028075  9.85145588
   5.13427850  1.27316950  9.84548241
   5.84191972  0.00479911  9.84961726
   8.03150867  1.22483910  9.85232721
   7.31438417  2.45810013  9.84999346
   8.05791696  3.71573120  9.84901723
   8.00876410  6.12218373  9.84256447
   8.05257382  8.60081713  9.84727403
   7.31801962  9.86953191  9.84782273
   5.12970996 11.06411505  9.84848536
   8.02989309 11.10277770  9.85159475
  11.64636651 -0.00851056  9.85397853
   9.47020164  1.21480524  9.85304378
  10.20064713 -0.00756368  9.85373720
  12.37249724  1.21673874  9.85292355
  11.62449068  2.43897261  9.85370807
   9.48364879  3.68431996  9.85485188
  10.19288263  2.44323162  9.85427342
  12.32670140  3.67358735  9.85453002
  11.61108128  4.91039844  9.85518439
   9.45541702  6.14268398  9.85101439
  10.18550833  4.91712415  9.85384390
  12.30444834  6.15471214  9.85586274
  11.59978681  7.39458821  9.85573694
   9.47663361  8.62586840  9.85045298
  10.17283800  7.38580866  9.85270227
  12.31984223  8.63345117  9.85582657
  11.62176548  9.87062168  9.85556552
   9.46864939 11.09884709  9.85361315
  10.19053479  9.86658788  9.85363811
  12.36859398 11.09513632  9.85491606
   3.56360649  3.76867375  9.84811187
   3.54942879  8.56806392  9.84626799
   5.89330151  2.50024139  9.84095806
   7.31453095  7.38149299  9.84482178
   5.89216118  9.84764896  9.84927732
   7.34645531  4.88094092  9.83532240
   4.76163226  6.15024279  9.82777909
   5.38389314  4.33935812  9.77799711
   5.42859387  7.94889840  9.85084525
 


--------------------------------------------------------------------------------------------------------


 k-point  1 :   0.2500 0.2500 0.0000  plane waves:   80627
 k-point  2 :  -0.2500 0.2500-0.0000  plane waves:   80656

 maximum and minimum number of plane-waves per node :      2543     2483

 maximum number of plane-waves:     80656
 maximum index in each direction: 
   IXMAX=   24   IYMAX=   22   IZMAX=   35
   IXMIN=  -24   IYMIN=  -22   IZMIN=  -35


 parallel 3D FFT for wavefunctions:
    minimum data exchange during FFTs selected (reduces bandwidth)
 parallel 3D FFT for charge:
    minimum data exchange during FFTs selected (reduces bandwidth)


 FFT grid for exact exchange (Hartree Fock) 
  NGX = 72; NGY = 70; NGZ =108

 
 Radii for the augmentation spheres in the non-local exchange
 for species   1 augmentation radius   0.874 (default was   0.699)
       energy cutoff for augmentation   2000.0
 for species   2 augmentation radius   0.886 (default was   0.709)
       energy cutoff for augmentation   2000.0
 for species   3 augmentation radius   1.307 (default was   1.045)
       energy cutoff for augmentation   2000.0
 for species   4 augmentation radius   1.263 (default was   1.010)
       energy cutoff for augmentation   2000.0

 real space projection operators:
  total allocation   :       2457.31 KBytes
  max/ min on nodes  :        126.07         43.80

 Maximum index for augmentation-charges in exchange          149
  SETUP_FOCK is finished

 total amount of memory used by VASP MPI-rank0   159985. kBytes
=======================================================================

   base      :      30000. kBytes
   nonl-proj :       5306. kBytes
   fftplans  :      12934. kBytes
   grid      :      33177. kBytes
   one-center:         62. kBytes
   HF        :         23. kBytes
   nonlr-proj:       1794. kBytes
   wavefun   :      76689. kBytes
 
     INWAV:  cpu time    5.7141: real time    5.7146
 Broyden mixing: mesh for mixing (old mesh)
   NGX = 47   NGY = 45   NGZ = 71
  (NGX  =192   NGY  =180   NGZ  =288)
  gives a total of 150165 points

 charge density for first step will be calculated from the start-wavefunctions


--------------------------------------------------------------------------------------------------------


 Maximum index for augmentation-charges          231 (set IRDMAX)


--------------------------------------------------------------------------------------------------------


 initial charge from wavefunction
 First call to EWALD:  gamma=   0.121
 Maximum number of real-space cells 3x 3x 2
 Maximum number of reciprocal cells 2x 2x 4

    FEWALD:  cpu time    0.0037: real time    0.0037


--------------------------------------- Iteration      1(   1)  ---------------------------------------


    POTLOK:  cpu time    1.2366: real time    1.2401
    SETDIJ:  cpu time    2.0857: real time    2.0865
    TRIAL :  cpu time  511.3986: real time  511.5025
    CORREC:  cpu time    0.0023: real time    0.0026
    CHARGE:  cpu time    1.6096: real time    1.6098
    --------------------------------------------
      LOOP:  cpu time  516.3481: real time  516.4598

 eigenvalue-minimisations  :     0
 total energy-change (2. order) :-0.6034870E+03  (-0.5604530E+00)
 number of electron     243.0000027 magnetization       1.2433175
 augmentation part       14.5155756 magnetization       0.8647239

 DIPCOR: dipole corrections for dipol
 direction  3 min pos     1,
 dipolmoment           0.000007      0.000001      0.017606 electrons x Angstroem
 Tr[quadrupol]     -6543.537079

 energy correction for charged system         0.000000 eV
 dipol+quadrupol energy correction            0.000009 eV
 added-field ion interaction          0.000000 eV  (added to PSCEN)


 Free energy of the ion-electron system (eV)
  ---------------------------------------------------
  alpha Z        PSCENC =        98.33028065
  Ewald energy   TEWEN  =     37521.71960540
  -Hartree energ DENC   =    -45967.10846530
  -exchange      EXHF   =       544.18834251
  -V(xc)+E(xc)   XCENC  =       613.43062271
  PAW double counting   =     25833.09065940   -25919.89568980
  entropy T*S    EENTRO =        -0.02673085
  eigenvalues    EBANDS =     -3098.60543443
  atomic energy  EATOM  =      9771.40124162
  ---------------------------------------------------
  free energy    TOTEN  =      -603.48698150 eV

  energy without entropy =     -603.46025065  energy(sigma->0) =     -603.47361607
  exchange ACFDT corr.  =        -0.17639593  see jH, gK, PRB 81, 115126


--------------------------------------------------------------------------------------------------------




--------------------------------------- Iteration      1(   2)  ---------------------------------------


    POTLOK:  cpu time    1.2530: real time    1.2533
    SETDIJ:  cpu time    2.0833: real time    2.0833
    TRIAL :  cpu time  515.2006: real time  515.2812
    CORREC:  cpu time    0.0022: real time    0.0024
    CHARGE:  cpu time    1.6061: real time    1.6062
    --------------------------------------------
      LOOP:  cpu time  520.1479: real time  520.2292

 eigenvalue-minimisations  :     0
 total energy-change (2. order) :-0.4493088E+00  (-0.5718114E+00)
 number of electron     243.0000027 magnetization       1.1632352
 augmentation part       14.5193831 magnetization       0.8509614

 DIPCOR: dipole corrections for dipol
 direction  3 min pos     1,
 dipolmoment           0.000010      0.000001      0.023821 electrons x Angstroem
 Tr[quadrupol]     -6543.352588

 energy correction for charged system         0.000000 eV
 dipol+quadrupol energy correction            0.000016 eV
 added-field ion interaction          0.000000 eV  (added to PSCEN)


 Free energy of the ion-electron system (eV)
  ---------------------------------------------------
  alpha Z        PSCENC =        98.33028802
  Ewald energy   TEWEN  =     37521.71960540
  -Hartree energ DENC   =    -45949.16971486
  -exchange      EXHF   =       544.21257199
  -V(xc)+E(xc)   XCENC  =       613.04913499
  PAW double counting   =     25947.34430062   -26033.23617644
  entropy T*S    EENTRO =        -0.01980601
  eigenvalues    EBANDS =     -3117.56081080
  atomic energy  EATOM  =      9771.40124162
  ---------------------------------------------------
  free energy    TOTEN  =      -603.93629030 eV

  energy without entropy =     -603.91648429  energy(sigma->0) =     -603.92638730
  exchange ACFDT corr.  =        -0.12756786  see jH, gK, PRB 81, 115126


--------------------------------------------------------------------------------------------------------




--------------------------------------- Iteration      1(   3)  ---------------------------------------


    POTLOK:  cpu time    1.2640: real time    1.2643
    SETDIJ:  cpu time    2.0827: real time    2.0827
    TRIAL :  cpu time  514.0521: real time  514.1265
    CORREC:  cpu time    0.0022: real time    0.0025
    CHARGE:  cpu time    1.6076: real time    1.6077
    --------------------------------------------
      LOOP:  cpu time  519.0111: real time  519.0861

 eigenvalue-minimisations  :     0
 total energy-change (2. order) :-0.4267461E+00  (-0.3636325E+00)
 number of electron     243.0000027 magnetization       1.0592650
 augmentation part       14.5009395 magnetization       0.8133892

 DIPCOR: dipole corrections for dipol
 direction  3 min pos     1,
 dipolmoment           0.000008      0.000001      0.020475 electrons x Angstroem
 Tr[quadrupol]     -6543.179463

 energy correction for charged system         0.000000 eV
 dipol+quadrupol energy correction            0.000012 eV
 added-field ion interaction          0.000000 eV  (added to PSCEN)


 Free energy of the ion-electron system (eV)
  ---------------------------------------------------
  alpha Z        PSCENC =        98.33028378
  Ewald energy   TEWEN  =     37521.71960540
  -Hartree energ DENC   =    -45936.29884114
  -exchange      EXHF   =       544.27515302
  -V(xc)+E(xc)   XCENC  =       612.75921332
  PAW double counting   =     26105.08750369   -26191.78449042
  entropy T*S    EENTRO =        -0.00898042
  eigenvalues    EBANDS =     -3129.83289962
  atomic energy  EATOM  =      9771.40124162
  ---------------------------------------------------
  free energy    TOTEN  =      -604.36303637 eV

  energy without entropy =     -604.35405595  energy(sigma->0) =     -604.35854616
  exchange ACFDT corr.  =        -0.06909459  see jH, gK, PRB 81, 115126


--------------------------------------------------------------------------------------------------------




--------------------------------------- Iteration      1(   4)  ---------------------------------------


    POTLOK:  cpu time    1.2730: real time    1.2730
    SETDIJ:  cpu time    2.0843: real time    2.0847
    TRIAL :  cpu time  510.9178: real time  510.9865
    CORREC:  cpu time    0.0020: real time    0.0023
    CHARGE:  cpu time    1.6040: real time    1.6040
    --------------------------------------------
      LOOP:  cpu time  515.8840: real time  515.9532

 eigenvalue-minimisations  :     0
 total energy-change (2. order) :-0.2736695E+00  (-0.2148424E+00)
 number of electron     243.0000026 magnetization       1.0149335
 augmentation part       14.4931776 magnetization       0.7932151

 DIPCOR: dipole corrections for dipol
 direction  3 min pos     1,
 dipolmoment           0.000009      0.000001      0.021677 electrons x Angstroem
 Tr[quadrupol]     -6543.094166

 energy correction for charged system         0.000000 eV
 dipol+quadrupol energy correction            0.000013 eV
 added-field ion interaction          0.000000 eV  (added to PSCEN)


 Free energy of the ion-electron system (eV)
  ---------------------------------------------------
  alpha Z        PSCENC =        98.33028523
  Ewald energy   TEWEN  =     37521.71960540
  -Hartree energ DENC   =    -45927.52447799
  -exchange      EXHF   =       544.52589242
  -V(xc)+E(xc)   XCENC  =       612.61107346
  PAW double counting   =     26242.31688412   -26328.83610636
  entropy T*S    EENTRO =        -0.00277745
  eigenvalues    EBANDS =     -3139.17212334
  atomic energy  EATOM  =      9771.40124162
  ---------------------------------------------------
  free energy    TOTEN  =      -604.63670587 eV

  energy without entropy =     -604.63392842  energy(sigma->0) =     -604.63531714
  exchange ACFDT corr.  =        -0.02202170  see jH, gK, PRB 81, 115126


--------------------------------------------------------------------------------------------------------




--------------------------------------- Iteration      1(   5)  ---------------------------------------


    POTLOK:  cpu time    1.2613: real time    1.2615
    SETDIJ:  cpu time    2.0814: real time    2.0816
    TRIAL :  cpu time  509.9455: real time  510.0596
    CORREC:  cpu time    0.0020: real time    0.0023
    CHARGE:  cpu time    1.6049: real time    1.6051
    --------------------------------------------
      LOOP:  cpu time  514.8975: real time  515.0124

 eigenvalue-minimisations  :     0
 total energy-change (2. order) :-0.1659113E+00  (-0.1313321E+00)
 number of electron     243.0000026 magnetization       1.0033192
 augmentation part       14.4964468 magnetization       0.7824760

 DIPCOR: dipole corrections for dipol
 direction  3 min pos     1,
 dipolmoment           0.000009      0.000001      0.022103 electrons x Angstroem
 Tr[quadrupol]     -6543.103009

 energy correction for charged system         0.000000 eV
 dipol+quadrupol energy correction            0.000014 eV
 added-field ion interaction          0.000000 eV  (added to PSCEN)


 Free energy of the ion-electron system (eV)
  ---------------------------------------------------
  alpha Z        PSCENC =        98.33028576
  Ewald energy   TEWEN  =     37521.71960540
  -Hartree energ DENC   =    -45926.54413918
  -exchange      EXHF   =       544.86287849
  -V(xc)+E(xc)   XCENC  =       612.64903700
  PAW double counting   =     26344.48139670   -26430.91575612
  entropy T*S    EENTRO =        -0.00072613
  eigenvalues    EBANDS =     -3140.78438937
  atomic energy  EATOM  =      9771.40124162
  ---------------------------------------------------
  free energy    TOTEN  =      -604.80261715 eV

  energy without entropy =     -604.80189102  energy(sigma->0) =     -604.80225408
  exchange ACFDT corr.  =        -0.00390186  see jH, gK, PRB 81, 115126


--------------------------------------------------------------------------------------------------------




--------------------------------------- Iteration      1(   6)  ---------------------------------------


    POTLOK:  cpu time    1.2678: real time    1.2680
    SETDIJ:  cpu time    2.0800: real time    2.0803
    TRIAL :  cpu time  510.4424: real time  510.5710
    CORREC:  cpu time    0.0017: real time    0.0019
    CHARGE:  cpu time    1.6015: real time    1.6017
    --------------------------------------------
      LOOP:  cpu time  515.3957: real time  515.5271

 eigenvalue-minimisations  :     0
 total energy-change (2. order) :-0.1078696E+00  (-0.8743393E-01)
 number of electron     243.0000026 magnetization       1.0006842
 augmentation part       14.5007407 magnetization       0.7731824

 DIPCOR: dipole corrections for dipol
 direction  3 min pos     1,
 dipolmoment           0.000009      0.000001      0.021798 electrons x Angstroem
 Tr[quadrupol]     -6543.153196

 energy correction for charged system         0.000000 eV
 dipol+quadrupol energy correction            0.000014 eV
 added-field ion interaction          0.000000 eV  (added to PSCEN)


 Free energy of the ion-electron system (eV)
  ---------------------------------------------------
  alpha Z        PSCENC =        98.33028538
  Ewald energy   TEWEN  =     37521.71960540
  -Hartree energ DENC   =    -45929.68102731
  -exchange      EXHF   =       545.19489493
  -V(xc)+E(xc)   XCENC  =       612.77762584
  PAW double counting   =     26412.34069619   -26498.90681158
  entropy T*S    EENTRO =        -0.00017265
  eigenvalues    EBANDS =     -3138.08627104
  atomic energy  EATOM  =      9771.40124162
  ---------------------------------------------------
  free energy    TOTEN  =      -604.91048670 eV

  energy without entropy =     -604.91031405  energy(sigma->0) =     -604.91040038
  exchange ACFDT corr.  =        -0.00062645  see jH, gK, PRB 81, 115126


--------------------------------------------------------------------------------------------------------




--------------------------------------- Iteration      1(   7)  ---------------------------------------


    POTLOK:  cpu time    1.2604: real time    1.2607
    SETDIJ:  cpu time    2.0840: real time    2.0850
    TRIAL :  cpu time  509.5192: real time  509.6401
    CORREC:  cpu time    0.0017: real time    0.0017
    CHARGE:  cpu time    1.5998: real time    1.6000
    --------------------------------------------
      LOOP:  cpu time  514.4672: real time  514.5897

 eigenvalue-minimisations  :     0
 total energy-change (2. order) :-0.7422649E-01  (-0.6047562E-01)
 number of electron     243.0000026 magnetization       1.0001379
 augmentation part       14.5030515 magnetization       0.7641929

 DIPCOR: dipole corrections for dipol
 direction  3 min pos     1,
 dipolmoment           0.000009      0.000001      0.021610 electrons x Angstroem
 Tr[quadrupol]     -6543.200940

 energy correction for charged system         0.000000 eV
 dipol+quadrupol energy correction            0.000013 eV
 added-field ion interaction          0.000000 eV  (added to PSCEN)


 Free energy of the ion-electron system (eV)
  ---------------------------------------------------
  alpha Z        PSCENC =        98.33028515
  Ewald energy   TEWEN  =     37521.71960540
  -Hartree energ DENC   =    -45932.99752008
  -exchange      EXHF   =       545.46647990
  -V(xc)+E(xc)   XCENC  =       612.90574138
  PAW double counting   =     26452.87038244   -26539.55858178
  entropy T*S    EENTRO =        -0.00004016
  eigenvalues    EBANDS =     -3135.12217457
  atomic energy  EATOM  =      9771.40124162
  ---------------------------------------------------
  free energy    TOTEN  =      -604.98471320 eV

  energy without entropy =     -604.98467304  energy(sigma->0) =     -604.98469312
  exchange ACFDT corr.  =        -0.00010341  see jH, gK, PRB 81, 115126


--------------------------------------------------------------------------------------------------------




--------------------------------------- Iteration      1(   8)  ---------------------------------------


    POTLOK:  cpu time    1.2585: real time    1.2588
    SETDIJ:  cpu time    2.0812: real time    2.0814
    TRIAL :  cpu time  510.1925: real time  510.3120
    CORREC:  cpu time    0.0018: real time    0.0021
    CHARGE:  cpu time    1.5933: real time    1.5935
    --------------------------------------------
      LOOP:  cpu time  515.1300: real time  515.2504

 eigenvalue-minimisations  :     0
 total energy-change (2. order) :-0.5248936E-01  (-0.4288161E-01)
 number of electron     243.0000026 magnetization       1.0000293
 augmentation part       14.5045267 magnetization       0.7559123

 DIPCOR: dipole corrections for dipol
 direction  3 min pos     1,
 dipolmoment           0.000009      0.000001      0.021633 electrons x Angstroem
 Tr[quadrupol]     -6543.229938

 energy correction for charged system         0.000000 eV
 dipol+quadrupol energy correction            0.000013 eV
 added-field ion interaction          0.000000 eV  (added to PSCEN)


 Free energy of the ion-electron system (eV)
  ---------------------------------------------------
  alpha Z        PSCENC =        98.33028518
  Ewald energy   TEWEN  =     37521.71960540
  -Hartree energ DENC   =    -45935.02121673
  -exchange      EXHF   =       545.66231508
  -V(xc)+E(xc)   XCENC  =       612.99760796
  PAW double counting   =     26474.53973299   -26561.28632623
  entropy T*S    EENTRO =        -0.00001020
  eigenvalues    EBANDS =     -3133.38040767
  atomic energy  EATOM  =      9771.40124162
  ---------------------------------------------------
  free energy    TOTEN  =      -605.03720255 eV

  energy without entropy =     -605.03719235  energy(sigma->0) =     -605.03719745
  exchange ACFDT corr.  =        -0.00001813  see jH, gK, PRB 81, 115126


--------------------------------------------------------------------------------------------------------




--------------------------------------- Iteration      1(   9)  ---------------------------------------


    POTLOK:  cpu time    1.2540: real time    1.2543
    SETDIJ:  cpu time    2.0807: real time    2.0809
    TRIAL :  cpu time  510.6304: real time  510.7517
    CORREC:  cpu time    0.0017: real time    0.0020
    CHARGE:  cpu time    1.6067: real time    1.6070
    --------------------------------------------
      LOOP:  cpu time  515.5756: real time  515.6981

 eigenvalue-minimisations  :     0
 total energy-change (2. order) :-0.3784238E-01  (-0.3102402E-01)
 number of electron     243.0000026 magnetization       1.0000065
 augmentation part       14.5061390 magnetization       0.7485103

 DIPCOR: dipole corrections for dipol
 direction  3 min pos     1,
 dipolmoment           0.000009      0.000001      0.021686 electrons x Angstroem
 Tr[quadrupol]     -6543.242048

 energy correction for charged system         0.000000 eV
 dipol+quadrupol energy correction            0.000013 eV
 added-field ion interaction          0.000000 eV  (added to PSCEN)


 Free energy of the ion-electron system (eV)
  ---------------------------------------------------
  alpha Z        PSCENC =        98.33028524
  Ewald energy   TEWEN  =     37521.71960540
  -Hartree energ DENC   =    -45935.86594451
  -exchange      EXHF   =       545.79482309
  -V(xc)+E(xc)   XCENC  =       613.05432341
  PAW double counting   =     26484.93922947   -26571.72678143
  entropy T*S    EENTRO =        -0.00000309
  eigenvalues    EBANDS =     -3132.72181702
  atomic energy  EATOM  =      9771.40124162
  ---------------------------------------------------
  free energy    TOTEN  =      -605.07504493 eV

  energy without entropy =     -605.07504185  energy(sigma->0) =     -605.07504339
  exchange ACFDT corr.  =        -0.00000366  see jH, gK, PRB 81, 115126


--------------------------------------------------------------------------------------------------------




--------------------------------------- Iteration      1(  10)  ---------------------------------------


    POTLOK:  cpu time    1.2488: real time    1.2489
    SETDIJ:  cpu time    2.0777: real time    2.0779
    TRIAL :  cpu time  510.1206: real time  510.2480
    CORREC:  cpu time    0.0015: real time    0.0018
    CHARGE:  cpu time    1.5961: real time    1.5964
    --------------------------------------------
      LOOP:  cpu time  515.0470: real time  515.1754

 eigenvalue-minimisations  :     0
 total energy-change (2. order) :-0.2776633E-01  (-0.2290292E-01)
 number of electron     243.0000026 magnetization       1.0000012
 augmentation part       14.5077653 magnetization       0.7418802

 DIPCOR: dipole corrections for dipol
 direction  3 min pos     1,
 dipolmoment           0.000009      0.000001      0.021654 electrons x Angstroem
 Tr[quadrupol]     -6543.244767

 energy correction for charged system         0.000000 eV
 dipol+quadrupol energy correction            0.000013 eV
 added-field ion interaction          0.000000 eV  (added to PSCEN)


 Free energy of the ion-electron system (eV)
  ---------------------------------------------------
  alpha Z        PSCENC =        98.33028520
  Ewald energy   TEWEN  =     37521.71960540
  -Hartree energ DENC   =    -45936.07069694
  -exchange      EXHF   =       545.88517304
  -V(xc)+E(xc)   XCENC  =       613.08868781
  PAW double counting   =     26489.42750675   -26576.26827016
  entropy T*S    EENTRO =        -0.00000115
  eigenvalues    EBANDS =     -3132.61634092
  atomic energy  EATOM  =      9771.40124162
  ---------------------------------------------------
  free energy    TOTEN  =      -605.10281127 eV

  energy without entropy =     -605.10281012  energy(sigma->0) =     -605.10281069
  exchange ACFDT corr.  =        -0.00000092  see jH, gK, PRB 81, 115126


--------------------------------------------------------------------------------------------------------




--------------------------------------- Iteration      1(  11)  ---------------------------------------


    POTLOK:  cpu time    1.2469: real time    1.2472
    SETDIJ:  cpu time    2.0780: real time    2.0783
    TRIAL :  cpu time  510.3498: real time  510.4609
    CORREC:  cpu time    0.0017: real time    0.0019
    CHARGE:  cpu time    1.5952: real time    1.5955
    --------------------------------------------
      LOOP:  cpu time  515.2742: real time  515.3865

 eigenvalue-minimisations  :     0
 total energy-change (2. order) :-0.2072727E-01  (-0.1719923E-01)
 number of electron     243.0000026 magnetization       0.9999998
 augmentation part       14.5090366 magnetization       0.7358419

 DIPCOR: dipole corrections for dipol
 direction  3 min pos     1,
 dipolmoment           0.000009      0.000001      0.021545 electrons x Angstroem
 Tr[quadrupol]     -6543.244038

 energy correction for charged system         0.000000 eV
 dipol+quadrupol energy correction            0.000013 eV
 added-field ion interaction          0.000000 eV  (added to PSCEN)


 Free energy of the ion-electron system (eV)
  ---------------------------------------------------
  alpha Z        PSCENC =        98.33028507
  Ewald energy   TEWEN  =     37521.71960540
  -Hartree energ DENC   =    -45936.03895894
  -exchange      EXHF   =       545.95116650
  -V(xc)+E(xc)   XCENC  =       613.11170168
  PAW double counting   =     26491.21058143   -26578.10999275
  entropy T*S    EENTRO =        -0.00000052
  eigenvalues    EBANDS =     -3132.69916739
  atomic energy  EATOM  =      9771.40124162
  ---------------------------------------------------
  free energy    TOTEN  =      -605.12353854 eV

  energy without entropy =     -605.12353802  energy(sigma->0) =     -605.12353828
  exchange ACFDT corr.  =        -0.00000030  see jH, gK, PRB 81, 115126


--------------------------------------------------------------------------------------------------------




--------------------------------------- Iteration      1(  12)  ---------------------------------------


    POTLOK:  cpu time    1.2434: real time    1.2437
    SETDIJ:  cpu time    2.0818: real time    2.0820
    TRIAL :  cpu time  510.9652: real time  511.0924
    CORREC:  cpu time    0.0016: real time    0.0019
    CHARGE:  cpu time    1.6031: real time    1.6034
    --------------------------------------------
      LOOP:  cpu time  515.8973: real time  516.0255

 eigenvalue-minimisations  :     0
 total energy-change (2. order) :-0.1570296E-01  (-0.1309852E-01)
 number of electron     243.0000026 magnetization       0.9999994
 augmentation part       14.5098885 magnetization       0.7302676

 DIPCOR: dipole corrections for dipol
 direction  3 min pos     1,
 dipolmoment           0.000009      0.000001      0.021416 electrons x Angstroem
 Tr[quadrupol]     -6543.242720

 energy correction for charged system         0.000000 eV
 dipol+quadrupol energy correction            0.000013 eV
 added-field ion interaction          0.000000 eV  (added to PSCEN)


 Free energy of the ion-electron system (eV)
  ---------------------------------------------------
  alpha Z        PSCENC =        98.33028491
  Ewald energy   TEWEN  =     37521.71960540
  -Hartree energ DENC   =    -45935.95635337
  -exchange      EXHF   =       546.00364761
  -V(xc)+E(xc)   XCENC  =       613.12946058
  PAW double counting   =     26492.09081256   -26579.03961971
  entropy T*S    EENTRO =        -0.00000027
  eigenvalues    EBANDS =     -3132.81832057
  atomic energy  EATOM  =      9771.40124162
  ---------------------------------------------------
  free energy    TOTEN  =      -605.13924149 eV

  energy without entropy =     -605.13924122  energy(sigma->0) =     -605.13924136
  exchange ACFDT corr.  =        -0.00000012  see jH, gK, PRB 81, 115126


--------------------------------------------------------------------------------------------------------




--------------------------------------- Iteration      1(  13)  ---------------------------------------


    POTLOK:  cpu time    1.2412: real time    1.2416
    SETDIJ:  cpu time    2.0815: real time    2.0818
    TRIAL :  cpu time  512.2097: real time  512.3302
    CORREC:  cpu time    0.0016: real time    0.0018
    CHARGE:  cpu time    1.5988: real time    1.5991
    --------------------------------------------
      LOOP:  cpu time  517.1350: real time  517.2567

 eigenvalue-minimisations  :     0
 total energy-change (2. order) :-0.1204756E-01  (-0.1009869E-01)
 number of electron     243.0000026 magnetization       0.9999992
 augmentation part       14.5104960 magnetization       0.7250920

 DIPCOR: dipole corrections for dipol
 direction  3 min pos     1,
 dipolmoment           0.000009      0.000001      0.021305 electrons x Angstroem
 Tr[quadrupol]     -6543.241662

 energy correction for charged system         0.000000 eV
 dipol+quadrupol energy correction            0.000013 eV
 added-field ion interaction          0.000000 eV  (added to PSCEN)


 Free energy of the ion-electron system (eV)
  ---------------------------------------------------
  alpha Z        PSCENC =        98.33028477
  Ewald energy   TEWEN  =     37521.71960540
  -Hartree energ DENC   =    -45935.87918653
  -exchange      EXHF   =       546.04783009
  -V(xc)+E(xc)   XCENC  =       613.14451913
  PAW double counting   =     26493.06883116   -26580.05323297
  entropy T*S    EENTRO =        -0.00000016
  eigenvalues    EBANDS =     -3132.93118144
  atomic energy  EATOM  =      9771.40124162
  ---------------------------------------------------
  free energy    TOTEN  =      -605.15128905 eV

  energy without entropy =     -605.15128889  energy(sigma->0) =     -605.15128897
  exchange ACFDT corr.  =        -0.00000006  see jH, gK, PRB 81, 115126


--------------------------------------------------------------------------------------------------------




--------------------------------------- Iteration      1(  14)  ---------------------------------------


    POTLOK:  cpu time    1.2358: real time    1.2360
    SETDIJ:  cpu time    2.0736: real time    2.0739
    TRIAL :  cpu time  511.5239: real time  511.6402
    CORREC:  cpu time    0.0015: real time    0.0018
    CHARGE:  cpu time    1.6072: real time    1.6075
    --------------------------------------------
      LOOP:  cpu time  516.4442: real time  516.5616

 eigenvalue-minimisations  :     0
 total energy-change (2. order) :-0.9347132E-02  (-0.7869030E-02)
 number of electron     243.0000026 magnetization       0.9999992
 augmentation part       14.5110298 magnetization       0.7202885

 DIPCOR: dipole corrections for dipol
 direction  3 min pos     1,
 dipolmoment           0.000009      0.000001      0.021217 electrons x Angstroem
 Tr[quadrupol]     -6543.241049

 energy correction for charged system         0.000000 eV
 dipol+quadrupol energy correction            0.000013 eV
 added-field ion interaction          0.000000 eV  (added to PSCEN)


 Free energy of the ion-electron system (eV)
  ---------------------------------------------------
  alpha Z        PSCENC =        98.33028467
  Ewald energy   TEWEN  =     37521.71960540
  -Hartree energ DENC   =    -45935.82304220
  -exchange      EXHF   =       546.08592696
  -V(xc)+E(xc)   XCENC  =       613.15782248
  PAW double counting   =     26494.46520267   -26581.47582795
  entropy T*S    EENTRO =        -0.00000011
  eigenvalues    EBANDS =     -3133.02184966
  atomic energy  EATOM  =      9771.40124162
  ---------------------------------------------------
  free energy    TOTEN  =      -605.16063619 eV

  energy without entropy =     -605.16063608  energy(sigma->0) =     -605.16063613
  exchange ACFDT corr.  =        -0.00000003  see jH, gK, PRB 81, 115126


--------------------------------------------------------------------------------------------------------




--------------------------------------- Iteration      1(  15)  ---------------------------------------


    POTLOK:  cpu time    1.2325: real time    1.2327
    SETDIJ:  cpu time    2.0783: real time    2.0785
    TRIAL :  cpu time  511.1688: real time  511.2918
    CORREC:  cpu time    0.0015: real time    0.0018
    CHARGE:  cpu time    1.5949: real time    1.5952
    --------------------------------------------
      LOOP:  cpu time  516.0783: real time  516.2022

 eigenvalue-minimisations  :     0
 total energy-change (2. order) :-0.7323747E-02  (-0.6194578E-02)
 number of electron     243.0000026 magnetization       0.9999992
 augmentation part       14.5115399 magnetization       0.7158361

 DIPCOR: dipole corrections for dipol
 direction  3 min pos     1,
 dipolmoment           0.000009      0.000001      0.021138 electrons x Angstroem
 Tr[quadrupol]     -6543.240795

 energy correction for charged system         0.000000 eV
 dipol+quadrupol energy correction            0.000013 eV
 added-field ion interaction          0.000000 eV  (added to PSCEN)


 Free energy of the ion-electron system (eV)
  ---------------------------------------------------
  alpha Z        PSCENC =        98.33028457
  Ewald energy   TEWEN  =     37521.71960540
  -Hartree energ DENC   =    -45935.78847330
  -exchange      EXHF   =       546.11898624
  -V(xc)+E(xc)   XCENC  =       613.16972348
  PAW double counting   =     26496.23615557   -26583.26939730
  entropy T*S    EENTRO =        -0.00000008
  eigenvalues    EBANDS =     -3133.08608611
  atomic energy  EATOM  =      9771.40124162
  ---------------------------------------------------
  free energy    TOTEN  =      -605.16795993 eV

  energy without entropy =     -605.16795986  energy(sigma->0) =     -605.16795989
  exchange ACFDT corr.  =        -0.00000002  see jH, gK, PRB 81, 115126


--------------------------------------------------------------------------------------------------------




--------------------------------------- Iteration      1(  16)  ---------------------------------------


    POTLOK:  cpu time    1.2353: real time    1.2357
    SETDIJ:  cpu time    2.0773: real time    2.0775
    TRIAL :  cpu time  511.5645: real time  511.6973
    CORREC:  cpu time    0.0015: real time    0.0018
    CHARGE:  cpu time    1.5967: real time    1.5970
    --------------------------------------------
      LOOP:  cpu time  516.4776: real time  516.6115

 eigenvalue-minimisations  :     0
 total energy-change (2. order) :-0.5793145E-02  (-0.4924794E-02)
 number of electron     243.0000026 magnetization       0.9999992
 augmentation part       14.5119890 magnetization       0.7117144

 DIPCOR: dipole corrections for dipol
 direction  3 min pos     1,
 dipolmoment           0.000009      0.000001      0.021062 electrons x Angstroem
 Tr[quadrupol]     -6543.240701

 energy correction for charged system         0.000000 eV
 dipol+quadrupol energy correction            0.000013 eV
 added-field ion interaction          0.000000 eV  (added to PSCEN)


 Free energy of the ion-electron system (eV)
  ---------------------------------------------------
  alpha Z        PSCENC =        98.33028448
  Ewald energy   TEWEN  =     37521.71960540
  -Hartree energ DENC   =    -45935.76739318
  -exchange      EXHF   =       546.14768447
  -V(xc)+E(xc)   XCENC  =       613.18034568
  PAW double counting   =     26498.18698775   -26585.24180449
  entropy T*S    EENTRO =        -0.00000006
  eigenvalues    EBANDS =     -3133.13070473
  atomic energy  EATOM  =      9771.40124162
  ---------------------------------------------------
  free energy    TOTEN  =      -605.17375308 eV

  energy without entropy =     -605.17375302  energy(sigma->0) =     -605.17375305
  exchange ACFDT corr.  =        -0.00000001  see jH, gK, PRB 81, 115126


--------------------------------------------------------------------------------------------------------




--------------------------------------- Iteration      1(  17)  ---------------------------------------


    POTLOK:  cpu time    1.2307: real time    1.2309
    SETDIJ:  cpu time    2.0756: real time    2.0759
    TRIAL :  cpu time  511.3340: real time  511.4495
    CORREC:  cpu time    0.0014: real time    0.0017
    CHARGE:  cpu time    1.5966: real time    1.5970
    --------------------------------------------
      LOOP:  cpu time  516.2403: real time  516.3571

 eigenvalue-minimisations  :     0
 total energy-change (2. order) :-0.4624891E-02  (-0.3952434E-02)
 number of electron     243.0000026 magnetization       0.9999991
 augmentation part       14.5123347 magnetization       0.7079017

 DIPCOR: dipole corrections for dipol
 direction  3 min pos     1,
 dipolmoment           0.000009      0.000001      0.020987 electrons x Angstroem
 Tr[quadrupol]     -6543.240573

 energy correction for charged system         0.000000 eV
 dipol+quadrupol energy correction            0.000013 eV
 added-field ion interaction          0.000000 eV  (added to PSCEN)


 Free energy of the ion-electron system (eV)
  ---------------------------------------------------
  alpha Z        PSCENC =        98.33028439
  Ewald energy   TEWEN  =     37521.71960540
  -Hartree energ DENC   =    -45935.74839434
  -exchange      EXHF   =       546.17256152
  -V(xc)+E(xc)   XCENC  =       613.18972575
  PAW double counting   =     26500.11168767   -26587.18651214
  entropy T*S    EENTRO =        -0.00000005
  eigenvalues    EBANDS =     -3133.16857777
  atomic energy  EATOM  =      9771.40124162
  ---------------------------------------------------
  free energy    TOTEN  =      -605.17837797 eV

  energy without entropy =     -605.17837792  energy(sigma->0) =     -605.17837795
  exchange ACFDT corr.  =        -0.00000001  see jH, gK, PRB 81, 115126


--------------------------------------------------------------------------------------------------------




--------------------------------------- Iteration      1(  18)  ---------------------------------------


    POTLOK:  cpu time    1.2290: real time    1.2291
    SETDIJ:  cpu time    2.0782: real time    2.0785
    TRIAL :  cpu time  510.7801: real time  510.8948
    CORREC:  cpu time    0.0011: real time    0.0014
    CHARGE:  cpu time    1.5952: real time    1.5956
    --------------------------------------------
      LOOP:  cpu time  515.6859: real time  515.8017

 eigenvalue-minimisations  :     0
 total energy-change (2. order) :-0.3725589E-02  (-0.3202738E-02)
 number of electron     243.0000026 magnetization       0.9999991
 augmentation part       14.5125767 magnetization       0.7043771

 DIPCOR: dipole corrections for dipol
 direction  3 min pos     1,
 dipolmoment           0.000009      0.000001      0.020920 electrons x Angstroem
 Tr[quadrupol]     -6543.240307

 energy correction for charged system         0.000000 eV
 dipol+quadrupol energy correction            0.000013 eV
 added-field ion interaction          0.000000 eV  (added to PSCEN)


 Free energy of the ion-electron system (eV)
  ---------------------------------------------------
  alpha Z        PSCENC =        98.33028431
  Ewald energy   TEWEN  =     37521.71960540
  -Hartree energ DENC   =    -45935.72367425
  -exchange      EXHF   =       546.19409375
  -V(xc)+E(xc)   XCENC  =       613.19791797
  PAW double counting   =     26501.85866712   -26588.95081146
  entropy T*S    EENTRO =        -0.00000004
[...]
  augment   168.19318   162.67446   169.05740     3.04898     0.11036     0.50357
  Kinetic  3550.95817  3531.73503  3980.69562     4.65618     0.06657     0.24787
  Fock     -332.10569  -327.44372  -309.65590    -2.02264    -0.09853    -0.37576
  -------------------------------------------------------------------------------------
  Total     -43.57572   -41.74177    -0.35625     0.29074     0.02680    -0.00740
  in kB     -21.97618   -21.05128    -0.17966     0.14663     0.01352    -0.00373
  external pressure =      -14.40 kB  Pullay stress =        0.00 kB


 VOLUME and BASIS-vectors are now :
 -----------------------------------------------------------------------------
  energy-cutoff  :      500.00
  volume of cell :     3176.90
      direct lattice vectors                 reciprocal lattice vectors
    13.076840833 -0.010220252  0.000290159     0.076471078  0.000009938 -0.000031517
    -0.001602226 12.329413824  0.000292472     0.000063389  0.081106865 -0.000002660
     0.008120902  0.000639769 19.704156516    -0.000001127 -0.000001204  0.050750714

  length of vectors
    13.076844830 12.329413932 19.704158200     0.076471085  0.081106890  0.050750714


 FORCES acting on ions:
    Electron-Ion                     Ewald-Force                    Non-Local-Force
 -----------------------------------------------------------------------------------------------
   -.114E+01 0.224E+01 -.185E+00   0.174E+01 -.238E+01 0.194E+00   -.494E+00 0.127E+00 -.112E-01
   -.145E+01 0.490E+01 -.147E+00   0.160E+01 -.501E+01 0.146E+00   -.164E+00 0.518E-01 0.507E-02
   -.140E+02 0.167E+01 -.208E+00   0.142E+02 -.176E+01 0.207E+00   -.263E+00 0.761E-01 0.168E-02
   -.595E+01 0.344E+01 0.198E+00   0.643E+01 -.302E+01 -.230E+00   -.513E+00 -.429E+00 0.316E-01
   -.532E+01 0.179E+02 -.678E+00   0.603E+01 -.175E+02 0.731E+00   -.618E+00 -.417E+00 -.558E-01
   0.257E+01 0.144E+02 -.109E+01   -.224E+01 -.146E+02 0.108E+01   -.151E+00 0.278E+00 0.720E-03
   -.814E+01 0.862E+01 -.329E+00   0.873E+01 -.868E+01 0.327E+00   -.546E+00 0.134E+00 0.114E-01
   0.184E+02 0.111E+02 -.372E+01   -.176E+02 -.126E+02 0.377E+01   -.638E+00 0.867E+00 -.529E-01
   -.245E-01 -.119E+01 -.102E+01   -.347E-01 0.147E+01 0.100E+01   -.306E-01 -.194E+00 0.150E-01
   0.893E+01 0.111E+01 -.168E+01   -.897E+01 -.119E+01 0.169E+01   -.157E-01 -.580E-01 0.347E-02
   0.495E+02 -.998E+01 -.497E+00   -.507E+02 0.105E+02 0.381E+00   0.230E+01 -.310E+00 0.791E-01
   0.803E+01 -.168E+02 -.459E+00   -.725E+01 0.188E+02 0.490E+00   -.615E+00 -.135E+01 -.301E-01
   0.966E+00 -.148E+02 -.896E+00   -.717E+00 0.149E+02 0.901E+00   -.127E+00 -.233E+00 -.654E-02
   0.725E+01 -.422E+01 -.440E+00   -.701E+01 0.446E+01 0.441E+00   -.319E+00 -.165E+00 0.813E-02
   -.132E+02 -.142E+02 -.154E+00   0.139E+02 0.134E+02 0.157E+00   -.831E+00 0.868E+00 0.231E-03
   -.255E+01 -.363E+01 -.695E+00   0.268E+01 0.358E+01 0.697E+00   -.157E+00 0.127E+00 -.419E-02
   -.962E+01 -.655E+01 -.655E+00   0.105E+02 0.652E+01 0.659E+00   -.751E+00 -.105E-01 -.757E-02
   -.924E+01 0.501E+01 -.359E-01   0.975E+01 -.578E+01 0.466E-01   -.534E+00 0.755E+00 -.784E-02
   0.105E+02 0.437E+01 -.953E+00   -.109E+02 -.456E+01 0.943E+00   0.428E+00 0.207E+00 0.765E-02
   0.119E+02 0.440E+01 -.577E+00   -.114E+02 -.370E+01 0.470E+00   -.448E+00 -.516E+00 0.883E-01
   0.932E+01 0.462E+01 -.927E+00   -.991E+01 -.489E+01 0.936E+00   0.623E+00 0.190E+00 -.691E-02
   -.232E-02 0.756E+01 -.132E+01   -.151E+00 -.774E+01 0.135E+01   0.253E+00 0.762E-01 -.252E-01
   -.392E+01 0.154E+02 -.264E+01   0.212E+01 -.160E+02 0.276E+01   0.141E+01 0.591E+00 -.112E+00
   -.204E+02 0.350E+02 -.266E+01   0.217E+02 -.379E+02 0.269E+01   -.128E+01 0.320E+01 -.475E-01
   0.580E+01 -.316E+02 0.474E+00   -.498E+01 0.365E+02 -.496E+00   -.811E+00 -.455E+01 0.259E-01
   0.505E+01 -.669E+01 0.408E+00   -.608E+01 0.525E+01 -.390E+00   0.910E+00 0.915E+00 -.160E-01
   0.202E+01 0.105E+01 0.581E+00   -.349E+01 -.143E+01 -.581E+00   0.999E+00 0.566E+00 0.167E-01
   0.116E+02 0.606E+01 0.208E-01   -.110E+02 -.704E+01 -.164E-01   -.495E+00 0.947E+00 0.664E-02
   0.209E+01 -.131E+01 -.622E+00   -.246E+01 0.839E+00 0.615E+00   0.474E+00 0.448E+00 -.267E-02
   0.253E+01 0.103E+01 -.690E+00   -.240E+01 -.111E+01 0.690E+00   -.329E-01 0.919E-01 -.694E-03
   0.368E+01 0.450E+01 -.664E+00   -.393E+01 -.478E+01 0.657E+00   0.150E+00 0.234E+00 0.128E-01
   -.499E+01 0.181E+01 -.733E+00   0.487E+01 -.197E+01 0.733E+00   0.308E-01 0.112E+00 0.815E-03
   -.822E+01 0.152E+01 -.422E+00   0.838E+01 -.169E+01 0.425E+00   -.124E+00 0.113E+00 -.399E-02
   -.713E+00 0.732E+01 -.589E+00   0.642E+00 -.750E+01 0.588E+00   -.909E-02 0.208E+00 0.330E-02
   -.687E+01 0.934E+01 -.231E+01   0.739E+01 -.963E+01 0.234E+01   -.437E+00 0.286E+00 -.225E-01
   -.261E+01 0.440E+01 -.110E+01   0.268E+01 -.474E+01 0.111E+01   0.177E-02 0.383E+00 -.252E-02
   -.145E+01 0.303E+01 -.963E+00   0.132E+01 -.307E+01 0.963E+00   -.482E-01 0.871E-01 -.285E-02
   -.363E+00 0.223E+01 -.115E+01   0.705E+00 -.222E+01 0.115E+01   -.259E+00 -.877E-01 0.187E-02
   0.557E+00 -.973E+01 -.993E+00   -.978E+00 0.103E+02 0.100E+01   0.381E+00 -.499E+00 -.133E-01
   -.550E+01 -.326E+01 -.123E+01   0.554E+01 0.356E+01 0.122E+01   -.108E+00 -.301E+00 0.139E-01
   0.656E+01 -.190E+01 -.141E+01   -.643E+01 0.212E+01 0.141E+01   -.717E-02 -.189E+00 -.833E-02
   0.122E+01 -.486E+01 -.135E+01   -.129E+01 0.511E+01 0.136E+01   0.178E+00 -.133E+00 -.559E-02
   0.213E+01 -.575E+01 0.282E-01   -.276E+01 0.575E+01 -.384E-01   0.720E+00 -.621E-01 0.133E-01
   0.272E+01 -.611E+00 -.742E+00   -.301E+01 0.986E+00 0.741E+00   0.178E+00 -.301E+00 0.299E-02
   -.303E-01 -.265E+01 -.127E+01   -.380E-01 0.262E+01 0.128E+01   -.538E-01 -.852E-01 -.467E-02
   0.383E+00 -.617E+01 -.115E+01   -.583E+00 0.621E+01 0.115E+01   0.605E-01 -.508E-01 -.255E-02
   0.506E+01 0.104E+01 -.840E+00   -.545E+01 -.996E+00 0.835E+00   0.279E+00 0.919E-01 -.140E-02
   0.149E+01 -.181E+01 -.738E+00   -.154E+01 0.160E+01 0.736E+00   0.188E+00 0.791E-01 -.755E-03
   -.726E+01 0.517E+00 -.940E+00   0.742E+01 -.519E+00 0.938E+00   -.121E+00 0.441E-01 -.846E-03
   -.147E+02 0.405E+02 -.518E+01   0.197E+02 -.403E+02 0.519E+01   -.600E+01 -.109E+00 -.644E-01
   -.381E+02 -.360E+02 0.508E+00   0.462E+02 0.355E+02 -.590E+00   -.846E+01 0.217E+00 0.926E-01
   0.301E+02 0.146E+02 -.217E+01   -.333E+02 -.991E+01 0.209E+01   0.349E+01 -.539E+01 0.451E-01
   0.316E+02 0.115E+02 0.212E+00   -.408E+02 -.110E+02 -.185E+00   0.955E+01 -.373E+00 -.236E-01
   0.334E+02 0.105E+02 -.394E+00   -.366E+02 -.163E+02 0.477E+00   0.373E+01 0.603E+01 -.722E-01
   0.366E+02 -.383E+02 0.116E+01   -.573E+02 0.400E+02 -.137E+01   0.198E+02 -.186E+01 0.178E+00
   -.838E+02 -.247E+02 0.380E+01   0.104E+03 0.245E+02 -.390E+01   -.199E+02 -.177E+00 0.113E+00
   -.210E+02 0.211E+02 0.483E+02   0.187E+02 -.217E+02 -.470E+02   0.320E+01 0.180E+01 -.118E+01
   -.243E+02 -.382E+02 -.520E+01   0.242E+02 0.388E+02 0.506E+01   -.408E+00 -.717E+00 0.112E+00
 -----------------------------------------------------------------------------------------------
   -.323E+01 -.133E+01 0.851E+00   0.490E-12 0.135E-12 -.142E-13   0.357E+01 0.163E+01 -.904E+00
 
 
 POSITION                                       TOTAL-FORCE (eV/Angst)
 -----------------------------------------------------------------------------------
      2.95057      0.00161      9.84850         0.093201     -0.002133     -0.002914
      0.74413      1.22755      9.85075        -0.018746     -0.054221      0.004332
      1.48271      0.00149      9.85046        -0.121418     -0.011955      0.001501
      3.66855      1.25583      9.84567        -0.063570     -0.035483      0.001409
      2.91188      2.49690      9.84748         0.068262     -0.015482     -0.005480
      0.68013      3.67769      9.85325         0.170042      0.098273     -0.001437
      1.45639      2.46855      9.85013         0.009974      0.078140      0.010282
      2.74901      4.91698      9.85181         0.113367     -0.531761     -0.005870
      0.63623      6.16457      9.85360        -0.099516      0.082440      0.002498
      1.34126      4.92372      9.85366        -0.041899     -0.146028      0.010700
      3.43787      6.16411      9.84145         1.310474      0.150753     -0.034244
      2.74488      7.41241      9.84747         0.146351      0.539240     -0.001139
      0.67337      8.65033      9.85354         0.117073     -0.143173     -0.001981
      1.33933      7.40607      9.85119        -0.089963      0.066746      0.009524
      2.89843      9.83579      9.84923        -0.145337      0.056662      0.003214
      0.73789     11.10565      9.85300        -0.027967      0.074142     -0.002075
      1.44626      9.86408      9.85228         0.097188     -0.045341     -0.004674
      3.66295     11.07592      9.84865        -0.060583      0.031066      0.002510
      7.28980      0.00028      9.85146        -0.011801      0.036586     -0.002320
      5.13428      1.27317      9.84548         0.016399      0.162411     -0.015331
      5.84192      0.00480      9.84962         0.068700     -0.067042      0.001803
      8.03151      1.22484      9.85233         0.105557     -0.092252      0.000879
      7.31438      2.45810      9.84999        -0.330861     -0.014648     -0.001257
      8.05792      3.71573      9.84902        -0.150939      0.505898     -0.019417
      8.00876      6.12218      9.84256        -0.034061      0.148465      0.004620
      8.05257      8.60082      9.84727        -0.078357     -0.480188      0.001052
      7.31802      9.86953      9.84782        -0.428016      0.225228      0.017820
      5.12971     11.06412      9.84849         0.094473      0.015244      0.011455
      8.02989     11.10278      9.85159         0.122871     -0.009454     -0.009851
     11.64637     -0.00851      9.85398         0.103481      0.010500     -0.000899
      9.47020      1.21481      9.85304        -0.094706     -0.029893      0.006045
     10.20065     -0.00756      9.85374        -0.095400     -0.038059      0.001008
     12.37250      1.21674      9.85292         0.024589     -0.062790     -0.000515
     11.62449      2.43897      9.85371        -0.076573      0.046160      0.002129
      9.48365      3.68432      9.85485         0.063819      0.022082     -0.001382
     10.19288      2.44323      9.85427         0.066816      0.054598      0.005111
     12.32670      3.67359      9.85453        -0.177414      0.040569     -0.002311
     11.61108      4.91040      9.85518         0.067877     -0.074719      0.001780
      9.45542      6.14268      9.85101        -0.020631     -0.000479     -0.005174
     10.18551      4.91712      9.85384        -0.084280     -0.022653      0.000785
     12.30445      6.15471      9.85586         0.133131      0.017955     -0.005810
     11.59979      7.39459      9.85574         0.114804      0.108777     -0.002660
      9.47663      8.62587      9.85045         0.122268     -0.070771      0.003895
     10.17284      7.38581      9.85270        -0.100809      0.065128      0.002217
     12.31984      8.63345      9.85583        -0.125695     -0.118667     -0.003590
     11.62177      9.87062      9.85557        -0.135043     -0.017427     -0.003692
      9.46865     11.09885      9.85361        -0.093999      0.142709     -0.006121
     10.19053      9.86659      9.85364         0.151151     -0.129341     -0.003164
     12.36859     11.09514      9.85492         0.022033      0.048608     -0.002491
      3.56361      3.76867      9.84811        -1.281900      0.010872     -0.065921
      3.54943      8.56806      9.84627        -0.789920     -0.269573      0.015770
      5.89330      2.50024      9.84096         0.478661     -1.009207     -0.034504
      7.31453      7.38149      9.84482         0.819477      0.192274      0.001543
      5.89216      9.84765      9.84928         0.796337      0.499961      0.007981
      7.34646      4.88094      9.83532         0.824563     -0.322814     -0.020496
      4.76163      6.15024      9.82778        -1.145339     -0.400838      0.022716
      5.38389      4.33936      9.77800         0.201933      0.478882      0.152218
      5.42859      7.94890      9.85085        -0.600131      0.206025     -0.040078
 -----------------------------------------------------------------------------------
    total drift:                               -0.002577     -0.010798      0.000095


--------------------------------------------------------------------------------------------------------



  FREE ENERGIE OF THE ION-ELECTRON SYSTEM (eV)
  ---------------------------------------------------
  free  energy   TOTEN  =      -605.20491925 eV

  energy  without entropy=     -605.20491923  energy(sigma->0) =     -605.20491924
 


--------------------------------------------------------------------------------------------------------


    POTLOK:  cpu time    3.2925: real time    3.2931


--------------------------------------------------------------------------------------------------------


 stress matrix after NEB project (eV)
    -43.57572      0.29330     -0.00740
      0.29074    -41.74177      0.02684
     -0.00495      0.02680     -0.35625
  FORCES: max atom, RMS     1.319561    0.454392
  FORCE total and by dimension    3.460549    1.310474
  Stress total and by dimension   60.344994   43.575723
 writing wavefunctions
     LOOP+:  cpu time30547.9736: real time30566.8211
    4ORBIT:  cpu time    0.0000: real time    0.0000
 


 total charge     
 
# of ion       s       p       d       tot
------------------------------------------
    1        0.856   1.721   0.000   2.576
    2        0.862   1.752   0.000   2.614
    3        0.860   1.735   0.000   2.595
    4        0.858   1.708   0.000   2.566
    5        0.857   1.729   0.000   2.586
    6        0.868   1.776   0.000   2.644
    7        0.862   1.738   0.000   2.600
    8        0.887   1.800   0.000   2.687
    9        0.870   1.787   0.000   2.657
   10        0.876   1.791   0.000   2.668
   11        0.897   1.754   0.000   2.651
   12        0.884   1.803   0.000   2.687
   13        0.867   1.774   0.000   2.641
   14        0.876   1.795   0.000   2.671
   15        0.858   1.731   0.000   2.590
   16        0.863   1.753   0.000   2.616
   17        0.863   1.739   0.000   2.602
   18        0.858   1.704   0.000   2.563
   19        0.862   1.749   0.000   2.611
   20        0.854   1.711   0.000   2.565
   21        0.858   1.716   0.000   2.574
   22        0.866   1.757   0.000   2.623
   23        0.869   1.751   0.000   2.621
   24        0.869   1.718   0.000   2.587
   25        0.852   1.689   0.000   2.540
   26        0.870   1.733   0.000   2.604
   27        0.871   1.737   0.000   2.608
   28        0.854   1.713   0.000   2.567
   29        0.867   1.759   0.000   2.626
   30        0.865   1.763   0.000   2.628
   31        0.865   1.768   0.000   2.633
   32        0.865   1.761   0.000   2.626
   33        0.863   1.754   0.000   2.617
   34        0.866   1.770   0.000   2.636
   35        0.868   1.789   0.000   2.656
   36        0.866   1.765   0.000   2.631
   37        0.869   1.767   0.000   2.636
   38        0.867   1.777   0.000   2.644
   39        0.864   1.759   0.000   2.622
   40        0.872   1.766   0.000   2.639
   41        0.872   1.784   0.000   2.656
   42        0.866   1.769   0.000   2.635
   43        0.869   1.774   0.000   2.643
   44        0.866   1.769   0.000   2.635
   45        0.867   1.767   0.000   2.634
   46        0.866   1.769   0.000   2.635
   47        0.866   1.763   0.000   2.629
   48        0.866   1.761   0.000   2.628
   49        0.863   1.756   0.000   2.619
   50        0.875   1.657   0.000   2.531
   51        0.880   1.661   0.000   2.541
   52        0.868   1.651   0.000   2.519
   53        0.871   1.669   0.000   2.540
   54        0.870   1.657   0.000   2.527
   55        1.234   2.635   0.000   3.869
   56        1.258   2.590   0.000   3.848
   57        0.512   0.630   7.074   8.216
   58        0.520   0.707   6.019   7.245
--------------------------------------------------
tot         50.334 100.831  13.093 164.257
 


 magnetization (x)
 
# of ion       s       p       d       tot
------------------------------------------
    1        0.000   0.002   0.000   0.002
    2       -0.000  -0.002   0.000  -0.002
    3       -0.000  -0.002   0.000  -0.002
    4        0.000   0.001   0.000   0.001
    5       -0.000  -0.003   0.000  -0.004
    6       -0.000  -0.005   0.000  -0.005
    7        0.001   0.004   0.000   0.005
    8       -0.001  -0.017   0.000  -0.017
    9        0.000  -0.001   0.000  -0.001
   10        0.001   0.005   0.000   0.006
   11        0.001  -0.005   0.000  -0.003
   12        0.002   0.015   0.000   0.016
   13        0.000   0.004   0.000   0.005
   14       -0.001  -0.006   0.000  -0.007
   15        0.001   0.004   0.000   0.005
   16        0.000   0.003   0.000   0.004
   17       -0.001  -0.006   0.000  -0.007
   18       -0.000  -0.009   0.000  -0.010
   19       -0.000  -0.000   0.000  -0.000
   20       -0.001  -0.009   0.000  -0.010
   21       -0.000  -0.000   0.000  -0.001
   22        0.001   0.004   0.000   0.005
   23       -0.001  -0.014   0.000  -0.015
   24        0.000   0.001   0.000   0.001
   25        0.000   0.002   0.000   0.002
   26        0.002  -0.001   0.000   0.001
   27        0.004   0.021   0.000   0.024
   28        0.001   0.009   0.000   0.010
   29       -0.000  -0.005   0.000  -0.005
   30        0.000   0.001   0.000   0.001
   31        0.000   0.001   0.000   0.001
   32       -0.000  -0.001   0.000  -0.001
   33        0.000  -0.000   0.000  -0.000
   34        0.000   0.000   0.000   0.000
   35        0.000   0.003   0.000   0.003
   36       -0.000  -0.000   0.000  -0.000
   37        0.000   0.001   0.000   0.001
   38       -0.000  -0.005   0.000  -0.005
   39       -0.000  -0.001   0.000  -0.001
   40       -0.000  -0.001   0.000  -0.001
   41        0.000  -0.000   0.000  -0.000
   42        0.000   0.004   0.000   0.005
   43        0.000  -0.000   0.000   0.000
   44       -0.000  -0.000   0.000  -0.000
   45       -0.000  -0.003   0.000  -0.003
   46        0.000   0.001   0.000   0.001
   47        0.000   0.001   0.000   0.002
   48       -0.000  -0.003   0.000  -0.003
   49       -0.000  -0.002   0.000  -0.002
   50        0.014   0.058   0.000   0.071
   51       -0.013  -0.056   0.000  -0.069
   52        0.013   0.062   0.000   0.074
   53       -0.007  -0.020   0.000  -0.027
   54       -0.015  -0.069   0.000  -0.083
   55        0.000  -0.000   0.000   0.000
   56       -0.002  -0.019   0.000  -0.021
   57       -0.030  -0.003  -1.910  -1.942
   58        0.061   0.028   2.867   2.956
--------------------------------------------------
tot          0.029  -0.032   0.957   0.954
 

 total amount of memory used by VASP MPI-rank0   174745. kBytes
=======================================================================

   base      :      30000. kBytes
   nonl-proj :       5306. kBytes
   fftplans  :      12934. kBytes
   grid      :      33177. kBytes
   one-center:         62. kBytes
   HF        :         23. kBytes
   nonlr-proj:      16554. kBytes
   wavefun   :      76689. kBytes
 
  
  
 General timing and accounting informations for this job:
 ========================================================
  
                  Total CPU time used (sec):    30638.256
                            User time (sec):    30589.775
                          System time (sec):       48.481
                         Elapsed time (sec):    30658.157
  
                   Maximum memory used (kb):      412684.
                   Average memory used (kb):           0.
  
                          Minor page faults:       300124
                          Major page faults:            1
                 Voluntary context switches:         1918
