 vasp.5.4.4.18Apr17-6-g9f103f2a35 (build Feb 25 2019 10:51:38) complex          
  
 executed on             LinuxIFC date 2021.08.06  10:20:24
 running on   32 total cores
 distrk:  each k-point on   32 cores,    1 groups
 distr:  one band on NCORES_PER_BAND=  32 cores,    1 groups


--------------------------------------------------------------------------------------------------------


 INCAR:
 POTCAR:    PAW_PBE C 08Apr2002                   
 POTCAR:    PAW_PBE N 08Apr2002                   
 POTCAR:    PAW_PBE Fe 06Sep2000                  
 POTCAR:    PAW_PBE Cr 06Sep2000                  

 ----------------------------------------------------------------------------- 
|                                                                             |
|           W    W    AA    RRRRR   N    N  II  N    N   GGGG   !!!           |
|           W    W   A  A   R    R  NN   N  II  NN   N  G    G  !!!           |
|           W    W  A    A  R    R  N N  N  II  N N  N  G       !!!           |
|           W WW W  AAAAAA  RRRRR   N  N N  II  N  N N  G  GGG   !            |
|           WW  WW  A    A  R   R   N   NN  II  N   NN  G    G                |
|           W    W  A    A  R    R  N    N  II  N    N   GGGG   !!!           |
|                                                                             |
|      For optimal performance we recommend to set                            |
|        NCORE= 4 - approx SQRT( number of cores)                             |
|      NCORE specifies how many cores store one orbital (NPAR=cpu/NCORE).     |
|      This setting can  greatly improve the performance of VASP for DFT.     |
|      The default,   NCORE=1            might be grossly inefficient         |
|      on modern multi-core architectures or massively parallel machines.     |
|      Do your own testing !!!!                                               |
|      Unfortunately you need to use the default for GW and RPA calculations. |
|      (for HF NCORE is supported but not extensively tested yet)             |
|                                                                             |
 ----------------------------------------------------------------------------- 

 POTCAR:    PAW_PBE C 08Apr2002                   
   VRHFIN =C: s2p2                                                              
   LEXCH  = PE                                                                  
   EATOM  =   147.1560 eV,   10.8157 Ry                                         
                                                                                
   TITEL  = PAW_PBE C 08Apr2002                                                 
   LULTRA =        F    use ultrasoft PP ?                                      
   IUNSCR =        1    unscreen: 0-lin 1-nonlin 2-no                           
   RPACOR =    1.200    partial core radius                                     
   POMASS =   12.011; ZVAL   =    4.000    mass and valenz                      
   RCORE  =    1.500    outmost cutoff radius                                   
   RWIGS  =    1.630; RWIGS  =    0.863    wigner-seitz radius (au A)           
   ENMAX  =  400.000; ENMIN  =  300.000 eV                                      
   ICORE  =        2    local potential                                         
   LCOR   =        T    correct aug charges                                     
   LPAW   =        T    paw PP                                                  
   EAUG   =  644.873                                                            
   DEXC   =    0.000                                                            
   RMAX   =    1.529    core radius for proj-oper                               
   RAUG   =    1.300    factor for augmentation sphere                          
   RDEP   =    1.501    radius for radial grids                                 
   RDEPT  =    1.300    core radius for aug-charge                              
                                                                                
   Atomic configuration                                                         
    4 entries                                                                   
     n  l   j            E        occ.                                          
     1  0  0.50      -273.3789   2.0000                                         
     2  0  0.50       -13.7508   2.0000                                         
     2  1  0.50        -5.2854   2.0000                                         
     3  2  1.50        -5.4423   0.0000                                         
   Description                                                                  
     l       E           TYP  RCUT    TYP  RCUT                                 
     0    -13.7508458     23  1.200                                             
     0     -8.2022199     23  1.200                                             
     1     -5.2854383     23  1.500                                             
     1     34.0145650     23  1.500                                             
     2     -5.4423304      7  1.500                                             
  local pseudopotential read in
  partial core-charges read in
  partial kinetic energy density read in
  atomic valenz-charges read in
  non local Contribution for L=           0  read in
    real space projection operators read in
  non local Contribution for L=           0  read in
    real space projection operators read in
  non local Contribution for L=           1  read in
    real space projection operators read in
  non local Contribution for L=           1  read in
    real space projection operators read in
    PAW grid and wavefunctions read in
 
   number of l-projection  operators is LMAX  =           4
   number of lm-projection operators is LMMAX =           8
 
 POTCAR:    PAW_PBE N 08Apr2002                   
   VRHFIN =N: s2p3                                                              
   LEXCH  = PE                                                                  
   EATOM  =   264.5486 eV,   19.4438 Ry                                         
                                                                                
   TITEL  = PAW_PBE N 08Apr2002                                                 
   LULTRA =        F    use ultrasoft PP ?                                      
   IUNSCR =        1    unscreen: 0-lin 1-nonlin 2-no                           
   RPACOR =    1.200    partial core radius                                     
   POMASS =   14.001; ZVAL   =    5.000    mass and valenz                      
   RCORE  =    1.500    outmost cutoff radius                                   
   RWIGS  =    1.400; RWIGS  =    0.741    wigner-seitz radius (au A)           
   ENMAX  =  400.000; ENMIN  =  300.000 eV                                      
   ICORE  =        2    local potential                                         
   LCOR   =        T    correct aug charges                                     
   LPAW   =        T    paw PP                                                  
   EAUG   =  627.112                                                            
   DEXC   =    0.000                                                            
   RMAX   =    1.529    core radius for proj-oper                               
   RAUG   =    1.300    factor for augmentation sphere                          
   RDEP   =    1.514    radius for radial grids                                 
   RDEPT  =    1.338    core radius for aug-charge                              
                                                                                
   Atomic configuration                                                         
    4 entries                                                                   
     n  l   j            E        occ.                                          
     1  0  0.50      -384.7179   2.0000                                         
     2  0  0.50       -18.5828   2.0000                                         
     2  1  0.50        -7.0898   3.0000                                         
     3  2  1.50        -6.8029   0.0000                                         
   Description                                                                  
     l       E           TYP  RCUT    TYP  RCUT                                 
     0    -18.5828119     23  1.200                                             
     0    -13.5018863     23  1.200                                             
     1     -7.0897853     23  1.500                                             
     1      9.5240782     23  1.500                                             
     2     -6.8029130      7  1.500                                             
  local pseudopotential read in
  partial core-charges read in
  partial kinetic energy density read in
  atomic valenz-charges read in
  non local Contribution for L=           0  read in
    real space projection operators read in
  non local Contribution for L=           0  read in
    real space projection operators read in
  non local Contribution for L=           1  read in
    real space projection operators read in
  non local Contribution for L=           1  read in
    real space projection operators read in
    PAW grid and wavefunctions read in
 
   number of l-projection  operators is LMAX  =           4
   number of lm-projection operators is LMMAX =           8
 
 POTCAR:    PAW_PBE Fe 06Sep2000                  
   VRHFIN =Fe:  d7 s1                                                           
   LEXCH  = PE                                                                  
   EATOM  =   594.3153 eV,   43.6809 Ry                                         
                                                                                
   TITEL  = PAW_PBE Fe 06Sep2000                                                
   LULTRA =        F    use ultrasoft PP ?                                      
   IUNSCR =        1    unscreen: 0-lin 1-nonlin 2-no                           
   RPACOR =    2.000    partial core radius                                     
   POMASS =   55.847; ZVAL   =    8.000    mass and valenz                      
   RCORE  =    2.300    outmost cutoff radius                                   
   RWIGS  =    2.460; RWIGS  =    1.302    wigner-seitz radius (au A)           
   ENMAX  =  267.882; ENMIN  =  200.911 eV                                      
   RCLOC  =    1.701    cutoff for local pot                                    
   LCOR   =        T    correct aug charges                                     
   LPAW   =        T    paw PP                                                  
   EAUG   =  511.368                                                            
   DEXC   =    0.000                                                            
   RMAX   =    2.356    core radius for proj-oper                               
   RAUG   =    1.300    factor for augmentation sphere                          
   RDEP   =    2.442    radius for radial grids                                 
   RDEPT  =    1.890    core radius for aug-charge                              
                                                                                
   Atomic configuration                                                         
    9 entries                                                                   
     n  l   j            E        occ.                                          
     1  0  0.50     -6993.8440   2.0000                                         
     2  0  0.50      -814.6047   2.0000                                         
     2  1  1.50      -693.3689   6.0000                                         
     3  0  0.50       -89.4732   2.0000                                         
     3  1  1.50       -55.6373   6.0000                                         
     3  2  2.50        -3.8151   7.0000                                         
     4  0  0.50        -4.2551   1.0000                                         
     4  1  1.50        -3.4015   0.0000                                         
     4  3  2.50        -1.3606   0.0000                                         
   Description                                                                  
     l       E           TYP  RCUT    TYP  RCUT                                 
     2     -3.8151135     23  2.300                                             
     2     -5.1756961     23  2.300                                             
     0     -4.2550963     23  2.300                                             
     0      7.2035603     23  2.300                                             
     1     -2.7211652     23  2.300                                             
     1     18.4316424     23  2.300                                             
  local pseudopotential read in
  partial core-charges read in
  partial kinetic energy density read in
  atomic valenz-charges read in
  non local Contribution for L=           2  read in
    real space projection operators read in
  non local Contribution for L=           2  read in
    real space projection operators read in
  non local Contribution for L=           0  read in
    real space projection operators read in
  non local Contribution for L=           0  read in
    real space projection operators read in
  non local Contribution for L=           1  read in
    real space projection operators read in
  non local Contribution for L=           1  read in
    real space projection operators read in
    PAW grid and wavefunctions read in
 
   number of l-projection  operators is LMAX  =           6
   number of lm-projection operators is LMMAX =          18
 
 POTCAR:    PAW_PBE Cr 06Sep2000                  
   VRHFIN =Cr : d5 s1                                                           
   LEXCH  = PE                                                                  
   EATOM  =   276.8859 eV,   20.3505 Ry                                         
                                                                                
   TITEL  = PAW_PBE Cr 06Sep2000                                                
   LULTRA =        F    use ultrasoft PP ?                                      
   IUNSCR =        1    unscreen: 0-lin 1-nonlin 2-no                           
   RPACOR =    2.080    partial core radius                                     
   POMASS =   51.996; ZVAL   =    6.000    mass and valenz                      
   RCORE  =    2.500    outmost cutoff radius                                   
   RWIGS  =    2.500; RWIGS  =    1.323    wigner-seitz radius (au A)           
   ENMAX  =  227.080; ENMIN  =  170.310 eV                                      
   RCLOC  =    1.721    cutoff for local pot                                    
   LCOR   =        T    correct aug charges                                     
   LPAW   =        T    paw PP                                                  
   EAUG   =  402.108                                                            
   DEXC   =    0.000                                                            
   RMAX   =    2.552    core radius for proj-oper                               
   RAUG   =    1.300    factor for augmentation sphere                          
   RDEP   =    2.609    radius for radial grids                                 
   RDEPT  =    2.065    core radius for aug-charge                              
                                                                                
   Atomic configuration                                                         
    9 entries                                                                   
     n  l   j            E        occ.                                          
     1  0  0.50     -5880.4963   2.0000                                         
     2  0  0.50      -667.0865   2.0000                                         
     2  1  1.50      -560.6250   6.0000                                         
     3  0  0.50       -73.9860   2.0000                                         
     3  1  1.50       -45.4378   6.0000                                         
     3  2  2.50        -2.9137   5.0000                                         
     4  0  0.50        -4.0071   1.0000                                         
     4  1  0.50        -1.2789   0.0000                                         
     4  3  2.50        -1.3606   0.0000                                         
   Description                                                                  
     l       E           TYP  RCUT    TYP  RCUT                                 
     2     -2.9136677     23  2.500                                             
     2     -4.2742503     23  2.500                                             
     0     -4.0071322     23  2.500                                             
     0      9.4498801     23  2.500                                             
     1     -5.4423304     23  2.500                                             
     1     27.2116520     23  2.500                                             
  local pseudopotential read in
  partial core-charges read in
  partial kinetic energy density read in
  atomic valenz-charges read in
  non local Contribution for L=           2  read in
    real space projection operators read in
  non local Contribution for L=           2  read in
    real space projection operators read in
  non local Contribution for L=           0  read in
    real space projection operators read in
  non local Contribution for L=           0  read in
    real space projection operators read in
  non local Contribution for L=           1  read in
    real space projection operators read in
  non local Contribution for L=           1  read in
    real space projection operators read in
    PAW grid and wavefunctions read in
 
   number of l-projection  operators is LMAX  =           6
   number of lm-projection operators is LMMAX =          18
 

 ----------------------------------------------------------------------------- 
|                                                                             |
|  ADVICE TO THIS USER RUNNING 'VASP/VAMP'   (HEAR YOUR MASTER'S VOICE ...):  |
|                                                                             |
|      You have a (more or less) 'large supercell' and for larger cells       |
|      it might be more efficient to use real space projection opertators     |
|      So try LREAL= Auto  in the INCAR   file.                               |
|      Mind:          For very  accurate calculation you might also keep the  |
|      reciprocal projection scheme          (i.e. LREAL=.FALSE.)             |
|                                                                             |
 ----------------------------------------------------------------------------- 

  PAW_PBE C 08Apr2002                   :
 energy of atom  1       EATOM= -147.1560
 kinetic energy error for atom=    0.0076 (will be added to EATOM!!)
  PAW_PBE N 08Apr2002                   :
 energy of atom  2       EATOM= -264.5486
 kinetic energy error for atom=    0.0138 (will be added to EATOM!!)
  PAW_PBE Fe 06Sep2000                  :
 energy of atom  3       EATOM= -594.3153
 kinetic energy error for atom=    0.0026 (will be added to EATOM!!)
  PAW_PBE Cr 06Sep2000                  :
 energy of atom  4       EATOM= -276.8859
 kinetic energy error for atom=    0.0012 (will be added to EATOM!!)
 
 
 POSCAR:  C  N Fe Cr                             
  positions in cartesian coordinates
  No initial velocities read in
 exchange correlation table for  LEXCH =        8
   RHO(1)=    0.500       N(1)  =     2000
   RHO(2)=  100.500       N(2)  =     4000

 VTST: version 3.2, (02/03/18)

 CHAIN: initializing optimizer
 
 OPT: Using VASP Conjugate-Gradient optimizer
 CHAIN: Read ICHAIN            0
 
 POSCAR:  C  N Fe Cr                             
  positions in cartesian coordinates
  No initial velocities read in
 


--------------------------------------------------------------------------------------------------------


 ion  position               nearest neighbor table
   1  0.220  0.000  0.500-   3 1.42  20 1.43   4 1.43
   2  0.055  0.100  0.500-  34 1.43   7 1.44   3 1.44
   3  0.109  1.000  0.500-   1 1.42  18 1.44   2 1.44
   4  0.276  0.099  0.500-  22 1.42   1 1.43   5 1.43
   5  0.222  0.199  0.500-   7 1.43   4 1.43   8 1.45
   6  0.055  0.300  0.500-  38 1.43   7 1.44  11 1.45
   7  0.111  0.200  0.500-   5 1.43   2 1.44   6 1.44
   8  0.281  0.298  0.500-  51 1.42   5 1.45   9 1.46
   9  0.224  0.399  0.500-  11 1.43  12 1.45   8 1.46
  10  0.057  0.500  0.500-  42 1.44  11 1.44  15 1.45
  11  0.112  0.400  0.500-   9 1.43  10 1.44   6 1.45
  12  0.280  0.499  0.500-  55 1.34   9 1.45  13 1.45
  13  0.225  0.601  0.500-  15 1.44  12 1.45  16 1.47
  14  0.056  0.700  0.500-  46 1.43  19 1.44  15 1.45
  15  0.113  0.601  0.500-  13 1.44  14 1.45  10 1.45
  16  0.282  0.703  0.500-  56 1.38  17 1.44  13 1.47
  17  0.222  0.801  0.500-  19 1.43  20 1.43  16 1.44
  18  0.055  0.899  0.500-  50 1.42  19 1.44   3 1.44
  19  0.111  0.800  0.500-  17 1.43  14 1.44  18 1.44
  20  0.276  0.901  0.500-  28 1.42  17 1.43   1 1.43
  21  0.555  1.000  0.500-  30 1.42  24 1.42  23 1.42
  22  0.387  0.097  0.500-  26 1.41  23 1.42   4 1.42
  23  0.444  1.000  0.500-  22 1.42  28 1.42  21 1.42
  24  0.611  0.098  0.500-  25 1.41  21 1.42  32 1.42
  25  0.556  0.195  0.500-  24 1.41  52 1.42  26 1.44
  26  0.443  0.194  0.500-  22 1.41  51 1.41  25 1.44
  27  0.555  0.804  0.500-  54 1.41  30 1.42  29 1.46
  28  0.387  0.902  0.500-  29 1.41  23 1.42  20 1.42
  29  0.441  0.805  0.500-  56 1.37  28 1.41  27 1.46
  30  0.610  0.902  0.500-  27 1.42  21 1.42  48 1.43
  31  0.889  1.000  0.500-  33 1.42  34 1.44  50 1.44
  32  0.723  0.099  0.500-  24 1.42  33 1.44  37 1.44
  33  0.778  1.000  0.500-  31 1.42  32 1.44  48 1.44
  34  0.943  0.100  0.500-   2 1.43  35 1.44  31 1.44
  35  0.888  0.200  0.500-  37 1.43  34 1.44  38 1.44
  36  0.718  0.299  0.500-  52 1.42  37 1.45  41 1.47
  37  0.776  0.200  0.500-  35 1.43  32 1.44  36 1.45
  38  0.944  0.300  0.500-   6 1.43  35 1.44  39 1.44
  39  0.888  0.400  0.500-  41 1.43  38 1.44  42 1.45
  40  0.721  0.500  0.500-  53 1.41  41 1.44  45 1.45
  41  0.776  0.400  0.500-  39 1.43  40 1.44  36 1.47
  42  0.944  0.500  0.500-  10 1.44  39 1.45  43 1.45
  43  0.887  0.600  0.500-  45 1.43  46 1.45  42 1.45
  44  0.718  0.701  0.500-  54 1.42  49 1.44  45 1.47
  45  0.776  0.600  0.500-  43 1.43  40 1.45  44 1.47
  46  0.944  0.700  0.500-  14 1.43  47 1.44  43 1.45
  47  0.888  0.800  0.500-  49 1.43  50 1.44  46 1.44
  48  0.722  0.900  0.500-  30 1.43  49 1.44  33 1.44
  49  0.776  0.800  0.500-  47 1.43  48 1.44  44 1.44
  50  0.944  0.899  0.500-  18 1.42  47 1.44  31 1.44
  51  0.392  0.293  0.500-  26 1.41   8 1.42  57 1.94
  52  0.606  0.296  0.500-  25 1.42  36 1.42  57 1.97
  53  0.611  0.502  0.500-  40 1.41  58 1.82  57 1.90
  54  0.607  0.704  0.500-  27 1.41  44 1.42  58 2.02
  55  0.385  0.500  0.500-  12 1.34  58 1.82  57 1.86
  56  0.389  0.709  0.500-  29 1.37  16 1.38  58 2.04
  57  0.496  0.405  0.499-  55 1.86  53 1.90  51 1.94  52 1.97  58 2.30
  58  0.497  0.589  0.500-  53 1.82  55 1.82  54 2.02  56 2.04  57 2.30
 
  LATTYP: Found a triclinic cell.
 ALAT       =    12.5428546567
 B/A-ratio  =     1.0202498380
 C/A-ratio  =     1.5779843189
 COS(alpha) =     0.0002488667
 COS(beta)  =     0.0002593609
 COS(gamma) =     0.0005281068
  
  Lattice vectors:
  
 A1 = (   0.0039281558, -12.5428540415,   0.0000339231)
 A2 = (  12.7968451341,  -0.0027504010,   0.0002013523)
 A3 = (   0.0046131606,  -0.0050784068,  19.7924267728)


Analysis of symmetry for initial positions (statically):
=====================================================================
 Subroutine PRICEL returns:
 Original cell was already a primitive cell.
 

 Routine SETGRP: Setting up the symmetry group for a 
 triclinic supercell.


 Subroutine GETGRP returns: Found  1 space group operations
 (whereof  1 operations were pure point group operations)
 out of a pool of  2 trial point group operations.


The static configuration has the point symmetry C_1 .


Analysis of symmetry for dynamics (positions and initial velocities):
=====================================================================
 Subroutine PRICEL returns:
 Original cell was already a primitive cell.
 

 Routine SETGRP: Setting up the symmetry group for a 
 triclinic supercell.


 Subroutine GETGRP returns: Found  1 space group operations
 (whereof  1 operations were pure point group operations)
 out of a pool of  2 trial point group operations.


The dynamic configuration has the point symmetry C_1 .


Analysis of structural, dynamic, and magnetic symmetry:
=====================================================================
 Subroutine PRICEL returns:
 Original cell was already a primitive cell.
 

 Routine SETGRP: Setting up the symmetry group for a 
 triclinic supercell.


 Subroutine GETGRP returns: Found  1 space group operations
 (whereof  1 operations were pure point group operations)
 out of a pool of  2 trial point group operations.


The magnetic configuration has the point symmetry C_1 .


 Subroutine INISYM returns: Found  1 space group operations
 (whereof  1 operations are pure point group operations),
 and found     1 'primitive' translations

 
 
 KPOINTS: KPOINTS created by Atomic Simulation Env

Automatic generation of k-mesh.
Space group operators:
 irot       det(A)        alpha          n_x          n_y          n_z        tau_x        tau_y        tau_z
    1     1.000000     0.000000     1.000000     0.000000     0.000000     0.000000     0.000000     0.000000
 
 Subroutine IBZKPT returns following result:
 ===========================================
 
 Found      2 irreducible k-points:
 
 Following reciprocal coordinates:
            Coordinates               Weight
  0.250000  0.250000  0.000000      2.000000
 -0.250000  0.250000  0.000000      2.000000
 
 Following cartesian coordinates:
            Coordinates               Weight
  0.019540  0.019938  0.000001      2.000000
 -0.019532  0.019926  0.000010      2.000000
 
 
 Subroutine IBZKPT_HF returns following result:
 ==============================================
 
 Found      4 k-points in 1st BZ
 the following      4 k-points will be used (e.g. in the exchange kernel)
 Following reciprocal coordinates:   # in IRBZ
  0.250000  0.250000  0.000000    0.25000000   1 t-inv F
 -0.250000  0.250000  0.000000    0.25000000   2 t-inv F
 -0.250000 -0.250000 -0.000000    0.25000000   1 t-inv T
  0.250000 -0.250000 -0.000000    0.25000000   2 t-inv T


--------------------------------------------------------------------------------------------------------




 Dimension of arrays:
   k-points           NKPTS =      2   k-points in BZ     NKDIM =      4   number of bands    NBANDS=    154
   number of dos      NEDOS =    301   number of ions     NIONS =     58
   non local maximal  LDIM  =      6   non local SUM 2l+1 LMDIM =     18
   total plane-waves  NPLWV = ******
   max r-space proj   IRMAX =      1   max aug-charges    IRDMAX=  21538
   dimension x,y,z NGX =    96 NGY =   96 NGZ =  144
   dimension x,y,z NGXF=   192 NGYF=  192 NGZF=  288
   support grid    NGXF=   192 NGYF=  192 NGZF=  288
   ions per type =              54   2   1   1
   NGX,Y,Z   is equivalent  to a cutoff of  12.47, 12.72, 12.10 a.u.
   NGXF,Y,Z  is equivalent  to a cutoff of  24.94, 25.45, 24.19 a.u.

 SYSTEM =  unknown system                          
 POSCAR =   C  N Fe Cr                             

 Startparameter for this run:
   NWRITE =      2    write-flag & timer
   PREC   = accura    normal or accurate (medium, high low for compatibility)
   ISTART =      1    job   : 0-new  1-cont  2-samecut
   ICHARG =      0    charge: 1-file 2-atom 10-const
   ISPIN  =      2    spin polarized calculation?
   LNONCOLLINEAR =      F non collinear calculations
   LSORBIT =      F    spin-orbit coupling
   INIWAV =      1    electr: 0-lowe 1-rand  2-diag
   LASPH  =      T    aspherical Exc in radial PAW
   METAGGA=      F    non-selfconsistent MetaGGA calc.

 Electronic Relaxation 1
   ENCUT  =  500.0 eV  36.75 Ry    6.06 a.u.  23.33 22.87 36.09*2*pi/ulx,y,z
   ENINI  =  500.0     initial cutoff
   ENAUG  =  644.9 eV  augmentation charge cutoff
   NELM   =    250;   NELMIN=  2; NELMDL=  0     # of ELM steps 
   EDIFF  = 0.1E-03   stopping-criterion for ELM
   LREAL  =      F    real-space projection
   NLSPLINE    = F    spline interpolate recip. space projectors
   LCOMPAT=      F    compatible to vasp.4.4
   GGA_COMPAT  = T    GGA compatible to vasp.4.4-vasp.4.6
   LMAXPAW     = -100 max onsite density
   LMAXMIX     =    2 max onsite mixed and CHGCAR
   VOSKOWN=      0    Vosko Wilk Nusair interpolation
   ROPT   =    0.00000   0.00000   0.00000   0.00000
 Ionic relaxation
   EDIFFG = -.3E-01   stopping-criterion for IOM
   NSW    =      0    number of steps for IOM
   NBLOCK =      1;   KBLOCK =      1    inner block; outer block 
   IBRION =     -1    ionic relax: 0-MD 1-quasi-New 2-CG
   NFREE  =      1    steps in history (QN), initial steepest desc. (CG)
   ISIF   =      2    stress and relaxation
   IWAVPR =     10    prediction:  0-non 1-charg 2-wave 3-comb
   ISYM   =      3    0-nonsym 1-usesym 2-fastsym
   LCORR  =      T    Harris-Foulkes like correction to forces

   POTIM  = 0.5000    time-step for ionic-motion
   TEIN   =    0.0    initial temperature
   TEBEG  =    0.0;   TEEND  =   0.0 temperature during run
   SMASS  =  -3.00    Nose mass-parameter (am)
   estimated Nose-frequenzy (Omega)   =  0.10E-29 period in steps =****** mass=  -0.374E-26a.u.
   SCALEE = 1.0000    scale energy and forces
   NPACO  =    256;   APACO  = 16.0  distance and # of slots for P.C.
   PSTRESS=    0.0 pullay stress

  Mass of Ions in am
   POMASS =  12.01 14.00 55.85 52.00
  Ionic Valenz
   ZVAL   =   4.00  5.00  8.00  6.00
  Atomic Wigner-Seitz radii
   RWIGS  =  -1.00 -1.00 -1.00 -1.00
  virtual crystal weights 
   VCA    =   1.00  1.00  1.00  1.00
   NELECT =     240.0000    total number of electrons
   NUPDOWN=      -1.0000    fix difference up-down

 DOS related values:
   EMIN   =  10.00;   EMAX   =-10.00  energy-range for DOS
   EFERMI =   0.00
   ISMEAR =     0;   SIGMA  =   0.10  broadening in eV -4-tet -1-fermi 0-gaus

 Electronic relaxation 2 (details)
   IALGO  =     53    algorithm
   LDIAG  =      T    sub-space diagonalisation (order eigenvalues)
   LSUBROT=      F    optimize rotation matrix (better conditioning)
   TURBO    =      0    0=normal 1=particle mesh
   IRESTART =      0    0=no restart 2=restart with 2 vectors
   NREBOOT  =      0    no. of reboots
   NMIN     =      0    reboot dimension
   EREF     =   0.00    reference energy to select bands
   IMIX   =      4    mixing-type and parameters
     AMIX     =   0.40;   BMIX     =  1.00
     AMIX_MAG =   1.60;   BMIX_MAG =  1.00
     AMIN     =   0.10
     WC   =   100.;   INIMIX=   1;  MIXPRE=   1;  MAXMIX= -45

 Intra band minimization:
   WEIMIN = 0.0000     energy-eigenvalue tresh-hold
   EBREAK =  0.16E-06  absolut break condition
   DEPER  =   0.30     relativ break condition  

   TIME   =   0.20     timestep for ELM

  volume/ion in A,a.u.               =      54.77       369.63
  Fermi-wavevector in a.u.,A,eV,Ry     =   0.692063  1.307810  6.516532  0.478952
  Thomas-Fermi vector in A             =   1.773890
 
 Write flags
   LWAVE        =      T    write WAVECAR
   LDOWNSAMPLE  =      F    k-point downsampling of WAVECAR
   LCHARG       =      T    write CHGCAR
   LVTOT        =      F    write LOCPOT, total local potential
   LVHAR        =      F    write LOCPOT, Hartree potential only
   LELF         =      F    write electronic localiz. function (ELF)
   LORBIT       =     11    0 simple, 1 ext, 2 COOP (PROOUT), +10 PAW based schemes


 Dipole corrections
   LMONO  =      F    monopole corrections only (constant potential shift)
   LDIPOL =      T    correct potential (dipole corrections)
   IDIPOL =      3    1-x, 2-y, 3-z, 4-all directions 
   EPSILON=  1.0000000 bulk dielectric constant

 Exchange correlation treatment:
   GGA     =    PE    GGA type
   LEXCH   =     8    internal setting for exchange type
   VOSKOWN=      0    Vosko Wilk Nusair interpolation
   EXXOEP  =     0    0=HF, 1=EXX-LHF (local Hartree Fock) 2=EXX OEP
   LHFCALC =     T    Hartree Fock is set to
   LSYMGRAD=     F    symmetrize gradient (conserves proper symmetry)
   PRECFOCK=normal    Normal, Fast or Accurate (Low or Medium for compatibility)
   LRHFCALC=     F    long range Hartree Fock
   LRSCOR  =     F    long range correlation only (use DFT for short range part)
   LTHOMAS =     F    Thomas Fermi screening in HF
   LMODELHF=     F    short range full HF, long range fraction AEXX
   ENCUT4O =  -1.0   cutoff for four orbital integrals eV
   LMAXFOCK=     4    L truncation for augmentation on plane wave grid
   LMAXFOCKAE=  -1    L truncation for all-electron charge restoration on plane wave grid
   NMAXFOCKAE=   1    number of basis functions for all-electron charge restoration
   LFOCKAEDFT=     F  apply the AE augmentation even for DFT
   NKREDX  =     1    reduce k-point grid by
   NKREDY  =     1    reduce k-point grid by
   NKREDZ  =     1    reduce k-point grid by
   SHIFTRED=     F    shift reduced grid of Gamma
   HFKIDENT=     F    idential grid for each k-point
   ODDONLY =     F    use only odd q-grid points
   EVENONLY=     F    use only even q-grid points
   HFALPHA =   -1.0000 decay constant for conv. correction
   MCALPHA =    0.0000 extent of test-charge in conv. correction in multipole expansion
   AEXX    =    0.2500 exact exchange contribution
   HFSCREEN=    0.2000 screening length (either q_TF or 0.3 A-1)
   HFSCREENC=   0.2000 screening length for correlation (either q_TF or 0.3 A-1)
   HFRCUT  =    0.0000 spherical cutoff for potential kernel
   ALDAX   =    0.7500 LDA exchange part
   AGGAX   =    0.7500 GGA exchange part
   ALDAC   =    1.0000 LDA correlation
   AGGAC   =    1.0000 GGA correlation
   ENCUTFOCK=  -1.0 apply spherical cutoff to Coloumb kernel
   NBANDSGWLOW=     1    first orbital included in HF term
   NBLOCK_FOCK=    64    blocking factor in FOCK_ACC
 Linear response parameters
   LEPSILON=     F    determine dielectric tensor
   LRPA    =     F    only Hartree local field effects (RPA)
   LNABLA  =     F    use nabla operator in PAW spheres
   LVEL    =     F    velocity operator in full k-point grid
   LINTERFAST=   F  fast interpolation
   KINTER  =     0    interpolate to denser k-point grid
   CSHIFT  =0.1000    complex shift for real part using Kramers Kronig
   OMEGAMAX=  -1.0    maximum frequency
   DEG_THRESHOLD= 0.2000000E-02 threshold for treating states as degnerate
   RTIME   =   -0.100 relaxation time in fs
  (WPLASMAI=    0.000 imaginary part of plasma frequency in eV, 0.658/RTIME)
   DFIELD  = 0.0000000 0.0000000 0.0000000 field for delta impulse in time
 
 Orbital magnetization related:
   ORBITALMAG=     F  switch on orbital magnetization
   LCHIMAG   =     F  perturbation theory with respect to B field
   DQ        =  0.001000  dq finite difference perturbation B field
   LLRAUG    =     F  two centre corrections for induced B field



--------------------------------------------------------------------------------------------------------


 Static calculation
 charge density and potential will be updated during run
 spin polarized calculation
 Conjugate gradient for all bands (Freysoldt, et al. PRB 79, 241103 (2009))
 perform sub-space diagonalisation
    before iterative eigenvector-optimisation
 modified Broyden-mixing scheme, WC =      100.0
 initial mixing is a Kerker type mixing with AMIX =  0.4000 and BMIX =      1.0000
 Hartree-type preconditioning will be used
 using additional bands           34
 reciprocal scheme for non local part
 use partial core corrections
 no Harris-corrections to forces 
 use gradient corrections 
 use of overlap-Matrix (Vanderbilt PP)
 Gauss-broadening in eV      SIGMA  =   0.10


--------------------------------------------------------------------------------------------------------


  energy-cutoff  :      500.00
  volume of cell :     3176.86
      direct lattice vectors                 reciprocal lattice vectors
    12.796845134 -0.002750401  0.000201352     0.078144266  0.000024473 -0.000018207
    -0.003928156 12.542854041 -0.000033923     0.000017135  0.079726677  0.000020453
     0.004613161 -0.005078407 19.792426773    -0.000000795  0.000000136  0.050524376

  length of vectors
    12.796845431 12.542854657 19.792427962     0.078144272  0.079726681  0.050524376


 
 old parameters found on file WAVECAR:
  energy-cutoff  :      500.00
  volume of cell :     3176.86
      direct lattice vectors                 reciprocal lattice vectors
    12.706500000  0.000000000  0.000000000     0.078699878  0.000007692 -0.000016756
    -0.001219864 12.480899940  0.000000000     0.000000000  0.080122427  0.000019995
     0.004265438 -0.004999236 20.032098922     0.000000000  0.000000000  0.049919881

  length of vectors

 
 k-points in units of 2pi/SCALE and weight: KPOINTS created by Atomic Simulation Env
   0.01954035  0.01993779  0.00000056       0.500
  -0.01953178  0.01992555  0.00000966       0.500
 
 k-points in reciprocal lattice and weights: KPOINTS created by Atomic Simulation Env
   0.25000000  0.25000000  0.00000000       0.500
  -0.25000000  0.25000000  0.00000000       0.500
 
 position of ions in fractional coordinates (direct lattice) 
   0.21987125  0.00023335  0.50001830
   0.05464047  0.10027395  0.50001490
   0.10919290  0.99994172  0.50000720
   0.27590240  0.09913517  0.50000794
   0.22226510  0.19935118  0.49998757
   0.05531175  0.29995811  0.50002360
   0.11061999  0.19978942  0.50001482
   0.28087309  0.29817179  0.49990384
   0.22392414  0.39892598  0.49991149
   0.05654045  0.50019252  0.50002213
   0.11204051  0.39990624  0.49999859
   0.27959931  0.49932398  0.49984077
   0.22547329  0.60117499  0.49996522
   0.05564184  0.69991105  0.50002698
   0.11331365  0.60063022  0.50001777
   0.28178717  0.70340758  0.49999748
   0.22221177  0.80102729  0.50001286
   0.05482181  0.89947723  0.49999829
   0.11051398  0.79990505  0.50000839
   0.27553101  0.90125160  0.50002123
   0.55497214  0.99969214  0.50003482
   0.38723235  0.09690976  0.49999691
   0.44366789  0.99960305  0.50003389
   0.61137033  0.09751159  0.49999936
   0.55580497  0.19480807  0.49990531
   0.44292842  0.19381032  0.49991131
   0.55491228  0.80362862  0.50004488
   0.38672492  0.90232668  0.50003637
   0.44098968  0.80496149  0.50004104
   0.61044301  0.90160386  0.50003730
   0.88877248  0.99976516  0.50000867
   0.72257962  0.09915180  0.50001160
   0.77799642  0.99967842  0.50002222
   0.94328037  0.10031061  0.50001587
   0.88779989  0.20001811  0.50001669
   0.71759865  0.29881604  0.49990317
   0.77602380  0.19982198  0.49998978
   0.94382265  0.29997115  0.50002507
   0.88774860  0.39987621  0.50000457
   0.72092737  0.49951894  0.49986153
   0.77568964  0.39958688  0.49991821
   0.94402767  0.50003496  0.50002482
   0.88744457  0.59999888  0.50001974
   0.71817419  0.70135367  0.50000963
   0.77588717  0.60021230  0.49997082
   0.94401239  0.69987006  0.50002724
   0.88825455  0.79972112  0.50000807
   0.72204976  0.90018222  0.50002516
   0.77630509  0.79995819  0.50001697
   0.94361747  0.89943251  0.49999790
   0.39167430  0.29327360  0.49982185
   0.60642568  0.29564130  0.49980538
   0.61073248  0.50174369  0.49961775
   0.60698815  0.70428236  0.50002853
   0.38460372  0.49963107  0.49958206
   0.38930444  0.70935271  0.50001434
   0.49640780  0.40536466  0.49940058
   0.49709919  0.58911735  0.49950122
 
 position of ions in cartesian coordinates  (Angst):
   2.81596412 -0.00021709  9.89661985
   0.70113840  1.25503201  9.89651582
   1.39570334 12.53928347  9.89634393
   3.53259750  1.24013983  9.89642266
   2.84581555  2.49728228  9.89600528
   0.70894431  3.75963936  9.89668149
   1.41710870  2.50308596  9.89652230
   3.59542424  3.73661400  9.89435653
   2.86626172  5.00051577  9.89449315
   0.72388126  6.27114696  9.89664583
   1.43450069  5.01311830  9.89619446
   3.57833355  6.25964046  9.89310117
   2.88529165  7.53729103  9.89554991
   0.71159736  8.77618983  9.89673477
   1.45000452  7.53076624  9.89656744
   3.60553025  8.81942438  9.89619641
   2.84276963 10.04401797  9.89648546
   0.70031945 11.27932166  9.89616013
   1.41339475 10.03024904  9.89637451
   3.52469415 11.30097016  9.89665855
   7.10027237 12.53492682  9.89698035
   4.95727835  1.21192079  9.89622701
   5.67592942 12.53411555  9.89693962
   7.82553501  1.21885287  9.89632057
   7.11409107  2.43938179  9.89444464
   5.66963125  2.42717759  9.89454058
   7.10027654 10.07573083  9.89718620
   4.94762124 11.31414878  9.89698059
   5.64242144 10.09276212  9.89708709
   7.81050976 11.30446725  9.89704398
  11.37186315 12.53492476  9.89653000
   9.24865666  1.23911995  9.89658511
   9.95427945 12.53414145  9.89677600
  12.07292546  1.25304766  9.89671407
  11.36255865  2.50381685  9.89671576
   9.18413110  3.74349359  9.89443127
   9.93217795  2.50166437  9.89616050
  12.07908070  3.75735911  9.89688943
  11.36111713  5.01060800  9.89646892
   9.22593970  6.26087177  9.89360100
   9.92711674  5.00728768  9.89473711
  12.08091832  6.26672978  9.89687785
  11.35644045  7.52071829  9.89676244
   9.18991543  8.79246226  9.89652488
   9.92885663  7.52370228  9.89577170
  12.07993789  8.77323229  9.89691881
  11.36602107 10.02580299  9.89652479
   9.23872957 11.28632890  9.89682619
   9.93342033 10.02908438  9.89667835
  12.07410015 11.27631617  9.89633139
   5.01334905  3.67487243  9.89275630
   7.76147993  3.70397957  9.89247351
   7.81578292  6.28908083  9.88875372
   7.76707360  8.82950209  9.89687631
   4.92205629  6.26320472  9.88800180
   4.98138882  8.89369749  9.89655151
   6.35316527  5.08052828  9.88443571
   6.36129142  7.38530906  9.88642138
 


--------------------------------------------------------------------------------------------------------


 k-point  1 :   0.2500 0.2500 0.0000  plane waves:   80677
 k-point  2 :  -0.2500 0.2500 0.0000  plane waves:   80677

 maximum and minimum number of plane-waves per node :      2543     2494

 maximum number of plane-waves:     80677
 maximum index in each direction: 
   IXMAX=   23   IYMAX=   22   IZMAX=   36
   IXMIN=  -23   IYMIN=  -23   IZMIN=  -36


 parallel 3D FFT for wavefunctions:
    minimum data exchange during FFTs selected (reduces bandwidth)
 parallel 3D FFT for charge:
    minimum data exchange during FFTs selected (reduces bandwidth)


 FFT grid for exact exchange (Hartree Fock) 
  NGX = 70; NGY = 70; NGZ =112

 
 Radii for the augmentation spheres in the non-local exchange
 for species   1 augmentation radius   0.874 (default was   0.699)
       energy cutoff for augmentation   2000.0
 for species   2 augmentation radius   0.886 (default was   0.709)
       energy cutoff for augmentation   2000.0
 for species   3 augmentation radius   1.263 (default was   1.010)
       energy cutoff for augmentation   2000.0
 for species   4 augmentation radius   1.424 (default was   1.139)
       energy cutoff for augmentation   2000.0

 real space projection operators:
  total allocation   :       2562.81 KBytes
  max/ min on nodes  :        138.14         38.88

 Maximum index for augmentation-charges in exchange          178
  SETUP_FOCK is finished

 total amount of memory used by VASP MPI-rank0   162981. kBytes
=======================================================================

   base      :      30000. kBytes
   nonl-proj :       5306. kBytes
   fftplans  :      13738. kBytes
   grid      :      35361. kBytes
   one-center:         62. kBytes
   HF        :         23. kBytes
   nonlr-proj:       2297. kBytes
   wavefun   :      76194. kBytes
 
     INWAV:  cpu time    3.5012: real time    3.5020
 Broyden mixing: mesh for mixing (old mesh)
   NGX = 47   NGY = 45   NGZ = 73
  (NGX  =192   NGY  =192   NGZ  =288)
  gives a total of 154395 points

 charge density for first step will be calculated from the start-wavefunctions


--------------------------------------------------------------------------------------------------------


 Maximum index for augmentation-charges          909 (set IRDMAX)


--------------------------------------------------------------------------------------------------------


 initial charge from wavefunction
 First call to EWALD:  gamma=   0.121
 Maximum number of real-space cells 3x 3x 2
 Maximum number of reciprocal cells 2x 2x 4

    FEWALD:  cpu time    0.0037: real time    0.0037


--------------------------------------- Iteration      1(   1)  ---------------------------------------


    POTLOK:  cpu time    1.3057: real time    1.3068
    SETDIJ:  cpu time    2.0834: real time    2.0844
    TRIAL :  cpu time  507.8098: real time  507.9517
    CORREC:  cpu time    0.0022: real time    0.0024
    CHARGE:  cpu time    1.6059: real time    1.6063
    --------------------------------------------
      LOOP:  cpu time  512.8229: real time  512.9699

 eigenvalue-minimisations  :     0
 total energy-change (2. order) :-0.6075912E+03  (-0.4156930E+00)
 number of electron     240.0000010 magnetization       4.0196128
 augmentation part       11.9030110 magnetization       2.8409226

 DIPCOR: dipole corrections for dipol
 direction  3 min pos     1,
 dipolmoment           0.000001     -0.000001      0.003960 electrons x Angstroem
 Tr[quadrupol]     -6499.959310

 energy correction for charged system         0.000000 eV
 dipol+quadrupol energy correction            0.000000 eV
 added-field ion interaction          0.000000 eV  (added to PSCEN)


 Free energy of the ion-electron system (eV)
  ---------------------------------------------------
  alpha Z        PSCENC =        98.76577044
  Ewald energy   TEWEN  =     37150.83797396
  -Hartree energ DENC   =    -45116.65519890
  -exchange      EXHF   =       533.70383883
  -V(xc)+E(xc)   XCENC  =       586.09328816
  PAW double counting   =     25399.91169184   -25422.28989203
  entropy T*S    EENTRO =        -0.00542264
  eigenvalues    EBANDS =     -3072.95464149
  atomic energy  EATOM  =      9235.00324046
  ---------------------------------------------------
  free energy    TOTEN  =      -607.59115274 eV

  energy without entropy =     -607.58573010  energy(sigma->0) =     -607.58844142
  exchange ACFDT corr.  =        -0.00697156  see jH, gK, PRB 81, 115126


--------------------------------------------------------------------------------------------------------




--------------------------------------- Iteration      1(   2)  ---------------------------------------


    POTLOK:  cpu time    1.3278: real time    1.3280
    SETDIJ:  cpu time    2.0816: real time    2.0819
    TRIAL :  cpu time  509.4461: real time  509.5799
    CORREC:  cpu time    0.0021: real time    0.0024
    CHARGE:  cpu time    1.6082: real time    1.6085
    --------------------------------------------
      LOOP:  cpu time  514.4702: real time  514.6061

 eigenvalue-minimisations  :     0
 total energy-change (2. order) :-0.3322206E+00  (-0.3522006E+00)
 number of electron     240.0000009 magnetization       4.0202061
 augmentation part       11.8783764 magnetization       2.9232995

 DIPCOR: dipole corrections for dipol
 direction  3 min pos     1,
 dipolmoment           0.000001     -0.000001      0.004266 electrons x Angstroem
 Tr[quadrupol]     -6499.742346

 energy correction for charged system         0.000000 eV
 dipol+quadrupol energy correction            0.000001 eV
 added-field ion interaction          0.000000 eV  (added to PSCEN)


 Free energy of the ion-electron system (eV)
  ---------------------------------------------------
  alpha Z        PSCENC =        98.76577051
  Ewald energy   TEWEN  =     37150.83797396
  -Hartree energ DENC   =    -45098.41930642
  -exchange      EXHF   =       533.52698147
  -V(xc)+E(xc)   XCENC  =       585.71015832
  PAW double counting   =     25521.79237586   -25543.39150147
  entropy T*S    EENTRO =        -0.00445680
  eigenvalues    EBANDS =     -3091.74364344
  atomic energy  EATOM  =      9235.00324046
  ---------------------------------------------------
  free energy    TOTEN  =      -607.92337339 eV

  energy without entropy =     -607.91891660  energy(sigma->0) =     -607.92114499
  exchange ACFDT corr.  =        -0.00500945  see jH, gK, PRB 81, 115126


--------------------------------------------------------------------------------------------------------




--------------------------------------- Iteration      1(   3)  ---------------------------------------


    POTLOK:  cpu time    1.3405: real time    1.3410
    SETDIJ:  cpu time    2.0809: real time    2.0812
    TRIAL :  cpu time  505.6550: real time  505.7964
    CORREC:  cpu time    0.0021: real time    0.0023
    CHARGE:  cpu time    1.6041: real time    1.6048
    --------------------------------------------
      LOOP:  cpu time  510.6854: real time  510.8284

 eigenvalue-minimisations  :     0
 total energy-change (2. order) :-0.2739873E+00  (-0.2037983E+00)
 number of electron     240.0000009 magnetization       4.0189665
 augmentation part       11.8855538 magnetization       2.9989417

 DIPCOR: dipole corrections for dipol
 direction  3 min pos     1,
 dipolmoment           0.000001     -0.000001      0.004172 electrons x Angstroem
 Tr[quadrupol]     -6499.545765

 energy correction for charged system         0.000000 eV
 dipol+quadrupol energy correction            0.000000 eV
 added-field ion interaction          0.000000 eV  (added to PSCEN)


 Free energy of the ion-electron system (eV)
  ---------------------------------------------------
  alpha Z        PSCENC =        98.76577049
  Ewald energy   TEWEN  =     37150.83797396
  -Hartree energ DENC   =    -45081.68576314
  -exchange      EXHF   =       533.37587698
  -V(xc)+E(xc)   XCENC  =       585.31861782
  PAW double counting   =     25678.23771604   -25699.68113484
  entropy T*S    EENTRO =        -0.00374804
  eigenvalues    EBANDS =     -3108.36520165
  atomic energy  EATOM  =      9235.00324046
  ---------------------------------------------------
  free energy    TOTEN  =      -608.19736069 eV

  energy without entropy =     -608.19361265  energy(sigma->0) =     -608.19548667
  exchange ACFDT corr.  =        -0.00395606  see jH, gK, PRB 81, 115126


--------------------------------------------------------------------------------------------------------




--------------------------------------- Iteration      1(   4)  ---------------------------------------


    POTLOK:  cpu time    1.3451: real time    1.3453
    SETDIJ:  cpu time    2.0804: real time    2.0808
    TRIAL :  cpu time  505.4707: real time  505.5997
    CORREC:  cpu time    0.0021: real time    0.0023
    CHARGE:  cpu time    1.5994: real time    1.5998
    --------------------------------------------
      LOOP:  cpu time  510.5014: real time  510.6336

 eigenvalue-minimisations  :     0
 total energy-change (2. order) :-0.1548374E+00  (-0.1173305E+00)
 number of electron     240.0000009 magnetization       4.0145387
 augmentation part       11.8845656 magnetization       3.0517306

 DIPCOR: dipole corrections for dipol
 direction  3 min pos     1,
 dipolmoment           0.000001     -0.000001      0.004142 electrons x Angstroem
 Tr[quadrupol]     -6499.469387

 energy correction for charged system         0.000000 eV
 dipol+quadrupol energy correction            0.000000 eV
 added-field ion interaction          0.000000 eV  (added to PSCEN)


 Free energy of the ion-electron system (eV)
  ---------------------------------------------------
  alpha Z        PSCENC =        98.76577048
  Ewald energy   TEWEN  =     37150.83797396
  -Hartree energ DENC   =    -45074.42944000
  -exchange      EXHF   =       533.42649138
  -V(xc)+E(xc)   XCENC  =       585.15341092
  PAW double counting   =     25813.61291200   -25835.27428751
  entropy T*S    EENTRO =        -0.00282796
  eigenvalues    EBANDS =     -3115.44452170
  atomic energy  EATOM  =      9235.00324046
  ---------------------------------------------------
  free energy    TOTEN  =      -608.35219805 eV

  energy without entropy =     -608.34937009  energy(sigma->0) =     -608.35078407
  exchange ACFDT corr.  =        -0.00324026  see jH, gK, PRB 81, 115126


--------------------------------------------------------------------------------------------------------




--------------------------------------- Iteration      1(   5)  ---------------------------------------


    POTLOK:  cpu time    1.3462: real time    1.3464
    SETDIJ:  cpu time    2.0809: real time    2.0813
    TRIAL :  cpu time  505.5606: real time  505.6962
    CORREC:  cpu time    0.0019: real time    0.0022
    CHARGE:  cpu time    1.5992: real time    1.5993
    --------------------------------------------
      LOOP:  cpu time  510.5912: real time  510.7278

 eigenvalue-minimisations  :     0
 total energy-change (2. order) :-0.9598869E-01  (-0.8091586E-01)
 number of electron     240.0000009 magnetization       4.0104412
 augmentation part       11.8803958 magnetization       3.0899357

 DIPCOR: dipole corrections for dipol
 direction  3 min pos     1,
 dipolmoment           0.000001     -0.000001      0.004408 electrons x Angstroem
 Tr[quadrupol]     -6499.487005

 energy correction for charged system         0.000000 eV
 dipol+quadrupol energy correction            0.000001 eV
 added-field ion interaction          0.000000 eV  (added to PSCEN)


 Free energy of the ion-electron system (eV)
  ---------------------------------------------------
  alpha Z        PSCENC =        98.76577055
  Ewald energy   TEWEN  =     37150.83797396
  -Hartree energ DENC   =    -45074.52564068
  -exchange      EXHF   =       533.65309419
  -V(xc)+E(xc)   XCENC  =       585.20163392
  PAW double counting   =     25912.63271771   -25934.37413898
  entropy T*S    EENTRO =        -0.00206751
  eigenvalues    EBANDS =     -3115.64000991
  atomic energy  EATOM  =      9235.00324046
  ---------------------------------------------------
  free energy    TOTEN  =      -608.44818673 eV

  energy without entropy =     -608.44611923  energy(sigma->0) =     -608.44715298
  exchange ACFDT corr.  =        -0.00237854  see jH, gK, PRB 81, 115126


--------------------------------------------------------------------------------------------------------




--------------------------------------- Iteration      1(   6)  ---------------------------------------


    POTLOK:  cpu time    1.3415: real time    1.3419
    SETDIJ:  cpu time    2.1077: real time    2.1080
    TRIAL :  cpu time  505.2334: real time  505.3660
    CORREC:  cpu time    0.0020: real time    0.0023
    CHARGE:  cpu time    1.5941: real time    1.5944
    --------------------------------------------
      LOOP:  cpu time  510.2813: real time  510.4152

 eigenvalue-minimisations  :     0
 total energy-change (2. order) :-0.6811849E-01  (-0.5607169E-01)
 number of electron     240.0000009 magnetization       4.0079384
 augmentation part       11.8838195 magnetization       3.1225022

 DIPCOR: dipole corrections for dipol
 direction  3 min pos     1,
 dipolmoment           0.000001     -0.000001      0.004685 electrons x Angstroem
 Tr[quadrupol]     -6499.540191

 energy correction for charged system         0.000000 eV
 dipol+quadrupol energy correction            0.000001 eV
 added-field ion interaction          0.000000 eV  (added to PSCEN)


 Free energy of the ion-electron system (eV)
  ---------------------------------------------------
  alpha Z        PSCENC =        98.76577062
  Ewald energy   TEWEN  =     37150.83797396
  -Hartree energ DENC   =    -45077.61120686
  -exchange      EXHF   =       533.92289909
  -V(xc)+E(xc)   XCENC  =       585.33721174
  PAW double counting   =     25977.00411118   -25998.71809366
  entropy T*S    EENTRO =        -0.00160483
  eigenvalues    EBANDS =     -3113.05614426
  atomic energy  EATOM  =      9235.00324046
  ---------------------------------------------------
  free energy    TOTEN  =      -608.51630523 eV

  energy without entropy =     -608.51470039  energy(sigma->0) =     -608.51550281
  exchange ACFDT corr.  =        -0.00168891  see jH, gK, PRB 81, 115126


--------------------------------------------------------------------------------------------------------




--------------------------------------- Iteration      1(   7)  ---------------------------------------


    POTLOK:  cpu time    1.3440: real time    1.3442
    SETDIJ:  cpu time    2.0847: real time    2.0851
    TRIAL :  cpu time  505.3589: real time  505.5000
    CORREC:  cpu time    0.0020: real time    0.0022
    CHARGE:  cpu time    1.5953: real time    1.5955
    --------------------------------------------
      LOOP:  cpu time  510.3875: real time  510.5296

 eigenvalue-minimisations  :     0
 total energy-change (2. order) :-0.4877137E-01  (-0.4038160E-01)
 number of electron     240.0000009 magnetization       4.0063169
 augmentation part       11.8916871 magnetization       3.1517158

 DIPCOR: dipole corrections for dipol
 direction  3 min pos     1,
 dipolmoment           0.000001     -0.000001      0.004798 electrons x Angstroem
 Tr[quadrupol]     -6499.589606

 energy correction for charged system         0.000000 eV
 dipol+quadrupol energy correction            0.000001 eV
 added-field ion interaction          0.000000 eV  (added to PSCEN)


 Free energy of the ion-electron system (eV)
  ---------------------------------------------------
  alpha Z        PSCENC =        98.76577065
  Ewald energy   TEWEN  =     37150.83797396
  -Hartree energ DENC   =    -45080.87868992
  -exchange      EXHF   =       534.14747902
  -V(xc)+E(xc)   XCENC  =       585.47003556
  PAW double counting   =     26015.31384448   -26037.04844069
  entropy T*S    EENTRO =        -0.00130278
  eigenvalues    EBANDS =     -3110.17468528
  atomic energy  EATOM  =      9235.00324046
  ---------------------------------------------------
  free energy    TOTEN  =      -608.56507660 eV

  energy without entropy =     -608.56377382  energy(sigma->0) =     -608.56442521
  exchange ACFDT corr.  =        -0.00127811  see jH, gK, PRB 81, 115126


--------------------------------------------------------------------------------------------------------




--------------------------------------- Iteration      1(   8)  ---------------------------------------


    POTLOK:  cpu time    1.3323: real time    1.3328
    SETDIJ:  cpu time    2.0798: real time    2.0801
    TRIAL :  cpu time  505.4584: real time  505.5861
    CORREC:  cpu time    0.0020: real time    0.0023
    CHARGE:  cpu time    1.5938: real time    1.5941
    --------------------------------------------
      LOOP:  cpu time  510.4686: real time  510.5999

 eigenvalue-minimisations  :     0
 total energy-change (2. order) :-0.3591620E-01  (-0.3006837E-01)
 number of electron     240.0000009 magnetization       4.0050256
 augmentation part       11.8975377 magnetization       3.1776616

 DIPCOR: dipole corrections for dipol
 direction  3 min pos     1,
 dipolmoment           0.000001     -0.000001      0.004806 electrons x Angstroem
 Tr[quadrupol]     -6499.618944

 energy correction for charged system         0.000000 eV
 dipol+quadrupol energy correction            0.000001 eV
 added-field ion interaction          0.000000 eV  (added to PSCEN)


 Free energy of the ion-electron system (eV)
  ---------------------------------------------------
  alpha Z        PSCENC =        98.76577065
  Ewald energy   TEWEN  =     37150.83797396
  -Hartree energ DENC   =    -45083.08356746
  -exchange      EXHF   =       534.30631386
  -V(xc)+E(xc)   XCENC  =       585.56858078
  PAW double counting   =     26036.53888543   -26058.34850456
  entropy T*S    EENTRO =        -0.00105930
  eigenvalues    EBANDS =     -3108.18838312
  atomic energy  EATOM  =      9235.00324046
  ---------------------------------------------------
  free energy    TOTEN  =      -608.60099280 eV

  energy without entropy =     -608.59993350  energy(sigma->0) =     -608.60046315
  exchange ACFDT corr.  =        -0.00101556  see jH, gK, PRB 81, 115126


--------------------------------------------------------------------------------------------------------




--------------------------------------- Iteration      1(   9)  ---------------------------------------


    POTLOK:  cpu time    1.3306: real time    1.3310
    SETDIJ:  cpu time    2.0785: real time    2.0788
    TRIAL :  cpu time  505.7842: real time  505.8913
    CORREC:  cpu time    0.0020: real time    0.0022
    CHARGE:  cpu time    1.6048: real time    1.6051
    --------------------------------------------
      LOOP:  cpu time  510.8028: real time  510.9437

 eigenvalue-minimisations  :     0
 total energy-change (2. order) :-0.2730238E-01  (-0.2326679E-01)
 number of electron     240.0000009 magnetization       4.0039935
 augmentation part       11.9002193 magnetization       3.2011005

 DIPCOR: dipole corrections for dipol
 direction  3 min pos     1,
 dipolmoment           0.000001     -0.000001      0.004815 electrons x Angstroem
 Tr[quadrupol]     -6499.629074

 energy correction for charged system         0.000000 eV
 dipol+quadrupol energy correction            0.000001 eV
 added-field ion interaction          0.000000 eV  (added to PSCEN)


 Free energy of the ion-electron system (eV)
  ---------------------------------------------------
  alpha Z        PSCENC =        98.76577065
  Ewald energy   TEWEN  =     37150.83797396
  -Hartree energ DENC   =    -45084.06184174
  -exchange      EXHF   =       534.41237337
  -V(xc)+E(xc)   XCENC  =       585.63351911
  PAW double counting   =     26047.57366522   -26069.45150583
  entropy T*S    EENTRO =        -0.00086079
  eigenvalues    EBANDS =     -3107.34043108
  atomic energy  EATOM  =      9235.00324046
  ---------------------------------------------------
  free energy    TOTEN  =      -608.62829517 eV

  energy without entropy =     -608.62743439  energy(sigma->0) =     -608.62786478
  exchange ACFDT corr.  =        -0.00081000  see jH, gK, PRB 81, 115126


--------------------------------------------------------------------------------------------------------




--------------------------------------- Iteration      1(  10)  ---------------------------------------


    POTLOK:  cpu time    1.3262: real time    1.3264
    SETDIJ:  cpu time    2.1134: real time    2.1136
    TRIAL :  cpu time  505.4638: real time  505.5620
    CORREC:  cpu time    0.0019: real time    0.0022
    CHARGE:  cpu time    1.6025: real time    1.6028
    --------------------------------------------
      LOOP:  cpu time  510.5103: real time  510.6094

 eigenvalue-minimisations  :     0
 total energy-change (2. order) :-0.2140468E-01  (-0.1844592E-01)
 number of electron     240.0000009 magnetization       4.0032382
 augmentation part       11.9018153 magnetization       3.2230914

 DIPCOR: dipole corrections for dipol
 direction  3 min pos     1,
 dipolmoment           0.000001     -0.000001      0.004855 electrons x Angstroem
 Tr[quadrupol]     -6499.628516

 energy correction for charged system         0.000000 eV
 dipol+quadrupol energy correction            0.000001 eV
 added-field ion interaction          0.000000 eV  (added to PSCEN)


 Free energy of the ion-electron system (eV)
  ---------------------------------------------------
  alpha Z        PSCENC =        98.76577066
  Ewald energy   TEWEN  =     37150.83797396
  -Hartree energ DENC   =    -45084.22446690
  -exchange      EXHF   =       534.48455836
  -V(xc)+E(xc)   XCENC  =       585.67522426
  PAW double counting   =     26052.80975764   -26074.72683651
  entropy T*S    EENTRO =        -0.00071222
  eigenvalues    EBANDS =     -3107.27406101
  atomic energy  EATOM  =      9235.00324046
  ---------------------------------------------------
  free energy    TOTEN  =      -608.64969985 eV

  energy without entropy =     -608.64898763  energy(sigma->0) =     -608.64934374
  exchange ACFDT corr.  =        -0.00064733  see jH, gK, PRB 81, 115126


--------------------------------------------------------------------------------------------------------




--------------------------------------- Iteration      1(  11)  ---------------------------------------


    POTLOK:  cpu time    1.3237: real time    1.3239
    SETDIJ:  cpu time    2.1076: real time    2.1078
    TRIAL :  cpu time  505.1503: real time  505.2474
    CORREC:  cpu time    0.0020: real time    0.0023
    CHARGE:  cpu time    1.6018: real time    1.6021
    --------------------------------------------
      LOOP:  cpu time  510.1877: real time  510.2857

 eigenvalue-minimisations  :     0
 total energy-change (2. order) :-0.1718081E-01  (-0.1502382E-01)
 number of electron     240.0000009 magnetization       4.0026947
 augmentation part       11.9035810 magnetization       3.2438415

 DIPCOR: dipole corrections for dipol
 direction  3 min pos     1,
 dipolmoment           0.000001     -0.000001      0.004908 electrons x Angstroem
 Tr[quadrupol]     -6499.625250

 energy correction for charged system         0.000000 eV
 dipol+quadrupol energy correction            0.000001 eV
 added-field ion interaction          0.000000 eV  (added to PSCEN)


 Free energy of the ion-electron system (eV)
  ---------------------------------------------------
  alpha Z        PSCENC =        98.76577068
  Ewald energy   TEWEN  =     37150.83797396
  -Hartree energ DENC   =    -45084.07854669
  -exchange      EXHF   =       534.53814345
  -V(xc)+E(xc)   XCENC  =       585.70444744
  PAW double counting   =     26055.02363702   -26076.96607197
  entropy T*S    EENTRO =        -0.00060314
  eigenvalues    EBANDS =     -3107.49476277
  atomic energy  EATOM  =      9235.00324046
  ---------------------------------------------------
  free energy    TOTEN  =      -608.66688066 eV

  energy without entropy =     -608.66627752  energy(sigma->0) =     -608.66657909
  exchange ACFDT corr.  =        -0.00052877  see jH, gK, PRB 81, 115126


--------------------------------------------------------------------------------------------------------




--------------------------------------- Iteration      1(  12)  ---------------------------------------


    POTLOK:  cpu time    1.3187: real time    1.3189
    SETDIJ:  cpu time    2.0821: real time    2.0839
    TRIAL :  cpu time  505.2192: real time  505.2733
    CORREC:  cpu time    0.0019: real time    0.0022
    CHARGE:  cpu time    1.5935: real time    1.5936
    --------------------------------------------
      LOOP:  cpu time  510.2177: real time  510.2761

 eigenvalue-minimisations  :     0
 total energy-change (2. order) :-0.1412015E-01  (-0.1243748E-01)
 number of electron     240.0000009 magnetization       4.0022811
 augmentation part       11.9053730 magnetization       3.2629384

 DIPCOR: dipole corrections for dipol
 direction  3 min pos     1,
 dipolmoment           0.000001     -0.000001      0.004953 electrons x Angstroem
 Tr[quadrupol]     -6499.622985

 energy correction for charged system         0.000000 eV
 dipol+quadrupol energy correction            0.000001 eV
 added-field ion interaction          0.000000 eV  (added to PSCEN)


 Free energy of the ion-electron system (eV)
  ---------------------------------------------------
  alpha Z        PSCENC =        98.76577069
  Ewald energy   TEWEN  =     37150.83797396
  -Hartree energ DENC   =    -45083.93189978
  -exchange      EXHF   =       534.58288337
  -V(xc)+E(xc)   XCENC  =       585.72881356
  PAW double counting   =     26056.06488560   -26078.03278984
  entropy T*S    EENTRO =        -0.00051865
  eigenvalues    EBANDS =     -3107.69927568
  atomic energy  EATOM  =      9235.00324046
  ---------------------------------------------------
  free energy    TOTEN  =      -608.68100081 eV

  energy without entropy =     -608.68048215  energy(sigma->0) =     -608.68074148
  exchange ACFDT corr.  =        -0.00044379  see jH, gK, PRB 81, 115126


--------------------------------------------------------------------------------------------------------




--------------------------------------- Iteration      1(  13)  ---------------------------------------


    POTLOK:  cpu time    1.3224: real time    1.3224
    SETDIJ:  cpu time    2.0808: real time    2.0807
    TRIAL :  cpu time  505.5224: real time  505.5453
    CORREC:  cpu time    0.0018: real time    0.0021
    CHARGE:  cpu time    1.5937: real time    1.5938
    --------------------------------------------
      LOOP:  cpu time  510.5239: real time  510.5470

 eigenvalue-minimisations  :     0
 total energy-change (2. order) :-0.1177818E-01  (-0.1046387E-01)
 number of electron     240.0000009 magnetization       4.0019543
 augmentation part       11.9068407 magnetization       3.2801754

 DIPCOR: dipole corrections for dipol
 direction  3 min pos     1,
 dipolmoment           0.000001     -0.000001      0.004989 electrons x Angstroem
 Tr[quadrupol]     -6499.622154

 energy correction for charged system         0.000000 eV
 dipol+quadrupol energy correction            0.000001 eV
 added-field ion interaction          0.000000 eV  (added to PSCEN)


 Free energy of the ion-electron system (eV)
  ---------------------------------------------------
  alpha Z        PSCENC =        98.76577070
  Ewald energy   TEWEN  =     37150.83797396
  -Hartree energ DENC   =    -45083.87324624
  -exchange      EXHF   =       534.62356337
  -V(xc)+E(xc)   XCENC  =       585.75193094
  PAW double counting   =     26057.12898527   -26079.12427528
  entropy T*S    EENTRO =        -0.00045079
  eigenvalues    EBANDS =     -3107.80620352
  atomic energy  EATOM  =      9235.00324046
  ---------------------------------------------------
  free energy    TOTEN  =      -608.69277899 eV

  energy without entropy =     -608.69232820  energy(sigma->0) =     -608.69255359
  exchange ACFDT corr.  =        -0.00037937  see jH, gK, PRB 81, 115126


--------------------------------------------------------------------------------------------------------




--------------------------------------- Iteration      1(  14)  ---------------------------------------


    POTLOK:  cpu time    1.3118: real time    1.3117
    SETDIJ:  cpu time    2.1100: real time    2.1099
    TRIAL :  cpu time  505.7898: real time  505.8062
    CORREC:  cpu time    0.0020: real time    0.0022
    CHARGE:  cpu time    1.5913: real time    1.5913
    --------------------------------------------
      LOOP:  cpu time  510.8070: real time  510.8235

 eigenvalue-minimisations  :     0
 total energy-change (2. order) :-0.9974528E-02  (-0.8931325E-02)
 number of electron     240.0000009 magnetization       4.0016998
 augmentation part       11.9080649 magnetization       3.2958046

 DIPCOR: dipole corrections for dipol
 direction  3 min pos     1,
 dipolmoment           0.000001     -0.000001      0.005015 electrons x Angstroem
 Tr[quadrupol]     -6499.622172

 energy correction for charged system         0.000000 eV
 dipol+quadrupol energy correction            0.000001 eV
 added-field ion interaction          0.000000 eV  (added to PSCEN)


 Free energy of the ion-electron system (eV)
  ---------------------------------------------------
  alpha Z        PSCENC =        98.76577071
  Ewald energy   TEWEN  =     37150.83797396
  -Hartree energ DENC   =    -45083.88071564
  -exchange      EXHF   =       534.66141830
  -V(xc)+E(xc)   XCENC  =       585.77429406
  PAW double counting   =     26058.62198104   -26080.64333089
  entropy T*S    EENTRO =        -0.00039715
  eigenvalues    EBANDS =     -3107.84293472
  atomic energy  EATOM  =      9235.00324046
  ---------------------------------------------------
  free energy    TOTEN  =      -608.70275352 eV

  energy without entropy =     -608.70235636  energy(sigma->0) =     -608.70255494
  exchange ACFDT corr.  =        -0.00032861  see jH, gK, PRB 81, 115126


--------------------------------------------------------------------------------------------------------




--------------------------------------- Iteration      1(  15)  ---------------------------------------


    POTLOK:  cpu time    1.3263: real time    1.3263
    SETDIJ:  cpu time    2.0787: real time    2.0788
    TRIAL :  cpu time  505.5307: real time  505.5551
    CORREC:  cpu time    0.0018: real time    0.0021
    CHARGE:  cpu time    1.5928: real time    1.5928
    --------------------------------------------
      LOOP:  cpu time  510.5327: real time  510.5573

 eigenvalue-minimisations  :     0
 total energy-change (2. order) :-0.8553633E-02  (-0.7709711E-02)
 number of electron     240.0000009 magnetization       4.0015059
 augmentation part       11.9092385 magnetization       3.3101939

 DIPCOR: dipole corrections for dipol
 direction  3 min pos     1,
 dipolmoment           0.000001     -0.000001      0.005038 electrons x Angstroem
 Tr[quadrupol]     -6499.622564

 energy correction for charged system         0.000000 eV
 dipol+quadrupol energy correction            0.000001 eV
 added-field ion interaction          0.000000 eV  (added to PSCEN)


 Free energy of the ion-electron system (eV)
  ---------------------------------------------------
  alpha Z        PSCENC =        98.76577072
  Ewald energy   TEWEN  =     37150.83797396
  -Hartree energ DENC   =    -45083.91447482
  -exchange      EXHF   =       534.69628541
  -V(xc)+E(xc)   XCENC  =       585.79526021
  PAW double counting   =     26060.52868223   -26082.57369061
  entropy T*S    EENTRO =        -0.00035577
  eigenvalues    EBANDS =     -3107.84995755
  atomic energy  EATOM  =      9235.00324046
  ---------------------------------------------------
  free energy    TOTEN  =      -608.71130715 eV

  energy without entropy =     -608.71095138  energy(sigma->0) =     -608.71112926
  exchange ACFDT corr.  =        -0.00028920  see jH, gK, PRB 81, 115126


--------------------------------------------------------------------------------------------------------




--------------------------------------- Iteration      1(  16)  ---------------------------------------


    POTLOK:  cpu time    1.3054: real time    1.3058
    SETDIJ:  cpu time    2.0782: real time    2.0782
    TRIAL :  cpu time  506.8466: real time  506.8641
    CORREC:  cpu time    0.0018: real time    0.0020
    CHARGE:  cpu time    1.5902: real time    1.5902
    --------------------------------------------
      LOOP:  cpu time  511.8246: real time  511.8426

 eigenvalue-minimisations  :     0
 total energy-change (2. order) :-0.7412575E-02  (-0.6728142E-02)
 number of electron     240.0000009 magnetization       4.0013566
 augmentation part       11.9103336 magnetization       3.3235059

 DIPCOR: dipole corrections for dipol
 direction  3 min pos     1,
 dipolmoment           0.000001     -0.000001      0.005058 electrons x Angstroem
 Tr[quadrupol]     -6499.623084

 energy correction for charged system         0.000000 eV
 dipol+quadrupol energy correction            0.000001 eV
 added-field ion interaction          0.000000 eV  (added to PSCEN)


 Free energy of the ion-electron system (eV)
  ---------------------------------------------------
  alpha Z        PSCENC =        98.76577072
  Ewald energy   TEWEN  =     37150.83797396
  -Hartree energ DENC   =    -45083.95137813
  -exchange      EXHF   =       534.72811070
  -V(xc)+E(xc)   XCENC  =       585.81444822
  PAW double counting   =     26062.66176893   -26084.72847165
  entropy T*S    EENTRO =        -0.00032356
  eigenvalues    EBANDS =     -3107.84982717
  atomic energy  EATOM  =      9235.00324046
  ---------------------------------------------------
  free energy    TOTEN  =      -608.71871973 eV

  energy without entropy =     -608.71839616  energy(sigma->0) =     -608.71855794
  exchange ACFDT corr.  =        -0.00025936  see jH, gK, PRB 81, 115126


--------------------------------------------------------------------------------------------------------




--------------------------------------- Iteration      1(  17)  ---------------------------------------


    POTLOK:  cpu time    1.3093: real time    1.3095
    SETDIJ:  cpu time    2.1067: real time    2.1066
    TRIAL :  cpu time  506.2866: real time  506.3129
    CORREC:  cpu time    0.0017: real time    0.0019
    CHARGE:  cpu time    1.5914: real time    1.5915
    --------------------------------------------
      LOOP:  cpu time  511.2982: real time  511.3249

 eigenvalue-minimisations  :     0
 total energy-change (2. order) :-0.6488364E-02  (-0.5922139E-02)
 number of electron     240.0000009 magnetization       4.0012379
 augmentation part       11.9112295 magnetization       3.3357560

 DIPCOR: dipole corrections for dipol
 direction  3 min pos     1,
 dipolmoment           0.000001     -0.000001      0.005076 electrons x Angstroem
 Tr[quadrupol]     -6499.623510

 energy correction for charged system         0.000000 eV
 dipol+quadrupol energy correction            0.000001 eV
 added-field ion interaction          0.000000 eV  (added to PSCEN)


 Free energy of the ion-electron system (eV)
  ---------------------------------------------------
  alpha Z        PSCENC =        98.76577073
  Ewald energy   TEWEN  =     37150.83797396
  -Hartree energ DENC   =    -45083.97993426
  -exchange      EXHF   =       534.75722481
  -V(xc)+E(xc)   XCENC  =       585.83196654
  PAW double counting   =     26064.82919806   -26086.91524149
  entropy T*S    EENTRO =        -0.00029772
  eigenvalues    EBANDS =     -3107.85508334
  atomic energy  EATOM  =      9235.00324046
  ---------------------------------------------------
  free energy    TOTEN  =      -608.72520809 eV

  energy without entropy =     -608.72491037  energy(sigma->0) =     -608.72505923
  exchange ACFDT corr.  =        -0.00023660  see jH, gK, PRB 81, 115126


--------------------------------------------------------------------------------------------------------




--------------------------------------- Iteration      1(  18)  ---------------------------------------


    POTLOK:  cpu time    1.3050: real time    1.3050
    SETDIJ:  cpu time    2.0762: real time    2.0761
    TRIAL :  cpu time  505.7658: real time  505.7772
    CORREC:  cpu time    0.0018: real time    0.0018
    CHARGE:  cpu time    1.5927: real time    1.5929
    --------------------------------------------
      LOOP:  cpu time  510.7439: real time  510.7555

 eigenvalue-minimisations  :     0
 total energy-change (2. order) :-0.5725348E-02  (-0.5249807E-02)
 number of electron     240.0000009 magnetization       4.0011419
 augmentation part       11.9119650 magnetization       3.3470441

 DIPCOR: dipole corrections for dipol
 direction  3 min pos     1,
 dipolmoment           0.000001     -0.000001      0.005092 electrons x Angstroem
 Tr[quadrupol]     -6499.623694

 energy correction for charged system         0.000000 eV
 dipol+quadrupol energy correction            0.000001 eV
 added-field ion interaction          0.000000 eV  (added to PSCEN)


 Free energy of the ion-electron system (eV)
  ---------------------------------------------------
  alpha Z        PSCENC =        98.76577073
  Ewald energy   TEWEN  =     37150.83797396
  -Hartree energ DENC   =    -45083.99574801
  -exchange      EXHF   =       534.78399157
  -V(xc)+E(xc)   XCENC  =       585.84807092
  PAW double counting   =     26066.88211570   -26088.98451044
  entropy T*S    EENTRO =        -0.00027666
[...]
  augment    44.00653    45.76316    39.51324    -1.09616    -0.01581     0.00570
  Kinetic  3497.54957  3537.03920  3957.77618    -5.65305     0.00428     0.04337
  Fock     -295.55429  -297.31265  -269.83727     1.52125     0.01476    -0.00392
  -------------------------------------------------------------------------------------
  Total     -44.62181   -41.01550    -0.31973    -0.98321     0.00723     0.00061
  in kB     -22.50399   -20.68523    -0.16125    -0.49586     0.00364     0.00031
  external pressure =      -14.45 kB  Pullay stress =        0.00 kB


 VOLUME and BASIS-vectors are now :
 -----------------------------------------------------------------------------
  energy-cutoff  :      500.00
  volume of cell :     3176.86
      direct lattice vectors                 reciprocal lattice vectors
    12.796845134 -0.002750401  0.000201352     0.078144266  0.000024473 -0.000018207
    -0.003928156 12.542854041 -0.000033923     0.000017135  0.079726677  0.000020453
     0.004613161 -0.005078407 19.792426773    -0.000000795  0.000000136  0.050524376

  length of vectors
    12.796845431 12.542854657 19.792427962     0.078144272  0.079726681  0.050524376


 FORCES acting on ions:
    Electron-Ion                     Ewald-Force                    Non-Local-Force
 -----------------------------------------------------------------------------------------------
   0.123E+01 -.161E+01 -.194E+00   -.157E+01 0.211E+01 0.195E+00   0.195E+00 -.474E+00 -.106E-02
   -.843E+00 -.238E+01 -.148E+00   0.739E+00 0.263E+01 0.149E+00   0.983E-01 -.145E+00 -.434E-03
   0.926E+01 -.784E+00 -.711E-01   -.932E+01 0.877E+00 0.710E-01   0.201E+00 -.766E-01 0.635E-03
   0.652E+01 -.307E+01 -.256E+00   -.645E+01 0.357E+01 0.254E+00   -.215E-01 -.395E+00 0.682E-03
   0.216E+01 -.722E+01 -.227E+00   -.179E+01 0.783E+01 0.228E+00   -.323E+00 -.647E+00 -.132E-02
   -.178E+01 -.427E+01 -.314E+00   0.156E+01 0.423E+01 0.314E+00   0.534E-01 0.278E-01 -.880E-03
   0.498E+01 -.443E+01 -.239E+00   -.480E+01 0.444E+01 0.239E+00   -.180E+00 -.600E-01 -.582E-03
   0.731E+01 -.861E+01 -.518E-02   -.541E+01 0.847E+01 0.857E-03   -.151E+01 0.158E-01 0.389E-02
   0.197E+01 0.536E+01 -.149E-01   -.132E+01 -.574E+01 0.145E-01   -.662E+00 0.707E+00 0.171E-02
   0.139E+01 -.165E+01 -.322E+00   -.140E+01 0.159E+01 0.321E+00   0.128E+00 0.817E-01 0.444E-03
   0.601E+01 -.636E+00 -.282E+00   -.584E+01 0.704E+00 0.283E+00   -.134E+00 0.209E-01 -.168E-02
   0.398E+02 -.111E+01 -.361E-01   -.433E+02 0.539E+00 0.542E-01   0.305E+01 0.350E+00 -.159E-01
   0.127E+01 -.258E+01 -.267E+00   -.126E+01 0.179E+01 0.266E+00   -.294E-01 0.551E+00 -.260E-03
   0.591E+00 0.638E+01 -.263E+00   -.909E+00 -.639E+01 0.264E+00   0.202E+00 0.844E-01 -.159E-02
   0.605E+01 0.285E+01 -.333E+00   -.613E+01 -.299E+01 0.334E+00   0.642E-01 0.161E-01 -.849E-03
   0.317E+02 0.189E+02 -.293E+00   -.352E+02 -.192E+02 0.289E+00   0.368E+01 0.408E+00 0.415E-02
   0.973E+01 0.487E+01 -.183E+00   -.103E+02 -.479E+01 0.183E+00   0.549E+00 -.347E-01 0.360E-03
   -.516E+00 0.151E+01 0.465E-02   0.323E+00 -.159E+01 -.427E-02   0.145E+00 0.194E-01 0.655E-03
   0.619E+01 0.358E+01 -.888E-01   -.666E+01 -.369E+01 0.886E-01   0.408E+00 0.102E+00 0.903E-03
   0.887E+01 -.327E+01 -.179E+00   -.911E+01 0.350E+01 0.179E+00   0.286E+00 -.285E+00 0.125E-02
   -.327E+01 0.341E+00 -.361E+00   0.349E+01 -.180E+00 0.360E+00   -.294E+00 -.154E+00 -.636E-03
   0.446E+01 0.696E+00 -.283E+00   -.428E+01 -.698E-01 0.285E+00   -.211E+00 -.544E+00 -.209E-02
   -.323E+01 -.168E+00 -.360E+00   0.363E+01 0.677E+00 0.359E+00   -.292E+00 -.467E+00 -.584E-03
   -.622E+01 0.413E+00 -.303E+00   0.611E+01 0.181E+00 0.305E+00   0.121E+00 -.515E+00 -.221E-02
   -.427E+01 -.383E+01 -.145E-01   0.469E+01 0.546E+01 0.163E-01   -.292E+00 -.148E+01 -.196E-02
   -.330E+01 -.469E+00 -.661E-01   0.308E+01 0.203E+01 0.698E-01   0.155E+00 -.140E+01 -.377E-02
   -.431E+01 0.110E+02 -.494E+00   0.621E+01 -.127E+02 0.507E+00   -.169E+01 0.161E+01 -.117E-01
   0.918E+00 -.822E+01 -.303E+00   -.778E+00 0.877E+01 0.304E+00   -.150E+00 -.581E+00 -.505E-03
   -.288E+02 -.134E+02 -.495E+00   0.313E+02 0.164E+02 0.507E+00   -.260E+01 -.302E+01 -.999E-02
   -.664E+01 0.404E+01 -.285E+00   0.656E+01 -.433E+01 0.288E+00   0.113E+00 0.235E+00 -.173E-02
   -.576E+01 0.377E+00 -.727E-01   0.563E+01 -.317E+00 0.727E-01   -.154E-01 -.248E-01 0.610E-03
   -.754E+01 -.276E+01 -.271E+00   0.756E+01 0.313E+01 0.269E+00   -.559E-01 -.279E+00 0.603E-03
   0.151E+01 0.136E+01 -.209E+00   -.139E+01 -.130E+01 0.210E+00   0.104E-01 -.527E-01 -.118E-02
   0.423E+01 -.206E+01 -.151E+00   -.436E+01 0.223E+01 0.151E+00   0.117E+00 -.108E+00 -.362E-03
   -.153E+01 -.549E+01 -.242E+00   0.125E+01 0.550E+01 0.242E+00   0.285E+00 -.411E-01 -.363E-03
   -.366E+01 -.156E+02 0.269E-01   0.186E+01 0.156E+02 -.309E-01   0.155E+01 -.776E-01 0.312E-02
   0.272E+00 -.918E+01 -.229E+00   -.657E+00 0.975E+01 0.230E+00   0.363E+00 -.651E+00 -.141E-02
   0.566E+01 -.381E+01 -.313E+00   -.560E+01 0.378E+01 0.314E+00   0.865E-01 -.193E-01 -.864E-03
   0.612E+00 -.262E+01 -.300E+00   -.952E+00 0.268E+01 0.302E+00   0.288E+00 0.487E-01 -.207E-02
   0.500E+01 -.312E+01 0.546E-01   -.542E+01 0.303E+01 -.462E-01   0.458E+00 0.485E-02 -.739E-02
   0.855E+01 0.156E+01 0.827E-02   -.931E+01 -.167E+01 -.130E-01   0.820E+00 0.183E+00 0.529E-02
   0.377E+01 -.438E+00 -.328E+00   -.400E+01 0.383E+00 0.326E+00   0.110E+00 -.113E-01 0.552E-03
   0.244E+00 0.202E+01 -.315E+00   -.764E+00 -.209E+01 0.316E+00   0.403E+00 0.697E-02 -.151E-02
   0.254E+01 0.182E+02 -.340E+00   -.438E+01 -.183E+02 0.339E+00   0.161E+01 0.161E+00 0.167E-02
   0.135E+02 -.227E+01 -.206E+00   -.144E+02 0.247E+01 0.208E+00   0.848E+00 -.263E+00 -.221E-02
   0.607E+01 0.497E+01 -.255E+00   -.614E+01 -.496E+01 0.256E+00   0.179E+00 0.564E-01 -.190E-02
   0.430E+00 0.560E+01 -.689E-01   -.655E+00 -.560E+01 0.693E-01   0.245E+00 0.427E-01 0.461E-03
   -.564E+01 0.426E+01 -.189E+00   0.566E+01 -.457E+01 0.189E+00   -.774E-01 0.234E+00 0.127E-02
   0.109E+01 0.855E+01 -.180E+00   -.152E+01 -.931E+01 0.182E+00   0.375E+00 0.739E+00 -.795E-03
   0.524E+01 0.147E+01 0.147E-01   -.540E+01 -.162E+01 -.142E-01   0.165E+00 0.604E-01 0.675E-03
   0.190E+00 -.277E+02 0.131E+00   0.349E+01 0.338E+02 -.142E+00   -.406E+01 -.626E+01 0.124E-01
   -.418E+01 -.387E+02 0.302E+00   0.596E+00 0.448E+02 -.312E+00   0.391E+01 -.623E+01 0.113E-01
   -.162E+02 -.133E+02 0.118E+01   0.103E+02 0.155E+02 -.123E+01   0.614E+01 -.166E+01 0.474E-01
   0.113E+02 0.542E+02 -.818E+00   -.153E+02 -.621E+02 0.825E+00   0.417E+01 0.796E+01 -.415E-02
   -.430E+00 -.147E+02 0.184E+01   0.148E+02 0.175E+02 -.194E+01   -.130E+02 -.202E+01 0.988E-01
   -.312E+02 0.632E+02 -.872E+00   0.423E+02 -.817E+02 0.905E+00   -.106E+02 0.176E+02 -.322E-01
   -.389E+02 0.347E+02 0.528E+01   0.396E+02 -.407E+02 -.517E+01   -.103E+01 0.425E+01 -.120E+00
   -.343E+02 -.569E+02 0.334E+01   0.354E+02 0.600E+02 -.323E+01   -.200E+01 -.159E+01 -.117E+00
 -----------------------------------------------------------------------------------------------
   0.838E+01 -.656E+01 0.154E+00   -.497E-12 0.384E-12 0.133E-14   -.767E+01 0.599E+01 -.155E+00
 
 
 POSITION                                       TOTAL-FORCE (eV/Angst)
 -----------------------------------------------------------------------------------
      2.81596     -0.00022      9.89662        -0.143317      0.001245     -0.000134
      0.70114      1.25503      9.89652        -0.007633      0.090408      0.000068
      1.39570     12.53928      9.89634         0.168040      0.012302      0.000588
      3.53260      1.24014      9.89642         0.052421      0.076334     -0.000900
      2.84582      2.49728      9.89601         0.025485     -0.072883     -0.000193
      0.70894      3.75964      9.89668        -0.165583     -0.010302     -0.000782
      1.41711      2.50309      9.89652        -0.006568     -0.056542     -0.000307
      3.59542      3.73661      9.89436         0.325663     -0.124611     -0.000240
      2.86626      5.00052      9.89449        -0.060605      0.369472      0.001390
      0.72388      6.27115      9.89665         0.128866      0.021643     -0.000847
      1.43450      5.01312      9.89619         0.035825      0.090901     -0.000549
      3.57833      6.25964      9.89310        -0.295661     -0.204333      0.001162
      2.88529      7.53729      9.89555        -0.029076     -0.218654     -0.001317
      0.71160      8.77619      9.89673        -0.110262      0.085123     -0.000336
      1.45000      7.53077      9.89657        -0.004250     -0.125870     -0.000481
      3.60553      8.81942      9.89620         0.429582      0.164586     -0.000147
      2.84277     10.04402      9.89649         0.033220      0.046434      0.000892
      0.70032     11.27932      9.89616        -0.047795     -0.060411      0.001103
      1.41339     10.03025      9.89637        -0.034404     -0.000395      0.000792
      3.52469     11.30097      9.89666         0.060519     -0.075683      0.000756
      7.10027     12.53493      9.89698        -0.080401     -0.003038     -0.001516
      4.95728      1.21192      9.89623        -0.027876      0.061203     -0.000501
      5.67593     12.53412      9.89694         0.088101      0.018564     -0.001393
      7.82554      1.21885      9.89632         0.014305      0.059527     -0.000972
      7.11409      2.43938      9.89444         0.118927      0.080322     -0.000219
      5.66963      2.42718      9.89454        -0.069184      0.094654     -0.000293
      7.10028     10.07573      9.89719         0.134722     -0.049488      0.001062
      4.94762     11.31415      9.89698        -0.013196     -0.069507      0.000876
      5.64242     10.09276      9.89709        -0.290129     -0.227615      0.001219
      7.81051     11.30447      9.89704         0.037865     -0.052179      0.000309
     11.37186     12.53492      9.89653        -0.161997      0.033579      0.000592
      9.24866      1.23912      9.89659        -0.050721      0.078211     -0.001242
      9.95428     12.53414      9.89678         0.138431      0.003059     -0.000232
     12.07293      1.25305      9.89671         0.003560      0.054675      0.000097
     11.36256      2.50382      9.89672         0.006310     -0.034480     -0.000132
      9.18413      3.74349      9.89443        -0.187512     -0.080175     -0.000660
      9.93218      2.50166      9.89616         0.000909     -0.113840     -0.000352
     12.07908      3.75736      9.89689         0.157809     -0.047386     -0.000780
     11.36112      5.01061      9.89647        -0.042363      0.110770     -0.000804
      9.22594      6.26087      9.89360         0.051592     -0.093682      0.000526
      9.92712      5.00729      9.89474         0.101213      0.093235      0.000831
     12.08092      6.26673      9.89688        -0.117406     -0.066984     -0.001215
     11.35644      7.52072      9.89676        -0.103725     -0.064994     -0.000922
      9.18992      8.79246      9.89652        -0.151441      0.113016      0.000731
      9.92886      7.52370      9.89577         0.075468     -0.091007     -0.000031
     12.07994      8.77323      9.89692         0.115561      0.065341     -0.000461
     11.36602     10.02580      9.89652         0.028185      0.049939      0.000883
      9.23873     11.28633      9.89683        -0.074905     -0.071165      0.000878
      9.93342     10.02908      9.89668        -0.030213      0.024511      0.001214
     12.07410     11.27632      9.89633         0.023448     -0.090411      0.001159
      5.01335      3.67487      9.89276        -0.580652     -0.458426      0.002303
      7.76148      3.70398      9.89247         0.519391     -0.543180      0.002124
      7.81578      6.28908      9.88875         0.579602      0.470542      0.001127
      7.76707      8.82950      9.89688         0.357971      0.463025      0.002985
      4.92206      6.26320      9.88800         0.215015      0.574405      0.002709
      4.98139      8.89370      9.89655        -0.431008      0.639047     -0.001977
      6.35317      5.08053      9.88444        -0.279624     -1.092684      0.003315
      6.36129      7.38531      9.88642        -0.430501      0.153849     -0.011753
 -----------------------------------------------------------------------------------
    total drift:                               -0.013965     -0.002482     -0.001044


--------------------------------------------------------------------------------------------------------



  FREE ENERGIE OF THE ION-ELECTRON SYSTEM (eV)
  ---------------------------------------------------
  free  energy   TOTEN  =      -608.79799625 eV

  energy  without entropy=     -608.79761680  energy(sigma->0) =     -608.79780653
 


--------------------------------------------------------------------------------------------------------


    POTLOK:  cpu time    3.3570: real time    3.3601


--------------------------------------------------------------------------------------------------------


 stress matrix after NEB project (eV)
    -44.62181     -0.98333      0.00061
     -0.98321    -41.01550      0.00727
      0.00061      0.00723     -0.31973
  FORCES: max atom, RMS     1.127900    0.317108
  FORCE total and by dimension    2.415021    1.092684
  Stress total and by dimension   60.625188   44.621812
 writing wavefunctions
     LOOP+:  cpu time44048.0506: real time44052.5905
    4ORBIT:  cpu time    0.0000: real time    0.0000
 


 total charge     
 
# of ion       s       p       d       tot
------------------------------------------
    1        0.867   1.775   0.000   2.642
    2        0.863   1.758   0.000   2.621
    3        0.865   1.760   0.000   2.625
    4        0.866   1.764   0.000   2.630
    5        0.864   1.752   0.000   2.615
    6        0.860   1.750   0.000   2.610
    7        0.863   1.748   0.000   2.611
    8        0.860   1.733   0.000   2.592
    9        0.862   1.735   0.000   2.597
   10        0.856   1.736   0.000   2.593
   11        0.861   1.735   0.000   2.597
   12        0.860   1.728   0.000   2.588
   13        0.854   1.732   0.000   2.586
   14        0.860   1.752   0.000   2.612
   15        0.858   1.729   0.000   2.587
   16        0.852   1.696   0.000   2.548
   17        0.863   1.765   0.000   2.629
   18        0.863   1.759   0.000   2.622
   19        0.862   1.755   0.000   2.617
   20        0.869   1.759   0.000   2.628
   21        0.870   1.780   0.000   2.649
   22        0.874   1.793   0.000   2.667
   23        0.871   1.781   0.000   2.652
   24        0.873   1.786   0.000   2.659
   25        0.880   1.761   0.000   2.641
   26        0.882   1.769   0.000   2.651
   27        0.874   1.759   0.000   2.633
   28        0.873   1.804   0.000   2.677
   29        0.872   1.736   0.000   2.608
   30        0.871   1.779   0.000   2.650
   31        0.863   1.762   0.000   2.625
   32        0.865   1.762   0.000   2.628
   33        0.866   1.761   0.000   2.628
   34        0.864   1.753   0.000   2.617
   35        0.861   1.751   0.000   2.612
   36        0.859   1.728   0.000   2.587
   37        0.863   1.746   0.000   2.609
   38        0.862   1.745   0.000   2.607
   39        0.860   1.743   0.000   2.603
   40        0.864   1.761   0.000   2.625
   41        0.865   1.720   0.000   2.585
   42        0.859   1.730   0.000   2.589
   43        0.860   1.745   0.000   2.605
   44        0.860   1.729   0.000   2.588
   45        0.863   1.720   0.000   2.583
   46        0.862   1.743   0.000   2.605
   47        0.862   1.753   0.000   2.614
   48        0.864   1.756   0.000   2.620
   49        0.864   1.746   0.000   2.610
   50        0.864   1.755   0.000   2.619
   51        0.876   1.683   0.000   2.559
   52        0.871   1.659   0.000   2.531
   53        0.913   1.555   0.000   2.468
   54        0.874   1.676   0.000   2.551
   55        1.259   2.595   0.000   3.853
   56        1.236   2.665   0.000   3.901
   57        0.540   0.818   6.151   7.509
   58        0.548   0.890   4.518   5.956
--------------------------------------------------
tot         50.337 101.118  10.669 162.124
 


 magnetization (x)
 
# of ion       s       p       d       tot
------------------------------------------
    1       -0.000  -0.001   0.000  -0.001
    2        0.000   0.002   0.000   0.002
    3        0.000   0.002   0.000   0.002
    4        0.001   0.008   0.000   0.009
    5       -0.001  -0.006   0.000  -0.007
    6        0.000   0.003   0.000   0.003
    7       -0.000  -0.002   0.000  -0.002
    8        0.001   0.013   0.000   0.014
    9       -0.002  -0.023   0.000  -0.025
   10        0.000  -0.004   0.000  -0.004
   11       -0.000  -0.004   0.000  -0.004
   12        0.002   0.014   0.000   0.016
   13       -0.002  -0.018   0.000  -0.020
   14        0.000   0.003   0.000   0.004
   15       -0.000  -0.006   0.000  -0.006
   16        0.001   0.008   0.000   0.009
   17       -0.000  -0.001   0.000  -0.001
   18        0.000   0.001   0.000   0.001
   19       -0.000  -0.001   0.000  -0.001
   20        0.000   0.002   0.000   0.003
   21        0.000  -0.000   0.000  -0.000
   22       -0.001  -0.007   0.000  -0.008
   23       -0.001  -0.012   0.000  -0.012
   24       -0.001  -0.014   0.000  -0.015
   25        0.001   0.017   0.000   0.018
   26        0.001   0.007   0.000   0.008
   27       -0.000  -0.003   0.000  -0.003
   28        0.000   0.000   0.000   0.000
   29       -0.000  -0.005   0.000  -0.006
   30       -0.001  -0.007   0.000  -0.007
   31        0.001   0.007   0.000   0.007
   32        0.001   0.012   0.000   0.013
   33       -0.001  -0.007   0.000  -0.007
   34       -0.000  -0.005   0.000  -0.006
   35        0.000   0.004   0.000   0.005
   36        0.002   0.024   0.000   0.026
   37       -0.001  -0.010   0.000  -0.012
   38       -0.001  -0.006   0.000  -0.007
   39        0.001   0.014   0.000   0.016
   40        0.005   0.051   0.000   0.056
   41       -0.005  -0.057   0.000  -0.062
   42       -0.002  -0.031   0.000  -0.033
   43        0.001   0.012   0.000   0.013
   44        0.002   0.017   0.000   0.019
   45       -0.005  -0.048   0.000  -0.052
   46       -0.001  -0.005   0.000  -0.006
   47        0.001   0.009   0.000   0.009
   48        0.000   0.003   0.000   0.004
   49       -0.001  -0.007   0.000  -0.008
   50       -0.001  -0.006   0.000  -0.006
   51       -0.015  -0.071   0.000  -0.086
   52       -0.015  -0.076   0.000  -0.091
   53       -0.028  -0.296   0.000  -0.324
   54       -0.011  -0.049   0.000  -0.060
   55       -0.012  -0.184   0.000  -0.196
   56       -0.005  -0.031   0.000  -0.037
   57        0.061   0.009   2.658   2.728
   58        0.062   0.006   2.135   2.202
--------------------------------------------------
tot          0.031  -0.752   4.793   4.072
 

 total amount of memory used by VASP MPI-rank0   182133. kBytes
=======================================================================

   base      :      30000. kBytes
   nonl-proj :       5306. kBytes
   fftplans  :      13738. kBytes
   grid      :      35361. kBytes
   one-center:         62. kBytes
   HF        :         23. kBytes
   nonlr-proj:      21449. kBytes
   wavefun   :      76194. kBytes
 
  
  
 General timing and accounting informations for this job:
 ========================================================
  
                  Total CPU time used (sec):    44137.395
                            User time (sec):    44074.907
                          System time (sec):       62.489
                         Elapsed time (sec):    44143.449
  
                   Maximum memory used (kb):      420972.
                   Average memory used (kb):           0.
  
                          Minor page faults:       427586
                          Major page faults:            0
                 Voluntary context switches:         1139
