 vasp.5.4.4.18Apr17-6-g9f103f2a35 (build Feb 25 2019 10:51:38) complex          
  
 executed on             LinuxIFC date 2021.06.16  08:55:59
 running on   48 total cores
 distrk:  each k-point on   24 cores,    2 groups
 distr:  one band on NCORES_PER_BAND=  24 cores,    1 groups


--------------------------------------------------------------------------------------------------------


 INCAR:
 POTCAR:    PAW_PBE C 08Apr2002                   
 POTCAR:    PAW_PBE N 08Apr2002                   
 POTCAR:    PAW_PBE Fe 06Sep2000                  
 POTCAR:    PAW_PBE Sc_sv 07Sep2000               

 ----------------------------------------------------------------------------- 
|                                                                             |
|           W    W    AA    RRRRR   N    N  II  N    N   GGGG   !!!           |
|           W    W   A  A   R    R  NN   N  II  NN   N  G    G  !!!           |
|           W    W  A    A  R    R  N N  N  II  N N  N  G       !!!           |
|           W WW W  AAAAAA  RRRRR   N  N N  II  N  N N  G  GGG   !            |
|           WW  WW  A    A  R   R   N   NN  II  N   NN  G    G                |
|           W    W  A    A  R    R  N    N  II  N    N   GGGG   !!!           |
|                                                                             |
|      For optimal performance we recommend to set                            |
|        NCORE= 4 - approx SQRT( number of cores)                             |
|      NCORE specifies how many cores store one orbital (NPAR=cpu/NCORE).     |
|      This setting can  greatly improve the performance of VASP for DFT.     |
|      The default,   NCORE=1            might be grossly inefficient         |
|      on modern multi-core architectures or massively parallel machines.     |
|      Do your own testing !!!!                                               |
|      Unfortunately you need to use the default for GW and RPA calculations. |
|      (for HF NCORE is supported but not extensively tested yet)             |
|                                                                             |
 ----------------------------------------------------------------------------- 


 ----------------------------------------------------------------------------- 
|                                                                             |
|           W    W    AA    RRRRR   N    N  II  N    N   GGGG   !!!           |
|           W    W   A  A   R    R  NN   N  II  NN   N  G    G  !!!           |
|           W    W  A    A  R    R  N N  N  II  N N  N  G       !!!           |
|           W WW W  AAAAAA  RRRRR   N  N N  II  N  N N  G  GGG   !            |
|           WW  WW  A    A  R   R   N   NN  II  N   NN  G    G                |
|           W    W  A    A  R    R  N    N  II  N    N   GGGG   !!!           |
|                                                                             |
|      You have enabled k-point parallelism (KPAR>1).                         |
|      This developmental code was originally  written by Paul Kent at ORNL,  |
|      and carefully double checked in Vienna.                                |
|      GW as well as linear response parallelism added by Martijn Marsman     |
|      and Georg Kresse.                                                      |
|      Carefully verify results versus KPAR=1.                                |
|      Report problems to Paul Kent and Vienna.                               |
|                                                                             |
 ----------------------------------------------------------------------------- 

 POTCAR:    PAW_PBE C 08Apr2002                   
   VRHFIN =C: s2p2                                                              
   LEXCH  = PE                                                                  
   EATOM  =   147.1560 eV,   10.8157 Ry                                         
                                                                                
   TITEL  = PAW_PBE C 08Apr2002                                                 
   LULTRA =        F    use ultrasoft PP ?                                      
   IUNSCR =        1    unscreen: 0-lin 1-nonlin 2-no                           
   RPACOR =    1.200    partial core radius                                     
   POMASS =   12.011; ZVAL   =    4.000    mass and valenz                      
   RCORE  =    1.500    outmost cutoff radius                                   
   RWIGS  =    1.630; RWIGS  =    0.863    wigner-seitz radius (au A)           
   ENMAX  =  400.000; ENMIN  =  300.000 eV                                      
   ICORE  =        2    local potential                                         
   LCOR   =        T    correct aug charges                                     
   LPAW   =        T    paw PP                                                  
   EAUG   =  644.873                                                            
   DEXC   =    0.000                                                            
   RMAX   =    1.529    core radius for proj-oper                               
   RAUG   =    1.300    factor for augmentation sphere                          
   RDEP   =    1.501    radius for radial grids                                 
   RDEPT  =    1.300    core radius for aug-charge                              
                                                                                
   Atomic configuration                                                         
    4 entries                                                                   
     n  l   j            E        occ.                                          
     1  0  0.50      -273.3789   2.0000                                         
     2  0  0.50       -13.7508   2.0000                                         
     2  1  0.50        -5.2854   2.0000                                         
     3  2  1.50        -5.4423   0.0000                                         
   Description                                                                  
     l       E           TYP  RCUT    TYP  RCUT                                 
     0    -13.7508458     23  1.200                                             
     0     -8.2022199     23  1.200                                             
     1     -5.2854383     23  1.500                                             
     1     34.0145650     23  1.500                                             
     2     -5.4423304      7  1.500                                             
  local pseudopotential read in
  partial core-charges read in
  partial kinetic energy density read in
  atomic valenz-charges read in
  non local Contribution for L=           0  read in
    real space projection operators read in
  non local Contribution for L=           0  read in
    real space projection operators read in
  non local Contribution for L=           1  read in
    real space projection operators read in
  non local Contribution for L=           1  read in
    real space projection operators read in
    PAW grid and wavefunctions read in
 
   number of l-projection  operators is LMAX  =           4
   number of lm-projection operators is LMMAX =           8
 
 POTCAR:    PAW_PBE N 08Apr2002                   
   VRHFIN =N: s2p3                                                              
   LEXCH  = PE                                                                  
   EATOM  =   264.5486 eV,   19.4438 Ry                                         
                                                                                
   TITEL  = PAW_PBE N 08Apr2002                                                 
   LULTRA =        F    use ultrasoft PP ?                                      
   IUNSCR =        1    unscreen: 0-lin 1-nonlin 2-no                           
   RPACOR =    1.200    partial core radius                                     
   POMASS =   14.001; ZVAL   =    5.000    mass and valenz                      
   RCORE  =    1.500    outmost cutoff radius                                   
   RWIGS  =    1.400; RWIGS  =    0.741    wigner-seitz radius (au A)           
   ENMAX  =  400.000; ENMIN  =  300.000 eV                                      
   ICORE  =        2    local potential                                         
   LCOR   =        T    correct aug charges                                     
   LPAW   =        T    paw PP                                                  
   EAUG   =  627.112                                                            
   DEXC   =    0.000                                                            
   RMAX   =    1.529    core radius for proj-oper                               
   RAUG   =    1.300    factor for augmentation sphere                          
   RDEP   =    1.514    radius for radial grids                                 
   RDEPT  =    1.338    core radius for aug-charge                              
                                                                                
   Atomic configuration                                                         
    4 entries                                                                   
     n  l   j            E        occ.                                          
     1  0  0.50      -384.7179   2.0000                                         
     2  0  0.50       -18.5828   2.0000                                         
     2  1  0.50        -7.0898   3.0000                                         
     3  2  1.50        -6.8029   0.0000                                         
   Description                                                                  
     l       E           TYP  RCUT    TYP  RCUT                                 
     0    -18.5828119     23  1.200                                             
     0    -13.5018863     23  1.200                                             
     1     -7.0897853     23  1.500                                             
     1      9.5240782     23  1.500                                             
     2     -6.8029130      7  1.500                                             
  local pseudopotential read in
  partial core-charges read in
  partial kinetic energy density read in
  atomic valenz-charges read in
  non local Contribution for L=           0  read in
    real space projection operators read in
  non local Contribution for L=           0  read in
    real space projection operators read in
  non local Contribution for L=           1  read in
    real space projection operators read in
  non local Contribution for L=           1  read in
    real space projection operators read in
    PAW grid and wavefunctions read in
 
   number of l-projection  operators is LMAX  =           4
   number of lm-projection operators is LMMAX =           8
 
 POTCAR:    PAW_PBE Fe 06Sep2000                  
   VRHFIN =Fe:  d7 s1                                                           
   LEXCH  = PE                                                                  
   EATOM  =   594.3153 eV,   43.6809 Ry                                         
                                                                                
   TITEL  = PAW_PBE Fe 06Sep2000                                                
   LULTRA =        F    use ultrasoft PP ?                                      
   IUNSCR =        1    unscreen: 0-lin 1-nonlin 2-no                           
   RPACOR =    2.000    partial core radius                                     
   POMASS =   55.847; ZVAL   =    8.000    mass and valenz                      
   RCORE  =    2.300    outmost cutoff radius                                   
   RWIGS  =    2.460; RWIGS  =    1.302    wigner-seitz radius (au A)           
   ENMAX  =  267.882; ENMIN  =  200.911 eV                                      
   RCLOC  =    1.701    cutoff for local pot                                    
   LCOR   =        T    correct aug charges                                     
   LPAW   =        T    paw PP                                                  
   EAUG   =  511.368                                                            
   DEXC   =    0.000                                                            
   RMAX   =    2.356    core radius for proj-oper                               
   RAUG   =    1.300    factor for augmentation sphere                          
   RDEP   =    2.442    radius for radial grids                                 
   RDEPT  =    1.890    core radius for aug-charge                              
                                                                                
   Atomic configuration                                                         
    9 entries                                                                   
     n  l   j            E        occ.                                          
     1  0  0.50     -6993.8440   2.0000                                         
     2  0  0.50      -814.6047   2.0000                                         
     2  1  1.50      -693.3689   6.0000                                         
     3  0  0.50       -89.4732   2.0000                                         
     3  1  1.50       -55.6373   6.0000                                         
     3  2  2.50        -3.8151   7.0000                                         
     4  0  0.50        -4.2551   1.0000                                         
     4  1  1.50        -3.4015   0.0000                                         
     4  3  2.50        -1.3606   0.0000                                         
   Description                                                                  
     l       E           TYP  RCUT    TYP  RCUT                                 
     2     -3.8151135     23  2.300                                             
     2     -5.1756961     23  2.300                                             
     0     -4.2550963     23  2.300                                             
     0      7.2035603     23  2.300                                             
     1     -2.7211652     23  2.300                                             
     1     18.4316424     23  2.300                                             
  local pseudopotential read in
  partial core-charges read in
  partial kinetic energy density read in
  atomic valenz-charges read in
  non local Contribution for L=           2  read in
    real space projection operators read in
  non local Contribution for L=           2  read in
    real space projection operators read in
  non local Contribution for L=           0  read in
    real space projection operators read in
  non local Contribution for L=           0  read in
    real space projection operators read in
  non local Contribution for L=           1  read in
    real space projection operators read in
  non local Contribution for L=           1  read in
    real space projection operators read in
    PAW grid and wavefunctions read in
 
   number of l-projection  operators is LMAX  =           6
   number of lm-projection operators is LMMAX =          18
 
 POTCAR:    PAW_PBE Sc_sv 07Sep2000               
   VRHFIN =Sc: 3p4s3d                                                           
   LEXCH  = PE                                                                  
   EATOM  =  1273.2868 eV,   93.5839 Ry                                         
                                                                                
   TITEL  = PAW_PBE Sc_sv 07Sep2000                                             
   LULTRA =        F    use ultrasoft PP ?                                      
   IUNSCR =        1    unscreen: 0-lin 1-nonlin 2-no                           
   RPACOR =    2.200    partial core radius                                     
   POMASS =   44.956; ZVAL   =   11.000    mass and valenz                      
   RCORE  =    2.500    outmost cutoff radius                                   
   RWIGS  =    2.700; RWIGS  =    1.429    wigner-seitz radius (au A)           
   ENMAX  =  222.660; ENMIN  =  166.995 eV                                      
   RCLOC  =    1.805    cutoff for local pot                                    
   LCOR   =        T    correct aug charges                                     
   LPAW   =        T    paw PP                                                  
   EAUG   =  443.063                                                            
   RMAX   =    2.551    core radius for proj-oper                               
   RAUG   =    1.300    factor for augmentation sphere                          
   RDEP   =    2.650    radius for radial grids                                 
   RDEPT  =    2.038    core radius for aug-charge                              
                                                                                
   Atomic configuration                                                         
    8 entries                                                                   
     n  l   j            E        occ.                                          
     1  0  0.50     -4394.2533   2.0000                                         
     2  0  0.50      -471.0040   2.0000                                         
     2  1  1.50      -384.9788   6.0000                                         
     3  0  0.50       -52.1410   2.0000                                         
     4  0  0.50        -3.5584   1.0000                                         
     3  1  1.50       -30.8841   6.0000                                         
     3  2  2.50        -1.3655   2.0000                                         
     4  3  2.50        -1.3606   0.0000                                         
   Description                                                                  
     l       E           TYP  RCUT    TYP  RCUT                                 
     0    -52.1409870     23  1.800                                             
     0     -3.5583698     23  2.500                                             
     1    -30.8840697     23  2.300                                             
     1      4.0817478     23  2.300                                             
     2     -1.3655397     23  2.500                                             
     2      0.3564476     23  2.500                                             
  local pseudopotential read in
  partial core-charges read in
  partial kinetic energy density read in
  atomic valenz-charges read in
  non local Contribution for L=           0  read in
    real space projection operators read in
  non local Contribution for L=           0  read in
    real space projection operators read in
  non local Contribution for L=           1  read in
    real space projection operators read in
  non local Contribution for L=           1  read in
    real space projection operators read in
  non local Contribution for L=           2  read in
    real space projection operators read in
  non local Contribution for L=           2  read in
    real space projection operators read in
    PAW grid and wavefunctions read in
 
   number of l-projection  operators is LMAX  =           6
   number of lm-projection operators is LMMAX =          18
 

 ----------------------------------------------------------------------------- 
|                                                                             |
|  ADVICE TO THIS USER RUNNING 'VASP/VAMP'   (HEAR YOUR MASTER'S VOICE ...):  |
|                                                                             |
|      You have a (more or less) 'large supercell' and for larger cells       |
|      it might be more efficient to use real space projection opertators     |
|      So try LREAL= Auto  in the INCAR   file.                               |
|      Mind:          For very  accurate calculation you might also keep the  |
|      reciprocal projection scheme          (i.e. LREAL=.FALSE.)             |
|                                                                             |
 ----------------------------------------------------------------------------- 

  PAW_PBE C 08Apr2002                   :
 energy of atom  1       EATOM= -147.1560
 kinetic energy error for atom=    0.0076 (will be added to EATOM!!)
  PAW_PBE N 08Apr2002                   :
 energy of atom  2       EATOM= -264.5486
 kinetic energy error for atom=    0.0138 (will be added to EATOM!!)
  PAW_PBE Fe 06Sep2000                  :
 energy of atom  3       EATOM= -594.3153
 kinetic energy error for atom=    0.0026 (will be added to EATOM!!)
  PAW_PBE Sc_sv 07Sep2000               :
 energy of atom  4       EATOM=-1273.2868
 kinetic energy error for atom=    0.0031 (will be added to EATOM!!)
 
 
 POSCAR:  C  N Fe Sc                             
  positions in cartesian coordinates
  No initial velocities read in
 exchange correlation table for  LEXCH =        8
   RHO(1)=    0.500       N(1)  =     2000
   RHO(2)=  100.500       N(2)  =     4000

 VTST: version 3.2, (02/03/18)

 CHAIN: initializing optimizer
 
 OPT: Using VASP Conjugate-Gradient optimizer
 CHAIN: Read ICHAIN            0
 
 POSCAR:  C  N Fe Sc                             
  positions in cartesian coordinates
  No initial velocities read in
 


--------------------------------------------------------------------------------------------------------


 ion  position               nearest neighbor table
   1  0.222  0.002  0.503-  19 1.43   3 1.43   4 1.44
   2  0.057  0.103  0.502-   3 1.43  36 1.43   7 1.44
   3  0.111  0.002  0.502-   2 1.43  17 1.43   1 1.43
   4  0.278  0.104  0.505-  21 1.42   1 1.44   5 1.44
   5  0.225  0.206  0.505-   7 1.44   4 1.44   8 1.45
   6  0.058  0.303  0.502-  11 1.43   7 1.43  40 1.44
   7  0.114  0.204  0.503-   6 1.43   2 1.44   5 1.44
   8  0.283  0.308  0.506-  25 1.44   5 1.45   9 1.47
   9  0.226  0.409  0.503-  53 1.39  11 1.46   8 1.47
  10  0.054  0.503  0.499-  14 1.42  11 1.44  44 1.44
  11  0.113  0.405  0.502-   6 1.43  10 1.44   9 1.46
  12  0.219  0.604  0.500-  53 1.39  15 1.42  14 1.43
  13  0.052  0.702  0.498-  14 1.42  18 1.43  48 1.44
  14  0.108  0.603  0.499-  10 1.42  13 1.42  12 1.43
  15  0.276  0.704  0.501-  56 1.41  16 1.42  12 1.42
  16  0.220  0.802  0.501-  15 1.42  19 1.43  18 1.43
  17  0.054  0.902  0.500-  18 1.43   3 1.43  52 1.43
  18  0.109  0.802  0.499-  13 1.43  17 1.43  16 1.43
  19  0.276  0.903  0.503-   1 1.43  16 1.43  30 1.43
  20  0.555  0.999  0.507-  32 1.42  23 1.42  22 1.43
  21  0.389  0.100  0.507-   4 1.42  26 1.42  22 1.44
  22  0.444  1.000  0.507-  20 1.43  30 1.43  21 1.44
  23  0.612  0.098  0.508-  24 1.42  20 1.42  34 1.43
  24  0.557  0.196  0.509-  27 1.41  23 1.42  26 1.43
  25  0.395  0.302  0.509-  54 1.38  26 1.44   8 1.44
  26  0.446  0.200  0.508-  21 1.42  24 1.43  25 1.44
  27  0.615  0.294  0.506-  28 1.39  24 1.41  38 1.42
  28  0.561  0.390  0.503-  54 1.37  55 1.38  27 1.39
  29  0.554  0.800  0.501-  57 1.39  32 1.42  31 1.44
  30  0.388  0.899  0.505-  22 1.43  19 1.43  31 1.44
  31  0.441  0.798  0.504-  56 1.42  30 1.44  29 1.44
  32  0.609  0.900  0.504-  20 1.42  29 1.42  50 1.43
  33  0.889  0.001  0.502-  52 1.43  36 1.43  35 1.44
  34  0.723  0.099  0.505-  35 1.42  23 1.43  39 1.43
  35  0.777  0.999  0.503-  34 1.42  50 1.43  33 1.44
  36  0.946  0.101  0.502-  37 1.43   2 1.43  33 1.43
  37  0.891  0.201  0.503-  36 1.43  39 1.43  40 1.43
  38  0.725  0.297  0.503-  39 1.42  27 1.42  43 1.42
  39  0.780  0.199  0.504-  38 1.42  37 1.43  34 1.43
  40  0.946  0.302  0.502-  37 1.43  41 1.44   6 1.44
  41  0.889  0.401  0.500-  44 1.42  43 1.43  40 1.44
  42  0.718  0.496  0.495-  55 1.40  43 1.44  47 1.44
  43  0.777  0.399  0.500-  38 1.42  41 1.43  42 1.44
  44  0.942  0.502  0.498-  41 1.42  10 1.44  45 1.44
  45  0.884  0.600  0.496-  48 1.43  44 1.44  47 1.46
  46  0.715  0.701  0.495-  57 1.39  51 1.43  47 1.45
  47  0.770  0.599  0.494-  42 1.44  46 1.45  45 1.46
  48  0.940  0.700  0.497-  49 1.43  45 1.43  13 1.44
  49  0.886  0.800  0.499-  48 1.43  51 1.43  52 1.44
  50  0.720  0.900  0.502-  35 1.43  51 1.43  32 1.43
  51  0.774  0.799  0.499-  50 1.43  46 1.43  49 1.43
  52  0.943  0.901  0.500-  33 1.43  17 1.43  49 1.44
  53  0.276  0.509  0.502-   9 1.39  12 1.39  58 1.88
  54  0.455  0.395  0.510-  28 1.37  25 1.38  58 1.85
  55  0.609  0.488  0.491-  28 1.38  42 1.40  59 2.20
  56  0.385  0.699  0.504-  15 1.41  31 1.42  58 2.04  59 2.43
  57  0.607  0.704  0.491-  46 1.39  29 1.39  59 2.14
  58  0.418  0.539  0.516-  54 1.85  53 1.88  56 2.04  59 2.11
  59  0.507  0.597  0.435-  58 2.11  57 2.14  55 2.20  56 2.43
 
  LATTYP: Found a triclinic cell.
 ALAT       =    17.7488849801
 B/A-ratio  =     0.7247384844
 C/A-ratio  =     1.1236593184
 COS(alpha) =     0.0017016952
 COS(beta)  =     0.0083041385
 COS(gamma) =     0.7163511892
  
  Lattice vectors:
  
 A1 = (  12.7144348623,  12.3841053036,   0.0000000000)
 A2 = (  12.8633000000,   0.0000000000,   0.0000000000)
 A3 = (   0.0339380985,   0.2025162234, -19.9426428809)


Analysis of symmetry for initial positions (statically):
=====================================================================
 Subroutine PRICEL returns:
 Original cell was already a primitive cell.
 

 Routine SETGRP: Setting up the symmetry group for a 
 triclinic supercell.


 Subroutine GETGRP returns: Found  1 space group operations
 (whereof  1 operations were pure point group operations)
 out of a pool of  2 trial point group operations.


The static configuration has the point symmetry C_1 .


Analysis of symmetry for dynamics (positions and initial velocities):
=====================================================================
 Subroutine PRICEL returns:
 Original cell was already a primitive cell.
 

 Routine SETGRP: Setting up the symmetry group for a 
 triclinic supercell.


 Subroutine GETGRP returns: Found  1 space group operations
 (whereof  1 operations were pure point group operations)
 out of a pool of  2 trial point group operations.


The dynamic configuration has the point symmetry C_1 .


Analysis of structural, dynamic, and magnetic symmetry:
=====================================================================
 Subroutine PRICEL returns:
 Original cell was already a primitive cell.
 

 Routine SETGRP: Setting up the symmetry group for a 
 triclinic supercell.


 Subroutine GETGRP returns: Found  1 space group operations
 (whereof  1 operations were pure point group operations)
 out of a pool of  2 trial point group operations.


The magnetic configuration has the point symmetry C_1 .


 Subroutine INISYM returns: Found  1 space group operations
 (whereof  1 operations are pure point group operations),
 and found     1 'primitive' translations

 
 
 KPOINTS: KPOINTS created by Atomic Simulation Env

Automatic generation of k-mesh.
Space group operators:
 irot       det(A)        alpha          n_x          n_y          n_z        tau_x        tau_y        tau_z
    1     1.000000     0.000000     1.000000     0.000000     0.000000     0.000000     0.000000     0.000000
 
 Subroutine IBZKPT returns following result:
 ===========================================
 
 Found      2 irreducible k-points:
 
 Following reciprocal coordinates:
            Coordinates               Weight
  0.250000  0.250000  0.000000      2.000000
 -0.250000  0.250000  0.000000      2.000000
 
 Following cartesian coordinates:
            Coordinates               Weight
  0.019435  0.020421  0.000240      2.000000
 -0.019435  0.019954  0.000170      2.000000
 
 
 Subroutine IBZKPT_HF returns following result:
 ==============================================
 
 Found      4 k-points in 1st BZ
 the following      4 k-points will be used (e.g. in the exchange kernel)
 Following reciprocal coordinates:   # in IRBZ
  0.250000  0.250000  0.000000    0.25000000   1 t-inv F
 -0.250000  0.250000  0.000000    0.25000000   2 t-inv F
 -0.250000 -0.250000  0.000000    0.25000000   1 t-inv T
  0.250000 -0.250000 -0.000000    0.25000000   2 t-inv T


--------------------------------------------------------------------------------------------------------




 Dimension of arrays:
   k-points           NKPTS =      2   k-points in BZ     NKDIM =      4   number of bands    NBANDS=    160
   number of dos      NEDOS =    301   number of ions     NIONS =     59
   non local maximal  LDIM  =      6   non local SUM 2l+1 LMDIM =     18
   total plane-waves  NPLWV = ******
   max r-space proj   IRMAX =      1   max aug-charges    IRDMAX=  18216
   dimension x,y,z NGX =    96 NGY =   90 NGZ =  150
   dimension x,y,z NGXF=   192 NGYF=  180 NGZF=  300
   support grid    NGXF=   192 NGYF=  180 NGZF=  300
   ions per type =              52   5   1   1
   NGX,Y,Z   is equivalent  to a cutoff of  12.41, 12.08, 12.50 a.u.
   NGXF,Y,Z  is equivalent  to a cutoff of  24.81, 24.16, 25.01 a.u.

 SYSTEM =  unknown system                          
 POSCAR =   C  N Fe Sc                             

 Startparameter for this run:
   NWRITE =      2    write-flag & timer
   PREC   = accura    normal or accurate (medium, high low for compatibility)
   ISTART =      1    job   : 0-new  1-cont  2-samecut
   ICHARG =      0    charge: 1-file 2-atom 10-const
   ISPIN  =      2    spin polarized calculation?
   LNONCOLLINEAR =      F non collinear calculations
   LSORBIT =      F    spin-orbit coupling
   INIWAV =      1    electr: 0-lowe 1-rand  2-diag
   LASPH  =      T    aspherical Exc in radial PAW
   METAGGA=      F    non-selfconsistent MetaGGA calc.

 Electronic Relaxation 1
   ENCUT  =  500.0 eV  36.75 Ry    6.06 a.u.  23.45 22.58 36.36*2*pi/ulx,y,z
   ENINI  =  500.0     initial cutoff
   ENAUG  =  644.9 eV  augmentation charge cutoff
   NELM   =    250;   NELMIN=  2; NELMDL=  0     # of ELM steps 
   EDIFF  = 0.1E-03   stopping-criterion for ELM
   LREAL  =      F    real-space projection
   NLSPLINE    = F    spline interpolate recip. space projectors
   LCOMPAT=      F    compatible to vasp.4.4
   GGA_COMPAT  = T    GGA compatible to vasp.4.4-vasp.4.6
   LMAXPAW     = -100 max onsite density
   LMAXMIX     =    2 max onsite mixed and CHGCAR
   VOSKOWN=      0    Vosko Wilk Nusair interpolation
   ROPT   =    0.00000   0.00000   0.00000   0.00000
 Ionic relaxation
   EDIFFG = -.3E-01   stopping-criterion for IOM
   NSW    =      0    number of steps for IOM
   NBLOCK =      1;   KBLOCK =      1    inner block; outer block 
   IBRION =     -1    ionic relax: 0-MD 1-quasi-New 2-CG
   NFREE  =      1    steps in history (QN), initial steepest desc. (CG)
   ISIF   =      2    stress and relaxation
   IWAVPR =     10    prediction:  0-non 1-charg 2-wave 3-comb
   ISYM   =      3    0-nonsym 1-usesym 2-fastsym
   LCORR  =      T    Harris-Foulkes like correction to forces

   POTIM  = 0.5000    time-step for ionic-motion
   TEIN   =    0.0    initial temperature
   TEBEG  =    0.0;   TEEND  =   0.0 temperature during run
   SMASS  =  -3.00    Nose mass-parameter (am)
   estimated Nose-frequenzy (Omega)   =  0.10E-29 period in steps =****** mass=  -0.378E-26a.u.
   SCALEE = 1.0000    scale energy and forces
   NPACO  =    256;   APACO  = 16.0  distance and # of slots for P.C.
   PSTRESS=    0.0 pullay stress

  Mass of Ions in am
   POMASS =  12.01 14.00 55.85 44.96
  Ionic Valenz
   ZVAL   =   4.00  5.00  8.00 11.00
  Atomic Wigner-Seitz radii
   RWIGS  =  -1.00 -1.00 -1.00 -1.00
  virtual crystal weights 
   VCA    =   1.00  1.00  1.00  1.00
   NELECT =     252.0000    total number of electrons
   NUPDOWN=      -1.0000    fix difference up-down

 DOS related values:
   EMIN   =  10.00;   EMAX   =-10.00  energy-range for DOS
   EFERMI =   0.00
   ISMEAR =     0;   SIGMA  =   0.10  broadening in eV -4-tet -1-fermi 0-gaus

 Electronic relaxation 2 (details)
   IALGO  =     53    algorithm
   LDIAG  =      T    sub-space diagonalisation (order eigenvalues)
   LSUBROT=      F    optimize rotation matrix (better conditioning)
   TURBO    =      0    0=normal 1=particle mesh
   IRESTART =      0    0=no restart 2=restart with 2 vectors
   NREBOOT  =      0    no. of reboots
   NMIN     =      0    reboot dimension
   EREF     =   0.00    reference energy to select bands
   IMIX   =      4    mixing-type and parameters
     AMIX     =   0.40;   BMIX     =  1.00
     AMIX_MAG =   1.60;   BMIX_MAG =  1.00
     AMIN     =   0.10
     WC   =   100.;   INIMIX=   1;  MIXPRE=   1;  MAXMIX= -45

 Intra band minimization:
   WEIMIN = 0.0000     energy-eigenvalue tresh-hold
   EBREAK =  0.16E-06  absolut break condition
   DEPER  =   0.30     relativ break condition  

   TIME   =   0.20     timestep for ELM

  volume/ion in A,a.u.               =      53.85       363.37
  Fermi-wavevector in a.u.,A,eV,Ry     =   0.703410  1.329252  6.731964  0.494785
  Thomas-Fermi vector in A             =   1.788373
 
 Write flags
   LWAVE        =      T    write WAVECAR
   LDOWNSAMPLE  =      F    k-point downsampling of WAVECAR
   LCHARG       =      T    write CHGCAR
   LVTOT        =      F    write LOCPOT, total local potential
   LVHAR        =      F    write LOCPOT, Hartree potential only
   LELF         =      F    write electronic localiz. function (ELF)
   LORBIT       =     11    0 simple, 1 ext, 2 COOP (PROOUT), +10 PAW based schemes


 Dipole corrections
   LMONO  =      F    monopole corrections only (constant potential shift)
   LDIPOL =      T    correct potential (dipole corrections)
   IDIPOL =      3    1-x, 2-y, 3-z, 4-all directions 
   EPSILON=  1.0000000 bulk dielectric constant

 Exchange correlation treatment:
   GGA     =    PE    GGA type
   LEXCH   =     8    internal setting for exchange type
   VOSKOWN=      0    Vosko Wilk Nusair interpolation
   EXXOEP  =     0    0=HF, 1=EXX-LHF (local Hartree Fock) 2=EXX OEP
   LHFCALC =     T    Hartree Fock is set to
   LSYMGRAD=     F    symmetrize gradient (conserves proper symmetry)
   PRECFOCK=normal    Normal, Fast or Accurate (Low or Medium for compatibility)
   LRHFCALC=     F    long range Hartree Fock
   LRSCOR  =     F    long range correlation only (use DFT for short range part)
   LTHOMAS =     F    Thomas Fermi screening in HF
   LMODELHF=     F    short range full HF, long range fraction AEXX
   ENCUT4O =  -1.0   cutoff for four orbital integrals eV
   LMAXFOCK=     4    L truncation for augmentation on plane wave grid
   LMAXFOCKAE=  -1    L truncation for all-electron charge restoration on plane wave grid
   NMAXFOCKAE=   1    number of basis functions for all-electron charge restoration
   LFOCKAEDFT=     F  apply the AE augmentation even for DFT
   NKREDX  =     1    reduce k-point grid by
   NKREDY  =     1    reduce k-point grid by
   NKREDZ  =     1    reduce k-point grid by
   SHIFTRED=     F    shift reduced grid of Gamma
   HFKIDENT=     F    idential grid for each k-point
   ODDONLY =     F    use only odd q-grid points
   EVENONLY=     F    use only even q-grid points
   HFALPHA =   -1.0000 decay constant for conv. correction
   MCALPHA =    0.0000 extent of test-charge in conv. correction in multipole expansion
   AEXX    =    0.2500 exact exchange contribution
   HFSCREEN=    0.2000 screening length (either q_TF or 0.3 A-1)
   HFSCREENC=   0.2000 screening length for correlation (either q_TF or 0.3 A-1)
   HFRCUT  =    0.0000 spherical cutoff for potential kernel
   ALDAX   =    0.7500 LDA exchange part
   AGGAX   =    0.7500 GGA exchange part
   ALDAC   =    1.0000 LDA correlation
   AGGAC   =    1.0000 GGA correlation
   ENCUTFOCK=  -1.0 apply spherical cutoff to Coloumb kernel
   NBANDSGWLOW=     1    first orbital included in HF term
   NBLOCK_FOCK=    64    blocking factor in FOCK_ACC
 Linear response parameters
   LEPSILON=     F    determine dielectric tensor
   LRPA    =     F    only Hartree local field effects (RPA)
   LNABLA  =     F    use nabla operator in PAW spheres
   LVEL    =     F    velocity operator in full k-point grid
   LINTERFAST=   F  fast interpolation
   KINTER  =     0    interpolate to denser k-point grid
   CSHIFT  =0.1000    complex shift for real part using Kramers Kronig
   OMEGAMAX=  -1.0    maximum frequency
   DEG_THRESHOLD= 0.2000000E-02 threshold for treating states as degnerate
   RTIME   =   -0.100 relaxation time in fs
  (WPLASMAI=    0.000 imaginary part of plasma frequency in eV, 0.658/RTIME)
   DFIELD  = 0.0000000 0.0000000 0.0000000 field for delta impulse in time
 
 Orbital magnetization related:
   ORBITALMAG=     F  switch on orbital magnetization
   LCHIMAG   =     F  perturbation theory with respect to B field
   DQ        =  0.001000  dq finite difference perturbation B field
   LLRAUG    =     F  two centre corrections for induced B field



--------------------------------------------------------------------------------------------------------


 Static calculation
 charge density and potential will be updated during run
 spin polarized calculation
 Conjugate gradient for all bands (Freysoldt, et al. PRB 79, 241103 (2009))
 perform sub-space diagonalisation
    before iterative eigenvector-optimisation
 modified Broyden-mixing scheme, WC =      100.0
 initial mixing is a Kerker type mixing with AMIX =  0.4000 and BMIX =      1.0000
 Hartree-type preconditioning will be used
 using additional bands           34
 reciprocal scheme for non local part
 use partial core corrections
 no Harris-corrections to forces 
 use gradient corrections 
 use of overlap-Matrix (Vanderbilt PP)
 Gauss-broadening in eV      SIGMA  =   0.10


--------------------------------------------------------------------------------------------------------


  energy-cutoff  :      500.00
  volume of cell :     3176.87
      direct lattice vectors                 reciprocal lattice vectors
    12.863300000  0.000000000  0.000000000     0.077740549  0.000934493  0.000141787
    -0.148865138 12.384105304  0.000000000     0.000000000  0.080748667  0.000819997
    -0.033938099 -0.202516223 19.942642881     0.000000000  0.000000000  0.050143805

  length of vectors
    12.863300000 12.385000000 19.943700000     0.077746294  0.080752831  0.050143805


 
 old parameters found on file WAVECAR:
  energy-cutoff  :      500.00
  volume of cell :     3176.87
      direct lattice vectors                 reciprocal lattice vectors
    12.863300000  0.000000000  0.000000000     0.077740549  0.000934493  0.000141787
    -0.148865138 12.384105304  0.000000000     0.000000000  0.080748667  0.000819997
    -0.033938099 -0.202516223 19.942642881     0.000000000  0.000000000  0.050143805

  length of vectors

 
 k-points in units of 2pi/SCALE and weight: KPOINTS created by Atomic Simulation Env
   0.01943514  0.02042079  0.00024045       0.500
  -0.01943514  0.01995354  0.00016955       0.500
 
 k-points in reciprocal lattice and weights: KPOINTS created by Atomic Simulation Env
   0.25000000  0.25000000  0.00000000       0.500
  -0.25000000  0.25000000  0.00000000       0.500
 
 position of ions in fractional coordinates (direct lattice) 
   0.22230230  0.00246793  0.50346093
   0.05737088  0.10256072  0.50223573
   0.11097151  0.00200892  0.50183728
   0.27835209  0.10365358  0.50539248
   0.22540307  0.20579138  0.50493546
   0.05806558  0.30345540  0.50234282
   0.11351695  0.20376501  0.50316651
   0.28273386  0.30758243  0.50602846
   0.22595218  0.40931552  0.50336677
   0.05404147  0.50280694  0.49937769
   0.11284214  0.40481507  0.50175446
   0.21916242  0.60418356  0.50012874
   0.05213698  0.70186656  0.49805129
   0.10827543  0.60346053  0.49863126
   0.27583857  0.70354211  0.50060840
   0.22017405  0.80202406  0.50051511
   0.05440302  0.90179691  0.50029846
   0.10866434  0.80164688  0.49935795
   0.27642997  0.90252083  0.50317140
   0.55464242  0.99895997  0.50731577
   0.38896467  0.10041592  0.50707687
   0.44382370  0.99967990  0.50668209
   0.61196713  0.09784782  0.50795580
   0.55703694  0.19619838  0.50887942
   0.39460700  0.30177855  0.50856747
   0.44621689  0.19957465  0.50849512
   0.61491189  0.29381776  0.50595479
   0.56079463  0.39043880  0.50326312
   0.55353305  0.79978950  0.50062084
   0.38787776  0.89927454  0.50473876
   0.44144396  0.79791932  0.50373793
   0.60901424  0.89987982  0.50418574
   0.88907111  0.00056692  0.50177818
   0.72300550  0.09890634  0.50545235
   0.77744847  0.99941039  0.50329090
   0.94585952  0.10096641  0.50213499
   0.89115909  0.20062659  0.50254165
   0.72502800  0.29703074  0.50307082
   0.78002593  0.19871504  0.50387668
   0.94595360  0.30181093  0.50180137
   0.88884075  0.40066865  0.50019643
   0.71780644  0.49562163  0.49511631
   0.77744083  0.39883565  0.50009418
   0.94213798  0.50176363  0.49817316
   0.88367855  0.60032067  0.49603762
   0.71518456  0.70080337  0.49458741
   0.77018728  0.59895379  0.49367144
   0.94031665  0.70025931  0.49729094
   0.88582086  0.80004545  0.49902793
   0.72043220  0.90003299  0.50222250
   0.77426723  0.79948069  0.49928057
   0.94285671  0.90057708  0.50031709
   0.27592687  0.50922188  0.50244092
   0.45482985  0.39508167  0.51016641
   0.60919267  0.48811705  0.49082923
   0.38506999  0.69852168  0.50383011
   0.60735832  0.70410398  0.49063011
   0.41824177  0.53902297  0.51646030
   0.50675816  0.59726524  0.43535548
 
 position of ions in cartesian coordinates  (Angst):
   2.84208726 -0.07139584 10.04034161
   0.70566619  1.16841185 10.01590776
   1.41012930 -0.07675151 10.00796163
   3.54794395  1.18130670 10.07886168
   2.85165556  2.44628451 10.06974747
   0.68469252  3.65629103 10.01804342
   1.41279256  2.42154790 10.03447003
   3.57392850  3.70665423 10.09154492
   2.82847461  4.96706651 10.03846374
   0.60335333  6.12568196  9.95891088
   1.37423082  4.91165900 10.00631006
   2.71223662  7.38098866  9.97388886
   0.54926728  8.59112595  9.93245910
   1.28602246  7.37233778  9.94402510
   3.42647170  8.61135829  9.98345462
   2.69578496  9.83098800  9.98159413
   0.54857703 11.06662936  9.97727345
   1.26149752  9.82655128  9.95851720
   3.40437103 11.07501267 10.03456746
   6.96860417 12.26848581 10.11721719
   4.97121157  1.14087000 10.11245288
   5.54302410 12.27752984 10.10457988
   7.84011158  1.10888836 10.12998116
   7.11885582  2.32668504 10.14840058
   5.01376413  3.63426414 10.14217944
   5.69285469  2.36857495 10.14073661
   7.84888576  3.53620600 10.09007563
   7.13846710  4.73331627 10.03639665
   6.98421078  9.80329359  9.98370261
   4.83838753 11.03449285 10.06582487
   5.54254776  9.77950175 10.04586560
   7.68286105 11.04210066 10.05479623
  11.41927464 -0.09459747 10.00678299
   9.26835883  1.12250427 10.08005562
   9.83469484 12.27487897 10.03695066
  12.13480287  1.14868819 10.01389885
  11.41632514  2.38280796 10.02200864
   9.26496184  3.57657994 10.03256180
   9.98702521  2.35886479 10.04863263
  12.10612565  3.63603537 10.00724544
  11.35680388  4.86062489  9.97523878
   9.14277549  6.03756140  9.87392781
   9.92410961  4.83794551  9.97319967
  12.02740132  6.11300548  9.93488944
  11.26082092  7.33397868  9.89230109
   9.07852302  8.57866079  9.86338019
   9.80123247  7.31753029  9.84511317
  11.97445385  8.57137551  9.91729555
  11.25854454  9.80678589  9.95193579
   9.11610755 11.04439518 10.01564406
   9.82367229  9.79974060  9.95697416
  11.97720435 11.05151913  9.97764508
   3.45647286  6.20450494 10.01999988
   5.77448486  4.78941601 10.17406661
   7.74690667  5.94549201  9.78843207
   4.83218625  8.54853232 10.04770396
   7.69116472  8.62033726  9.78446111
   5.28219996  6.57072558 10.29958333
   6.41489511  7.30842912  8.68213890
 


--------------------------------------------------------------------------------------------------------


 k-point  1 :   0.2500 0.2500 0.0000  plane waves:   80660
 k-point  2 :  -0.2500 0.2500 0.0000  plane waves:   80673

 maximum and minimum number of plane-waves per node :      3402     3333

 maximum number of plane-waves:     80673
 maximum index in each direction: 
   IXMAX=   23   IYMAX=   22   IZMAX=   36
   IXMIN=  -23   IYMIN=  -22   IZMIN=  -36


 parallel 3D FFT for wavefunctions:
    minimum data exchange during FFTs selected (reduces bandwidth)
 parallel 3D FFT for charge:
    minimum data exchange during FFTs selected (reduces bandwidth)


 FFT grid for exact exchange (Hartree Fock) 
  NGX = 72; NGY = 70; NGZ =112

 
 Radii for the augmentation spheres in the non-local exchange
 for species   1 augmentation radius   0.874 (default was   0.699)
       energy cutoff for augmentation   2000.0
 for species   2 augmentation radius   0.886 (default was   0.709)
       energy cutoff for augmentation   2000.0
 for species   3 augmentation radius   1.263 (default was   1.010)
       energy cutoff for augmentation   2000.0
 for species   4 augmentation radius   1.357 (default was   1.085)
       energy cutoff for augmentation   2000.0

 real space projection operators:
  total allocation   :       2635.95 KBytes
  max/ min on nodes  :        165.96         51.26

 Maximum index for augmentation-charges in exchange           40
  SETUP_FOCK is finished

 total amount of memory used by VASP MPI-rank0   208651. kBytes
=======================================================================

   base      :      30000. kBytes
   nonl-proj :       7147. kBytes
   fftplans  :      17540. kBytes
   grid      :      46049. kBytes
   one-center:         93. kBytes
   HF        :         23. kBytes
   nonlr-proj:       2001. kBytes
   wavefun   :     105798. kBytes
 
     INWAV:  cpu time    3.5922: real time    6.1918
 Broyden mixing: mesh for mixing (old mesh)
   NGX = 47   NGY = 45   NGZ = 73
  (NGX  =192   NGY  =180   NGZ  =300)
  gives a total of 154395 points

 charge density for first step will be calculated from the start-wavefunctions


--------------------------------------------------------------------------------------------------------


 Maximum index for augmentation-charges          803 (set IRDMAX)


--------------------------------------------------------------------------------------------------------


 initial charge from wavefunction
 First call to EWALD:  gamma=   0.121
 Maximum number of real-space cells 3x 3x 2
 Maximum number of reciprocal cells 2x 2x 4

    FEWALD:  cpu time    0.0023: real time    0.0023


--------------------------------------- Iteration      1(   1)  ---------------------------------------


    POTLOK:  cpu time    2.0678: real time    2.0868
    SETDIJ:  cpu time    2.0880: real time    2.0921
    TRIAL :  cpu time  362.5275: real time  363.1724
    CORREC:  cpu time    0.0008: real time    0.0008
    CHARGE:  cpu time    1.4131: real time    1.4139
    --------------------------------------------
      LOOP:  cpu time  368.1338: real time  368.8045

 eigenvalue-minimisations  :     0
 total energy-change (2. order) :-0.6169926E+03  (-0.4420666E+00)
 number of electron     252.0000005 magnetization      -0.0000015
 augmentation part       13.3680804 magnetization      -0.0001321

 DIPCOR: dipole corrections for dipol
 direction  3 min pos     1,
 dipolmoment          -0.001221     -0.007287      0.717576 electrons x Angstroem
 Tr[quadrupol]     -7092.761036

 energy correction for charged system         0.000000 eV
 dipol+quadrupol energy correction           -0.014728 eV
 added-field ion interaction          0.115840 eV  (added to PSCEN)


 Free energy of the ion-electron system (eV)
  ---------------------------------------------------
  alpha Z        PSCENC =       110.92874722
  Ewald energy   TEWEN  =     41020.60685433
  -Hartree energ DENC   =    -50280.09693977
  -exchange      EXHF   =       581.01390177
  -V(xc)+E(xc)   XCENC  =       668.85245261
  PAW double counting   =     27456.80775586   -27483.48880709
  entropy T*S    EENTRO =        -0.00322465
  eigenvalues    EBANDS =     -3421.01941033
  atomic energy  EATOM  =     10729.40729876
  ---------------------------------------------------
  free energy    TOTEN  =      -616.99264186 eV

  energy without entropy =     -616.98941722  energy(sigma->0) =     -616.99102954
  exchange ACFDT corr.  =        -0.00169320  see jH, gK, PRB 81, 115126


--------------------------------------------------------------------------------------------------------




--------------------------------------- Iteration      1(   2)  ---------------------------------------


    POTLOK:  cpu time    2.1091: real time    2.1113
    SETDIJ:  cpu time    2.0883: real time    2.0910
    TRIAL :  cpu time  363.0226: real time  364.1573
    CORREC:  cpu time    0.0009: real time    0.0008
    CHARGE:  cpu time    1.4099: real time    1.4108
    --------------------------------------------
      LOOP:  cpu time  368.6315: real time  369.7744

 eigenvalue-minimisations  :     0
 total energy-change (2. order) :-0.3286400E+00  (-0.3306095E+00)
 number of electron     252.0000005 magnetization      -0.0000021
 augmentation part       13.3158176 magnetization      -0.0001476

 DIPCOR: dipole corrections for dipol
 direction  3 min pos     1,
 dipolmoment          -0.001364     -0.008142      0.801804 electrons x Angstroem
 Tr[quadrupol]     -7092.677036

 energy correction for charged system         0.000000 eV
 dipol+quadrupol energy correction           -0.018388 eV
 added-field ion interaction          0.129437 eV  (added to PSCEN)


 Free energy of the ion-electron system (eV)
  ---------------------------------------------------
  alpha Z        PSCENC =       110.93868402
  Ewald energy   TEWEN  =     41020.60685433
  -Hartree energ DENC   =    -50266.06329498
  -exchange      EXHF   =       580.81360066
  -V(xc)+E(xc)   XCENC  =       668.34654391
  PAW double counting   =     27691.98559240   -27718.93868869
  entropy T*S    EENTRO =        -0.00211284
  eigenvalues    EBANDS =     -3434.41464762
  atomic energy  EATOM  =     10729.40729876
  ---------------------------------------------------
  free energy    TOTEN  =      -617.32128185 eV

  energy without entropy =     -617.31916901  energy(sigma->0) =     -617.32022543
  exchange ACFDT corr.  =        -0.00165711  see jH, gK, PRB 81, 115126


--------------------------------------------------------------------------------------------------------




--------------------------------------- Iteration      1(   3)  ---------------------------------------


    POTLOK:  cpu time    2.1264: real time    2.1278
    SETDIJ:  cpu time    2.0894: real time    2.0906
    TRIAL :  cpu time  363.6572: real time  364.2185
    CORREC:  cpu time    0.0008: real time    0.0008
    CHARGE:  cpu time    1.4165: real time    1.4175
    --------------------------------------------
      LOOP:  cpu time  369.2912: real time  369.8586

 eigenvalue-minimisations  :     0
 total energy-change (2. order) :-0.2423302E+00  (-0.1722988E+00)
 number of electron     252.0000005 magnetization      -0.0000017
 augmentation part       13.3110395 magnetization      -0.0001615

 DIPCOR: dipole corrections for dipol
 direction  3 min pos     1,
 dipolmoment          -0.001356     -0.008090      0.796705 electrons x Angstroem
 Tr[quadrupol]     -7092.516790

 energy correction for charged system         0.000000 eV
 dipol+quadrupol energy correction           -0.018155 eV
 added-field ion interaction          0.128614 eV  (added to PSCEN)


 Free energy of the ion-electron system (eV)
  ---------------------------------------------------
  alpha Z        PSCENC =       110.93809397
  Ewald energy   TEWEN  =     41020.60685433
  -Hartree energ DENC   =    -50247.98445338
  -exchange      EXHF   =       580.61739322
  -V(xc)+E(xc)   XCENC  =       667.83775866
  PAW double counting   =     27887.95083446   -27914.30276856
  entropy T*S    EENTRO =        -0.00134762
  eigenvalues    EBANDS =     -3452.63251064
  atomic energy  EATOM  =     10729.40729876
  ---------------------------------------------------
  free energy    TOTEN  =      -617.56361201 eV

  energy without entropy =     -617.56226439  energy(sigma->0) =     -617.56293820
  exchange ACFDT corr.  =        -0.00070165  see jH, gK, PRB 81, 115126


--------------------------------------------------------------------------------------------------------




--------------------------------------- Iteration      1(   4)  ---------------------------------------


    POTLOK:  cpu time    2.1268: real time    2.1444
    SETDIJ:  cpu time    2.0900: real time    2.0910
    TRIAL :  cpu time  361.8761: real time  362.4389
    CORREC:  cpu time    0.0008: real time    0.0008
    CHARGE:  cpu time    1.4154: real time    1.4162
    --------------------------------------------
      LOOP:  cpu time  367.5100: real time  368.0945

 eigenvalue-minimisations  :     0
 total energy-change (2. order) :-0.1267970E+00  (-0.9305299E-01)
 number of electron     252.0000005 magnetization      -0.0000013
 augmentation part       13.3285386 magnetization      -0.0001746

 DIPCOR: dipole corrections for dipol
 direction  3 min pos     1,
 dipolmoment          -0.001332     -0.007946      0.782453 electrons x Angstroem
 Tr[quadrupol]     -7092.467509

 energy correction for charged system         0.000000 eV
 dipol+quadrupol energy correction           -0.017511 eV
 added-field ion interaction          0.126313 eV  (added to PSCEN)


 Free energy of the ion-electron system (eV)
  ---------------------------------------------------
  alpha Z        PSCENC =       110.93643696
  Ewald energy   TEWEN  =     41020.60685433
  -Hartree energ DENC   =    -50241.32366996
  -exchange      EXHF   =       580.65783468
  -V(xc)+E(xc)   XCENC  =       667.64651776
  PAW double counting   =     27969.55930397   -27995.70861881
  entropy T*S    EENTRO =        -0.00086472
  eigenvalues    EBANDS =     -3459.47101910
  atomic energy  EATOM  =     10729.40729876
  ---------------------------------------------------
  free energy    TOTEN  =      -617.69040903 eV

  energy without entropy =     -617.68954431  energy(sigma->0) =     -617.68997667
  exchange ACFDT corr.  =        -0.00061110  see jH, gK, PRB 81, 115126


--------------------------------------------------------------------------------------------------------




--------------------------------------- Iteration      1(   5)  ---------------------------------------


    POTLOK:  cpu time    2.1246: real time    2.1267
    SETDIJ:  cpu time    2.0915: real time    2.0928
    TRIAL :  cpu time  360.6623: real time  361.2153
    CORREC:  cpu time    0.0007: real time    0.0007
    CHARGE:  cpu time    1.4078: real time    1.4116
    --------------------------------------------
      LOOP:  cpu time  366.2878: real time  366.8512

 eigenvalue-minimisations  :     0
 total energy-change (2. order) :-0.6922332E-01  (-0.5147997E-01)
 number of electron     252.0000005 magnetization      -0.0000010
 augmentation part       13.3317739 magnetization      -0.0001878

 DIPCOR: dipole corrections for dipol
 direction  3 min pos     1,
 dipolmoment          -0.001345     -0.008026      0.790389 electrons x Angstroem
 Tr[quadrupol]     -7092.525745

 energy correction for charged system         0.000000 eV
 dipol+quadrupol energy correction           -0.017868 eV
 added-field ion interaction          0.127594 eV  (added to PSCEN)


 Free energy of the ion-electron system (eV)
  ---------------------------------------------------
  alpha Z        PSCENC =       110.93736107
  Ewald energy   TEWEN  =     41020.60685433
  -Hartree energ DENC   =    -50243.83482957
  -exchange      EXHF   =       580.86867582
  -V(xc)+E(xc)   XCENC  =       667.68573006
  PAW double counting   =     28021.56548809   -28047.95056996
  entropy T*S    EENTRO =        -0.00057686
  eigenvalues    EBANDS =     -3457.04477622
  atomic energy  EATOM  =     10729.40729876
  ---------------------------------------------------
  free energy    TOTEN  =      -617.75963235 eV

  energy without entropy =     -617.75905548  energy(sigma->0) =     -617.75934391
  exchange ACFDT corr.  =        -0.00037256  see jH, gK, PRB 81, 115126


--------------------------------------------------------------------------------------------------------




--------------------------------------- Iteration      1(   6)  ---------------------------------------


    POTLOK:  cpu time    2.1186: real time    2.1200
    SETDIJ:  cpu time    2.0912: real time    2.0922
    TRIAL :  cpu time  360.5596: real time  361.1336
    CORREC:  cpu time    0.0008: real time    0.0008
    CHARGE:  cpu time    1.4088: real time    1.4100
    --------------------------------------------
      LOOP:  cpu time  366.1797: real time  366.7600

 eigenvalue-minimisations  :     0
 total energy-change (2. order) :-0.4111192E-01  (-0.3329524E-01)
 number of electron     252.0000005 magnetization      -0.0000007
 augmentation part       13.3266131 magnetization      -0.0002013

 DIPCOR: dipole corrections for dipol
 direction  3 min pos     1,
 dipolmoment          -0.001351     -0.008063      0.794044 electrons x Angstroem
 Tr[quadrupol]     -7092.596266

 energy correction for charged system         0.000000 eV
 dipol+quadrupol energy correction           -0.018034 eV
 added-field ion interaction          0.128184 eV  (added to PSCEN)


 Free energy of the ion-electron system (eV)
  ---------------------------------------------------
  alpha Z        PSCENC =       110.93778541
  Ewald energy   TEWEN  =     41020.60685433
  -Hartree energ DENC   =    -50247.64819384
  -exchange      EXHF   =       581.09424331
  -V(xc)+E(xc)   XCENC  =       667.78167463
  PAW double counting   =     28075.42466738   -28101.92162465
  entropy T*S    EENTRO =        -0.00040279
  eigenvalues    EBANDS =     -3453.48287274
  atomic energy  EATOM  =     10729.40729876
  ---------------------------------------------------
  free energy    TOTEN  =      -617.80074427 eV

  energy without entropy =     -617.80034147  energy(sigma->0) =     -617.80054287
  exchange ACFDT corr.  =        -0.00023841  see jH, gK, PRB 81, 115126


--------------------------------------------------------------------------------------------------------




--------------------------------------- Iteration      1(   7)  ---------------------------------------


    POTLOK:  cpu time    2.1092: real time    2.1125
    SETDIJ:  cpu time    2.1023: real time    2.1044
    TRIAL :  cpu time  361.3229: real time  361.8633
    CORREC:  cpu time    0.0007: real time    0.0007
    CHARGE:  cpu time    1.3992: real time    1.4002
    --------------------------------------------
      LOOP:  cpu time  366.9349: real time  367.4843

 eigenvalue-minimisations  :     0
 total energy-change (2. order) :-0.2674614E-01  (-0.1983614E-01)
 number of electron     252.0000005 magnetization      -0.0000006
 augmentation part       13.3281991 magnetization      -0.0002149

 DIPCOR: dipole corrections for dipol
 direction  3 min pos     1,
 dipolmoment          -0.001348     -0.008043      0.792003 electrons x Angstroem
 Tr[quadrupol]     -7092.644589

 energy correction for charged system         0.000000 eV
 dipol+quadrupol energy correction           -0.017941 eV
 added-field ion interaction          0.127855 eV  (added to PSCEN)


 Free energy of the ion-electron system (eV)
  ---------------------------------------------------
  alpha Z        PSCENC =       110.93754862
  Ewald energy   TEWEN  =     41020.60685433
  -Hartree energ DENC   =    -50250.40967427
  -exchange      EXHF   =       581.27247121
  -V(xc)+E(xc)   XCENC  =       667.86613880
  PAW double counting   =     28123.72681233   -28150.18955356
  entropy T*S    EENTRO =        -0.00029287
  eigenvalues    EBANDS =     -3451.04498382
  atomic energy  EATOM  =     10729.40729876
  ---------------------------------------------------
  free energy    TOTEN  =      -617.82749040 eV

  energy without entropy =     -617.82719754  energy(sigma->0) =     -617.82734397
  exchange ACFDT corr.  =        -0.00016095  see jH, gK, PRB 81, 115126


--------------------------------------------------------------------------------------------------------




--------------------------------------- Iteration      1(   8)  ---------------------------------------


    POTLOK:  cpu time    2.1071: real time    2.1088
    SETDIJ:  cpu time    2.0821: real time    2.0985
    TRIAL :  cpu time  359.1631: real time  359.7248
    CORREC:  cpu time    0.0007: real time    0.0007
    CHARGE:  cpu time    1.3973: real time    1.3983
    --------------------------------------------
      LOOP:  cpu time  364.7513: real time  365.3350

 eigenvalue-minimisations  :     0
 total energy-change (2. order) :-0.1665951E-01  (-0.1314726E-01)
 number of electron     252.0000005 magnetization      -0.0000004
 augmentation part       13.3348310 magnetization      -0.0002285

 DIPCOR: dipole corrections for dipol
 direction  3 min pos     1,
 dipolmoment          -0.001352     -0.008067      0.794353 electrons x Angstroem
 Tr[quadrupol]     -7092.676112

 energy correction for charged system         0.000000 eV
 dipol+quadrupol energy correction           -0.018048 eV
 added-field ion interaction          0.128234 eV  (added to PSCEN)


 Free energy of the ion-electron system (eV)
  ---------------------------------------------------
  alpha Z        PSCENC =       110.93782130
  Ewald energy   TEWEN  =     41020.60685433
  -Hartree energ DENC   =    -50252.64196334
  -exchange      EXHF   =       581.40192879
  -V(xc)+E(xc)   XCENC  =       667.93278970
  PAW double counting   =     28154.92988512   -28181.42041810
  entropy T*S    EENTRO =        -0.00022240
  eigenvalues    EBANDS =     -3448.99805360
  atomic energy  EATOM  =     10729.40729876
  ---------------------------------------------------
  free energy    TOTEN  =      -617.84414991 eV

  energy without entropy =     -617.84392751  energy(sigma->0) =     -617.84403871
  exchange ACFDT corr.  =        -0.00011378  see jH, gK, PRB 81, 115126


--------------------------------------------------------------------------------------------------------




--------------------------------------- Iteration      1(   9)  ---------------------------------------


    POTLOK:  cpu time    2.0988: real time    2.1034
    SETDIJ:  cpu time    2.0864: real time    2.0885
    TRIAL :  cpu time  359.6278: real time  360.1882
    CORREC:  cpu time    0.0007: real time    0.0007
    CHARGE:  cpu time    1.4025: real time    1.4035
    --------------------------------------------
      LOOP:  cpu time  365.2169: real time  365.7878

 eigenvalue-minimisations  :     0
 total energy-change (2. order) :-0.1125798E-01  (-0.8741734E-02)
 number of electron     252.0000005 magnetization      -0.0000004
 augmentation part       13.3395626 magnetization      -0.0002424

 DIPCOR: dipole corrections for dipol
 direction  3 min pos     1,
 dipolmoment          -0.001358     -0.008103      0.797944 electrons x Angstroem
 Tr[quadrupol]     -7092.692163

 energy correction for charged system         0.000000 eV
 dipol+quadrupol energy correction           -0.018211 eV
 added-field ion interaction          0.128814 eV  (added to PSCEN)


 Free energy of the ion-electron system (eV)
  ---------------------------------------------------
  alpha Z        PSCENC =       110.93823744
  Ewald energy   TEWEN  =     41020.60685433
  -Hartree energ DENC   =    -50254.16623677
  -exchange      EXHF   =       581.48584575
  -V(xc)+E(xc)   XCENC  =       667.97748920
  PAW double counting   =     28168.09027955   -28194.65781589
  entropy T*S    EENTRO =        -0.00017718
  eigenvalues    EBANDS =     -3447.53713787
  atomic energy  EATOM  =     10729.40729876
  ---------------------------------------------------
  free energy    TOTEN  =      -617.85540790 eV

  energy without entropy =     -617.85523071  energy(sigma->0) =     -617.85531930
  exchange ACFDT corr.  =        -0.00008443  see jH, gK, PRB 81, 115126


--------------------------------------------------------------------------------------------------------




--------------------------------------- Iteration      1(  10)  ---------------------------------------


    POTLOK:  cpu time    2.0931: real time    2.0956
    SETDIJ:  cpu time    2.0888: real time    2.0915
    TRIAL :  cpu time  358.5762: real time  359.1504
    CORREC:  cpu time    0.0007: real time    0.0007
    CHARGE:  cpu time    1.3978: real time    1.3997
    --------------------------------------------
      LOOP:  cpu time  364.1573: real time  364.7420

 eigenvalue-minimisations  :     0
 total energy-change (2. order) :-0.7615011E-02  (-0.6016832E-02)
 number of electron     252.0000005 magnetization      -0.0000003
 augmentation part       13.3406969 magnetization      -0.0002569

 DIPCOR: dipole corrections for dipol
 direction  3 min pos     1,
 dipolmoment          -0.001356     -0.008094      0.797014 electrons x Angstroem
 Tr[quadrupol]     -7092.693902

 energy correction for charged system         0.000000 eV
 dipol+quadrupol energy correction           -0.018169 eV
 added-field ion interaction          0.128664 eV  (added to PSCEN)


 Free energy of the ion-electron system (eV)
  ---------------------------------------------------
  alpha Z        PSCENC =       110.93812971
  Ewald energy   TEWEN  =     41020.60685433
  -Hartree energ DENC   =    -50254.70751600
  -exchange      EXHF   =       581.53167061
  -V(xc)+E(xc)   XCENC  =       667.99922521
  PAW double counting   =     28169.93599805   -28196.54316082
  entropy T*S    EENTRO =        -0.00014754
  eigenvalues    EBANDS =     -3447.03134558
  atomic energy  EATOM  =     10729.40729876
  ---------------------------------------------------
  free energy    TOTEN  =      -617.86302291 eV

  energy without entropy =     -617.86287536  energy(sigma->0) =     -617.86294913
  exchange ACFDT corr.  =        -0.00006603  see jH, gK, PRB 81, 115126


--------------------------------------------------------------------------------------------------------




--------------------------------------- Iteration      1(  11)  ---------------------------------------


    POTLOK:  cpu time    2.0917: real time    2.0933
    SETDIJ:  cpu time    2.0820: real time    2.0829
    TRIAL :  cpu time  359.8634: real time  360.6897
    CORREC:  cpu time    0.0007: real time    0.0007
    CHARGE:  cpu time    1.3974: real time    1.3984
    --------------------------------------------
      LOOP:  cpu time  365.4359: real time  366.2681

 eigenvalue-minimisations  :     0
 total energy-change (2. order) :-0.5287341E-02  (-0.4142285E-02)
 number of electron     252.0000005 magnetization      -0.0000003
 augmentation part       13.3406930 magnetization      -0.0002720

 DIPCOR: dipole corrections for dipol
 direction  3 min pos     1,
 dipolmoment          -0.001350     -0.008056      0.793318 electrons x Angstroem
 Tr[quadrupol]     -7092.689204

 energy correction for charged system         0.000000 eV
 dipol+quadrupol energy correction           -0.018001 eV
 added-field ion interaction          0.128067 eV  (added to PSCEN)


 Free energy of the ion-electron system (eV)
  ---------------------------------------------------
  alpha Z        PSCENC =       110.93770126
  Ewald energy   TEWEN  =     41020.60685433
  -Hartree energ DENC   =    -50254.61269326
  -exchange      EXHF   =       581.55465565
  -V(xc)+E(xc)   XCENC  =       668.00544021
  PAW double counting   =     28168.05289817   -28194.65739836
  entropy T*S    EENTRO =        -0.00012728
  eigenvalues    EBANDS =     -3447.16291946
  atomic energy  EATOM  =     10729.40729876
  ---------------------------------------------------
  free energy    TOTEN  =      -617.86831025 eV

  energy without entropy =     -617.86818297  energy(sigma->0) =     -617.86824661
  exchange ACFDT corr.  =        -0.00005419  see jH, gK, PRB 81, 115126


--------------------------------------------------------------------------------------------------------




--------------------------------------- Iteration      1(  12)  ---------------------------------------


    POTLOK:  cpu time    2.0903: real time    2.0918
    SETDIJ:  cpu time    2.0763: real time    2.0787
    TRIAL :  cpu time  357.3292: real time  357.8601
    CORREC:  cpu time    0.0007: real time    0.0007
    CHARGE:  cpu time    1.3998: real time    1.4007
    --------------------------------------------
      LOOP:  cpu time  362.8970: real time  363.4361

 eigenvalue-minimisations  :     0
 total energy-change (2. order) :-0.3683417E-02  (-0.2912467E-02)
 number of electron     252.0000005 magnetization      -0.0000003
 augmentation part       13.3413589 magnetization      -0.0002872

 DIPCOR: dipole corrections for dipol
 direction  3 min pos     1,
 dipolmoment          -0.001347     -0.008038      0.791522 electrons x Angstroem
 Tr[quadrupol]     -7092.686216

 energy correction for charged system         0.000000 eV
 dipol+quadrupol energy correction           -0.017919 eV
 added-field ion interaction          0.127777 eV  (added to PSCEN)


 Free energy of the ion-electron system (eV)
  ---------------------------------------------------
  alpha Z        PSCENC =       110.93749271
  Ewald energy   TEWEN  =     41020.60685433
  -Hartree energ DENC   =    -50254.45014434
  -exchange      EXHF   =       581.56970278
  -V(xc)+E(xc)   XCENC  =       668.00632228
  PAW double counting   =     28167.04109286   -28193.64770985
  entropy T*S    EENTRO =        -0.00011292
  eigenvalues    EBANDS =     -3447.34277592
  atomic energy  EATOM  =     10729.40729876
  ---------------------------------------------------
  free energy    TOTEN  =      -617.87199366 eV

  energy without entropy =     -617.87188074  energy(sigma->0) =     -617.87193720
  exchange ACFDT corr.  =        -0.00004622  see jH, gK, PRB 81, 115126


--------------------------------------------------------------------------------------------------------




--------------------------------------- Iteration      1(  13)  ---------------------------------------


    POTLOK:  cpu time    2.0836: real time    2.0865
    SETDIJ:  cpu time    2.0804: real time    2.0814
    TRIAL :  cpu time  358.5904: real time  359.1384
    CORREC:  cpu time    0.0007: real time    0.0007
    CHARGE:  cpu time    1.3989: real time    1.3995
    --------------------------------------------
      LOOP:  cpu time  364.1555: real time  364.7109

 eigenvalue-minimisations  :     0
 total energy-change (2. order) :-0.2615373E-02  (-0.2068690E-02)
 number of electron     252.0000005 magnetization      -0.0000003
 augmentation part       13.3423884 magnetization      -0.0003030

 DIPCOR: dipole corrections for dipol
 direction  3 min pos     1,
 dipolmoment          -0.001348     -0.008042      0.791938 electrons x Angstroem
 Tr[quadrupol]     -7092.686165

 energy correction for charged system         0.000000 eV
 dipol+quadrupol energy correction           -0.017938 eV
 added-field ion interaction          0.127844 eV  (added to PSCEN)


 Free energy of the ion-electron system (eV)
  ---------------------------------------------------
  alpha Z        PSCENC =       110.93754100
  Ewald energy   TEWEN  =     41020.60685433
  -Hartree energ DENC   =    -50254.44501655
  -exchange      EXHF   =       581.58402651
  -V(xc)+E(xc)   XCENC  =       668.00825195
  PAW double counting   =     28167.22221676   -28193.84793493
  entropy T*S    EENTRO =        -0.00010255
  eigenvalues    EBANDS =     -3447.34773396
  atomic energy  EATOM  =     10729.40729876
  ---------------------------------------------------
  free energy    TOTEN  =      -617.87460904 eV

  energy without entropy =     -617.87450649  energy(sigma->0) =     -617.87455776
  exchange ACFDT corr.  =        -0.00004064  see jH, gK, PRB 81, 115126


--------------------------------------------------------------------------------------------------------




--------------------------------------- Iteration      1(  14)  ---------------------------------------


    POTLOK:  cpu time    2.0815: real time    2.0835
    SETDIJ:  cpu time    2.0676: real time    2.0845
    TRIAL :  cpu time  357.5363: real time  358.0579
    CORREC:  cpu time    0.0007: real time    0.0007
    CHARGE:  cpu time    1.3987: real time    1.4150
    --------------------------------------------
      LOOP:  cpu time  363.0856: real time  363.6459

 eigenvalue-minimisations  :     0
 total energy-change (2. order) :-0.1878257E-02  (-0.1499754E-02)
 number of electron     252.0000005 magnetization      -0.0000003
 augmentation part       13.3431029 magnetization      -0.0003197

 DIPCOR: dipole corrections for dipol
 direction  3 min pos     1,
 dipolmoment          -0.001348     -0.008044      0.792131 electrons x Angstroem
 Tr[quadrupol]     -7092.686419

 energy correction for charged system         0.000000 eV
 dipol+quadrupol energy correction           -0.017947 eV
 added-field ion interaction          0.127875 eV  (added to PSCEN)


 Free energy of the ion-electron system (eV)
  ---------------------------------------------------
  alpha Z        PSCENC =       110.93756344
  Ewald energy   TEWEN  =     41020.60685433
  -Hartree energ DENC   =    -50254.50785961
  -exchange      EXHF   =       581.59782836
  -V(xc)+E(xc)   XCENC  =       668.01174640
  PAW double counting   =     28167.62416551   -28194.26698996
  entropy T*S    EENTRO =        -0.00009494
  eigenvalues    EBANDS =     -3447.28699197
  atomic energy  EATOM  =     10729.40729876
  ---------------------------------------------------
  free energy    TOTEN  =      -617.87648729 eV

  energy without entropy =     -617.87639235  energy(sigma->0) =     -617.87643982
  exchange ACFDT corr.  =        -0.00003664  see jH, gK, PRB 81, 115126


--------------------------------------------------------------------------------------------------------




--------------------------------------- Iteration      1(  15)  ---------------------------------------


    POTLOK:  cpu time    2.0749: real time    2.0808
    SETDIJ:  cpu time    2.0822: real time    2.0843
    TRIAL :  cpu time  357.3486: real time  357.8915
    CORREC:  cpu time    0.0007: real time    0.0007
    CHARGE:  cpu time    1.3968: real time    1.3980
    --------------------------------------------
      LOOP:  cpu time  362.9047: real time  363.4601

 eigenvalue-minimisations  :     0
 total energy-change (2. order) :-0.1373656E-02  (-0.1098752E-02)
 number of electron     252.0000005 magnetization      -0.0000003
 augmentation part       13.3435051 magnetization      -0.0003368

 DIPCOR: dipole corrections for dipol
 direction  3 min pos     1,
 dipolmoment          -0.001347     -0.008036      0.791307 electrons x Angstroem
 Tr[quadrupol]     -7092.685934

 energy correction for charged system         0.000000 eV
 dipol+quadrupol energy correction           -0.017910 eV
 added-field ion interaction          0.127742 eV  (added to PSCEN)


 Free energy of the ion-electron system (eV)
  ---------------------------------------------------
  alpha Z        PSCENC =       110.93746771
  Ewald energy   TEWEN  =     41020.60685433
  -Hartree energ DENC   =    -50254.55285121
  -exchange      EXHF   =       581.60974075
  -V(xc)+E(xc)   XCENC  =       668.01501301
  PAW double counting   =     28168.27674176   -28194.92721064
  entropy T*S    EENTRO =        -0.00008925
  eigenvalues    EBANDS =     -3447.25082049
  atomic energy  EATOM  =     10729.40729876
  ---------------------------------------------------
  free energy    TOTEN  =      -617.87786095 eV

  energy without entropy =     -617.87777170  energy(sigma->0) =     -617.87781633
  exchange ACFDT corr.  =        -0.00003374  see jH, gK, PRB 81, 115126


--------------------------------------------------------------------------------------------------------




--------------------------------------- Iteration      1(  16)  ---------------------------------------


    POTLOK:  cpu time    2.0783: real time    2.0795
    SETDIJ:  cpu time    2.0818: real time    2.0832
    TRIAL :  cpu time  356.7689: real time  357.3168
    CORREC:  cpu time    0.0007: real time    0.0007
    CHARGE:  cpu time    1.3983: real time    1.3991
    --------------------------------------------
      LOOP:  cpu time  362.3298: real time  362.8842

 eigenvalue-minimisations  :     0
 total energy-change (2. order) :-0.1013105E-02  (-0.8156069E-03)
 number of electron     252.0000005 magnetization      -0.0000003
 augmentation part       13.3438159 magnetization      -0.0003537

 DIPCOR: dipole corrections for dipol
 direction  3 min pos     1,
 dipolmoment          -0.001345     -0.008026      0.790317 electrons x Angstroem
 Tr[quadrupol]     -7092.685260

 energy correction for charged system         0.000000 eV
 dipol+quadrupol energy correction           -0.017865 eV
 added-field ion interaction          0.127583 eV  (added to PSCEN)


 Free energy of the ion-electron system (eV)
  ---------------------------------------------------
  alpha Z        PSCENC =       110.93735267
  Ewald energy   TEWEN  =     41020.60685433
  -Hartree energ DENC   =    -50254.58568660
  -exchange      EXHF   =       581.61982242
  -V(xc)+E(xc)   XCENC  =       668.01738809
  PAW double counting   =     28169.46712897   -28196.12311479
  entropy T*S    EENTRO =        -0.00008493
  eigenvalues    EBANDS =     -3447.22582865
  atomic energy  EATOM  =     10729.40729876
  ---------------------------------------------------
  free energy    TOTEN  =      -617.87887405 eV

  energy without entropy =     -617.87878912  energy(sigma->0) =     -617.87883159
  exchange ACFDT corr.  =        -0.00003157  see jH, gK, PRB 81, 115126


--------------------------------------------------------------------------------------------------------




--------------------------------------- Iteration      1(  17)  ---------------------------------------


    POTLOK:  cpu time    2.0774: real time    2.0786
    SETDIJ:  cpu time    2.0804: real time    2.0814
    TRIAL :  cpu time  356.5340: real time  357.0157
    CORREC:  cpu time    0.0007: real time    0.0007
    CHARGE:  cpu time    1.3991: real time    1.3998
    --------------------------------------------
      LOOP:  cpu time  362.0927: real time  362.5800

 eigenvalue-minimisations  :     0
 total energy-change (2. order) :-0.7572595E-03  (-0.6156517E-03)
 number of electron     252.0000005 magnetization      -0.0000003
 augmentation part       13.3440620 magnetization      -0.0003708

 DIPCOR: dipole corrections for dipol
 direction  3 min pos     1,
 dipolmoment          -0.001344     -0.008020      0.789730 electrons x Angstroem
 Tr[quadrupol]     -7092.684666

 energy correction for charged system         0.000000 eV
 dipol+quadrupol energy correction           -0.017838 eV
 added-field ion interaction          0.127488 eV  (added to PSCEN)


 Free energy of the ion-electron system (eV)
  ---------------------------------------------------
  alpha Z        PSCENC =       110.93728443
  Ewald energy   TEWEN  =     41020.60685433
  -Hartree energ DENC   =    -50254.61911449
  -exchange      EXHF   =       581.62859680
  -V(xc)+E(xc)   XCENC  =       668.01912789
  PAW double counting   =     28170.95381953   -28197.61776253
  entropy T*S    EENTRO =        -0.00008165
  eigenvalues    EBANDS =     -3447.19565110
  atomic energy  EATOM  =     10729.40729876
  ---------------------------------------------------
  free energy    TOTEN  =      -617.87963131 eV

  energy without entropy =     -617.87954966  energy(sigma->0) =     -617.87959049
  exchange ACFDT corr.  =        -0.00002994  see jH, gK, PRB 81, 115126


--------------------------------------------------------------------------------------------------------




--------------------------------------- Iteration      1(  18)  ---------------------------------------


[...]
  Total     -53.16523   -44.89509    -1.63811    -1.27666     0.15864     0.28337
  in kB     -26.81257   -22.64173    -0.82614    -0.64385     0.08001     0.14291
  external pressure =      -16.76 kB  Pullay stress =        0.00 kB


 VOLUME and BASIS-vectors are now :
 -----------------------------------------------------------------------------
  energy-cutoff  :      500.00
  volume of cell :     3176.87
      direct lattice vectors                 reciprocal lattice vectors
    12.863300000  0.000000000  0.000000000     0.077740549  0.000934493  0.000141787
    -0.148865138 12.384105304  0.000000000     0.000000000  0.080748667  0.000819997
    -0.033938099 -0.202516223 19.942642881     0.000000000  0.000000000  0.050143805

  length of vectors
    12.863300000 12.385000000 19.943700000     0.077746294  0.080752831  0.050143805


 FORCES acting on ions:
    Electron-Ion                     Ewald-Force                    Non-Local-Force
 -----------------------------------------------------------------------------------------------
   0.789E+01 -.837E+01 -.690E+01   -.792E+01 0.840E+01 0.694E+01   0.105E+00 -.149E+00 -.307E-01
   0.421E+00 -.223E+01 -.146E+01   -.252E+00 0.221E+01 0.150E+01   -.149E+00 0.854E-02 -.219E-01
   0.513E+01 -.426E+01 -.545E+00   -.510E+01 0.422E+01 0.598E+00   -.835E-01 0.134E-01 -.337E-01
   0.140E+02 -.910E+00 -.128E+02   -.142E+02 0.875E+00 0.129E+02   0.267E+00 0.456E-01 -.698E-01
   0.902E+01 0.570E+01 -.112E+02   -.903E+01 -.567E+01 0.112E+02   0.619E-01 -.758E-02 -.505E-01
   0.470E+01 0.740E+01 -.513E+01   -.457E+01 -.765E+01 0.519E+01   -.122E+00 0.236E+00 -.761E-01
   0.399E+01 0.566E+01 -.523E+01   -.404E+01 -.571E+01 0.530E+01   0.128E-01 0.481E-01 -.586E-01
   0.251E+02 0.187E+02 -.188E+02   -.251E+02 -.188E+02 0.189E+02   0.588E-01 -.136E-02 -.701E-01
   0.332E+02 0.528E+02 -.952E+01   -.347E+02 -.556E+02 0.954E+01   0.149E+01 0.328E+01 -.339E-01
   0.171E+02 0.955E+01 0.362E+01   -.173E+02 -.960E+01 -.357E+01   0.230E+00 0.482E-01 -.522E-01
   0.133E+02 0.144E+02 -.406E+01   -.137E+02 -.148E+02 0.412E+01   0.227E+00 0.260E+00 -.631E-01
   0.579E+02 -.223E+02 0.257E+01   -.597E+02 0.252E+02 -.249E+01   0.179E+01 -.301E+01 -.576E-01
   0.146E+02 -.640E+01 0.898E+01   -.148E+02 0.663E+01 -.892E+01   0.224E+00 -.204E+00 -.371E-01
   0.248E+02 -.435E+01 0.850E+01   -.252E+02 0.483E+01 -.849E+01   0.426E+00 -.391E+00 0.114E-01
   0.545E+02 -.328E+02 -.294E+01   -.575E+02 0.330E+02 0.286E+01   0.298E+01 -.196E+00 0.108E+00
   0.246E+02 -.219E+02 0.164E+01   -.250E+02 0.221E+02 -.165E+01   0.384E+00 -.297E+00 0.242E-01
   0.497E+01 -.671E+01 0.267E+01   -.487E+01 0.683E+01 -.262E+01   -.795E-01 -.614E-01 -.425E-01
   0.115E+02 -.110E+02 0.528E+01   -.119E+02 0.109E+02 -.523E+01   0.315E+00 0.102E+00 -.469E-01
   0.131E+02 -.190E+02 -.103E+02   -.134E+02 0.195E+02 0.105E+02   0.225E+00 -.405E+00 -.156E+00
   -.133E+01 -.771E+01 -.309E+02   0.108E+01 0.781E+01 0.310E+02   0.229E+00 -.114E+00 -.172E+00
   0.743E+01 0.785E+01 -.195E+02   -.787E+01 -.812E+01 0.194E+02   0.376E+00 0.285E+00 -.103E-01
   0.713E+01 -.111E+02 -.225E+02   -.701E+01 0.111E+02 0.225E+02   -.947E-01 -.736E-01 -.248E-01
   -.891E+01 0.655E+01 -.299E+02   0.906E+01 -.692E+01 0.299E+02   -.946E-01 0.354E+00 -.332E-01
   -.188E+01 0.234E+02 -.372E+02   0.169E+01 -.241E+02 0.375E+02   0.205E+00 0.687E+00 -.322E+00
   0.413E+02 0.522E+02 -.333E+02   -.436E+02 -.553E+02 0.332E+02   0.250E+01 0.320E+01 0.139E-01
   0.109E+02 0.224E+02 -.279E+02   -.112E+02 -.229E+02 0.279E+02   0.276E+00 0.383E+00 -.144E-01
   -.250E+02 0.359E+02 -.304E+02   0.257E+02 -.372E+02 0.305E+02   -.561E+00 0.111E+01 -.191E+00
   -.395E+02 0.578E+02 -.348E+02   0.415E+02 -.616E+02 0.352E+02   -.227E+01 0.377E+01 -.377E+00
   0.175E+01 -.557E+02 -.359E+02   -.316E+01 0.589E+02 0.370E+02   0.128E+01 -.298E+01 -.106E+01
   0.850E+01 -.237E+02 -.205E+02   -.849E+01 0.240E+02 0.207E+02   0.938E-01 -.325E+00 -.131E+00
   -.128E+01 -.571E+02 -.419E+02   0.260E+01 0.599E+02 0.430E+02   -.128E+01 -.271E+01 -.103E+01
   -.118E+02 -.231E+02 -.266E+02   0.116E+02 0.236E+02 0.267E+02   0.757E-01 -.456E+00 -.128E+00
   -.496E+01 -.422E+01 -.256E+01   0.510E+01 0.421E+01 0.258E+01   -.100E+00 -.749E-02 -.101E-01
   -.974E+01 0.223E+01 -.179E+02   0.976E+01 -.233E+01 0.180E+02   -.694E-01 0.122E+00 -.498E-01
   -.121E+02 -.284E+01 -.999E+01   0.122E+02 0.282E+01 0.100E+02   -.167E+00 -.487E-01 -.513E-01
   -.418E+01 0.196E+01 -.234E+01   0.435E+01 -.210E+01 0.239E+01   -.146E+00 0.113E+00 -.320E-01
   -.844E+01 0.354E+01 -.483E+01   0.872E+01 -.357E+01 0.486E+01   -.258E+00 0.545E-01 -.184E-01
   -.241E+02 0.148E+02 -.115E+02   0.247E+02 -.150E+02 0.113E+02   -.606E+00 0.185E+00 0.172E+00
   -.145E+02 0.105E+02 -.112E+02   0.148E+02 -.107E+02 0.112E+02   -.257E+00 0.276E+00 -.604E-01
   -.667E+01 0.381E+01 -.481E+01   0.688E+01 -.387E+01 0.486E+01   -.218E+00 0.265E-01 -.574E-01
   -.105E+02 0.726E+01 -.358E+01   0.110E+02 -.715E+01 0.368E+01   -.396E+00 -.542E-01 -.113E+00
   -.606E+02 -.403E+01 0.221E+01   0.643E+02 0.445E+01 -.172E+01   -.377E+01 -.497E+00 -.511E+00
   -.296E+02 0.526E+01 -.896E+01   0.302E+02 -.531E+01 0.911E+01   -.547E+00 0.839E-01 -.176E+00
   -.439E+01 -.210E+01 0.632E+01   0.423E+01 0.228E+01 -.632E+01   0.124E+00 -.199E+00 0.102E-02
   -.492E+01 0.121E+01 0.122E+02   0.505E+01 -.100E+01 -.121E+02   -.860E-01 -.152E+00 -.901E-01
   -.589E+02 -.213E+01 0.111E+01   0.623E+02 0.218E+01 -.607E+00   -.349E+01 0.196E-01 -.480E+00
   -.323E+02 -.539E+01 0.175E+02   0.326E+02 0.567E+01 -.174E+02   -.213E+00 -.270E+00 -.435E-01
   -.367E+01 -.299E+01 0.886E+01   0.374E+01 0.290E+01 -.884E+01   -.141E+00 0.887E-01 -.968E-02
   -.778E+01 -.725E+01 -.472E+00   0.806E+01 0.706E+01 0.547E+00   -.285E+00 0.140E+00 -.784E-01
   -.152E+02 -.130E+02 -.121E+02   0.154E+02 0.133E+02 0.120E+02   -.207E+00 -.178E+00 0.672E-01
   -.246E+02 -.104E+02 -.904E+01   0.250E+02 0.104E+02 0.913E+01   -.378E+00 -.127E+00 -.113E+00
   -.303E+01 -.209E+01 0.251E+00   0.308E+01 0.213E+01 -.189E+00   -.632E-01 -.920E-02 -.531E-01
   0.335E+02 0.368E+02 -.600E+01   -.147E+02 -.360E+02 0.610E+01   -.179E+02 -.939E+00 -.160E+00
   0.437E+02 0.496E+02 -.924E+02   -.541E+02 -.330E+02 0.953E+02   0.100E+02 -.159E+02 -.281E+01
   -.576E+02 -.225E+02 0.250E+02   0.465E+02 0.415E+02 -.290E+02   0.105E+02 -.179E+02 0.377E+01
   0.123E+02 -.351E+02 -.753E+02   -.334E+01 0.184E+02 0.790E+02   -.827E+01 0.158E+02 -.359E+01
   -.386E+02 -.856E+00 0.120E+01   0.280E+02 -.184E+02 -.320E+01   0.100E+02 0.180E+02 0.183E+01
   0.270E+02 0.367E+01 -.389E+03   -.377E+02 -.830E+01 0.389E+03   0.101E+02 0.488E+01 0.565E+00
   -.159E+02 -.318E+02 0.105E+04   0.204E+02 0.333E+02 -.104E+04   -.439E+01 -.151E+01 -.714E+01
 -----------------------------------------------------------------------------------------------
   -.871E+01 -.479E+01 0.156E+02   0.142E-12 -.171E-12 -.227E-12   0.789E+01 0.448E+01 -.135E+02
 
 
 POSITION                                       TOTAL-FORCE (eV/Angst)
 -----------------------------------------------------------------------------------
      2.84209     -0.07140     10.04034         0.071913     -0.127926      0.002829
      0.70567      1.16841     10.01591         0.009484     -0.015107      0.018697
      1.41013     -0.07675     10.00796        -0.059146     -0.024799      0.019018
      3.54794      1.18131     10.07886         0.073743      0.010556     -0.002360
      2.85166      2.44628     10.06975         0.049792      0.017064      0.002888
      0.68469      3.65629     10.01804         0.011509      0.007004     -0.013079
      1.41279      2.42155     10.03447        -0.034983      0.006095      0.000378
      3.57393      3.70665     10.09154         0.038308     -0.143660      0.001174
      2.82847      4.96707     10.03846         0.042902      0.629830     -0.015444
      0.60335      6.12568      9.95891         0.064545      0.014081     -0.003135
      1.37423      4.91166     10.00631        -0.080390     -0.058906     -0.008558
      2.71224      7.38099      9.97389         0.049160     -0.267468      0.023927
      0.54927      8.59113      9.93246         0.055512      0.011644      0.015525
      1.28602      7.37234      9.94403        -0.006645      0.063025      0.019738
      3.42647      8.61136      9.98345         0.135281     -0.020004      0.029234
      2.69578      9.83099      9.98159        -0.006861     -0.115541      0.021322
      0.54858     11.06663      9.97727         0.016062      0.052898      0.013568
      1.26150      9.82655      9.95852        -0.006790     -0.064489      0.005955
      3.40437     11.07501     10.03457        -0.072936      0.130213     -0.009349
      6.96860     12.26849     10.11722        -0.013649     -0.014706     -0.034656
      4.97121      1.14087     10.11245        -0.045066      0.041003     -0.015001
      5.54302     12.27753     10.10458         0.031277     -0.049100     -0.017807
      7.84011      1.10889     10.12998         0.042433      0.006475     -0.019316
      7.11886      2.32669     10.14840         0.030447      0.088381     -0.042833
      5.01376      3.63426     10.14218         0.288815      0.237210     -0.009005
      5.69285      2.36857     10.14074        -0.015082     -0.041765     -0.020666
      7.84889      3.53621     10.09008         0.063452     -0.061279     -0.011963
      7.13847      4.73332     10.03640        -0.390364      0.194303     -0.036009
      6.98421      9.80329      9.98370        -0.058370      0.024376     -0.035611
      4.83839     11.03449     10.06582         0.112636     -0.002338      0.005013
      5.54255      9.77950     10.04587        -0.023044     -0.019525      0.022116
      7.68286     11.04210     10.05480        -0.064527     -0.010608     -0.033926
     11.41927     -0.09460     10.00678         0.030183     -0.020277      0.013501
      9.26836      1.12250     10.08006        -0.060421      0.029556     -0.003739
      9.83469     12.27488     10.03695        -0.053892     -0.062937      0.003448
     12.13480      1.14869     10.01390         0.011443     -0.008064      0.014326
     11.41633      2.38281     10.02201         0.009100      0.026601      0.008353
      9.26496      3.57658     10.03256        -0.059328     -0.035801      0.007023
      9.98703      2.35886     10.04863        -0.026425      0.014703      0.005280
     12.10613      3.63604     10.00725        -0.021377     -0.031229     -0.011170
     11.35680      4.86062      9.97524         0.032574      0.053676     -0.010845
      9.14278      6.03756      9.87393        -0.216792     -0.106669     -0.045152
      9.92411      4.83795      9.97320        -0.000894      0.031883     -0.029966
     12.02740      6.11301      9.93489        -0.029748     -0.041263      0.006315
     11.26082      7.33398      9.89230         0.043088      0.053507      0.025298
      9.07852      8.57866      9.86338        -0.240317      0.078383     -0.006137
      9.80123      7.31753      9.84511         0.053489     -0.003718      0.041306
     11.97445      8.57138      9.91730        -0.078763      0.000602      0.015705
     11.25854      9.80679      9.95194        -0.017253     -0.046672     -0.006756
      9.11611     11.04440     10.01564         0.000023      0.080702      0.007092
      9.82367      9.79974      9.95697         0.034196     -0.076712     -0.031715
     11.97720     11.05152      9.97765        -0.018289      0.032329      0.007878
      3.45647      6.20450     10.02000        -0.702170     -0.261088     -0.081559
      5.77448      4.78942     10.17407         0.534353     -0.663571     -0.169368
      7.74691      5.94549      9.78843         0.352505     -0.474089      0.134327
      4.83219      8.54853     10.04770        -0.049016      0.453071     -0.238067
      7.69116      8.62034      9.78446         0.280704      0.296065     -0.002017
      5.28220      6.57073     10.29958         0.063317      0.246176     -0.327950
      6.41490      7.30843      8.68214        -0.179709     -0.062102      0.801929
 -----------------------------------------------------------------------------------
    total drift:                               -0.005206     -0.113203     -0.054442


--------------------------------------------------------------------------------------------------------



  FREE ENERGIE OF THE ION-ELECTRON SYSTEM (eV)
  ---------------------------------------------------
  free  energy   TOTEN  =      -617.88214977 eV

  energy  without entropy=     -617.88207833  energy(sigma->0) =     -617.88211405
 


--------------------------------------------------------------------------------------------------------


    POTLOK:  cpu time    4.1546: real time    4.1729


--------------------------------------------------------------------------------------------------------


 stress matrix after NEB project (eV)
    -53.16523     -1.27665      0.28337
     -1.27666    -44.89509      0.15868
      0.28325      0.15864     -1.63811
  FORCES: max atom, RMS     0.868646    0.265759
  FORCE total and by dimension    2.041334    0.801929
  Stress total and by dimension   69.629480   53.165227
 writing wavefunctions
     LOOP+:  cpu time10656.5387: real time10680.4576
    4ORBIT:  cpu time    0.0000: real time    0.0000
 


 total charge     
 
# of ion       s       p       d       tot
------------------------------------------
    1        0.862   1.763   0.000   2.625
    2        0.863   1.753   0.000   2.616
    3        0.863   1.766   0.000   2.630
    4        0.860   1.761   0.000   2.621
    5        0.858   1.727   0.000   2.585
    6        0.861   1.753   0.000   2.614
    7        0.859   1.756   0.000   2.615
    8        0.848   1.739   0.000   2.587
    9        0.847   1.689   0.000   2.537
   10        0.865   1.751   0.000   2.616
   11        0.858   1.751   0.000   2.609
   12        0.860   1.752   0.000   2.612
   13        0.863   1.772   0.000   2.634
   14        0.867   1.782   0.000   2.649
   15        0.858   1.739   0.000   2.597
   16        0.865   1.767   0.000   2.632
   17        0.864   1.759   0.000   2.623
   18        0.864   1.767   0.000   2.631
   19        0.863   1.765   0.000   2.628
   20        0.867   1.784   0.000   2.651
   21        0.866   1.761   0.000   2.627
   22        0.862   1.767   0.000   2.629
   23        0.868   1.785   0.000   2.653
   24        0.871   1.785   0.000   2.656
   25        0.854   1.724   0.000   2.578
   26        0.864   1.776   0.000   2.641
   27        0.875   1.829   0.000   2.704
   28        0.867   1.741   0.000   2.608
   29        0.854   1.737   0.000   2.591
   30        0.863   1.757   0.000   2.619
   31        0.846   1.711   0.000   2.558
   32        0.867   1.777   0.000   2.644
   33        0.864   1.760   0.000   2.624
   34        0.866   1.767   0.000   2.634
   35        0.864   1.774   0.000   2.638
   36        0.863   1.765   0.000   2.628
   37        0.867   1.762   0.000   2.629
   38        0.872   1.782   0.000   2.653
   39        0.866   1.780   0.000   2.646
   40        0.861   1.757   0.000   2.618
   41        0.866   1.760   0.000   2.626
   42        0.856   1.700   0.000   2.556
   43        0.863   1.778   0.000   2.640
   44        0.861   1.764   0.000   2.625
   45        0.857   1.736   0.000   2.593
   46        0.852   1.702   0.000   2.555
   47        0.849   1.749   0.000   2.597
   48        0.862   1.768   0.000   2.630
   49        0.864   1.754   0.000   2.618
   50        0.866   1.760   0.000   2.626
   51        0.862   1.770   0.000   2.632
   52        0.863   1.762   0.000   2.626
   53        1.229   2.647   0.000   3.875
   54        1.235   2.689   0.000   3.924
   55        1.233   2.668   0.000   3.901
   56        1.214   2.640   0.000   3.855
   57        1.230   2.675   0.000   3.905
   58        0.452   0.492   6.716   7.659
   59        2.228   6.104   1.379   9.711
--------------------------------------------------
tot         53.637 111.311   8.095 173.043
 


 magnetization (x)
 
# of ion       s       p       d       tot
------------------------------------------
    1        0.000   0.000   0.000   0.000
    2        0.000   0.000   0.000   0.000
    3       -0.000  -0.000   0.000  -0.000
    4       -0.000  -0.000   0.000  -0.000
    5        0.000   0.000   0.000   0.000
    6        0.000   0.000   0.000   0.000
    7       -0.000  -0.000   0.000  -0.000
    8       -0.000  -0.000   0.000  -0.000
    9        0.000   0.000   0.000   0.000
   10        0.000   0.000   0.000   0.000
   11        0.000  -0.000   0.000   0.000
   12       -0.000  -0.000   0.000  -0.000
   13       -0.000   0.000   0.000   0.000
   14       -0.000  -0.000   0.000  -0.000
   15       -0.000  -0.000   0.000  -0.000
   16        0.000   0.000   0.000   0.000
   17        0.000   0.000   0.000   0.000
   18       -0.000  -0.000   0.000  -0.000
   19       -0.000  -0.000   0.000  -0.000
   20        0.000   0.000   0.000   0.000
   21        0.000   0.000   0.000   0.000
   22       -0.000  -0.000   0.000  -0.000
   23       -0.000  -0.000   0.000  -0.000
   24        0.000   0.000   0.000   0.000
   25       -0.000   0.000   0.000  -0.000
   26       -0.000  -0.000   0.000  -0.000
   27        0.000  -0.000   0.000  -0.000
   28        0.000   0.000   0.000   0.000
   29        0.000   0.000   0.000   0.000
   30       -0.000   0.000   0.000   0.000
   31       -0.000  -0.000   0.000  -0.000
   32       -0.000  -0.000   0.000  -0.000
   33        0.000   0.000   0.000   0.000
   34        0.000   0.000   0.000   0.000
   35       -0.000  -0.000   0.000  -0.000
   36       -0.000  -0.000   0.000  -0.000
   37        0.000   0.000   0.000   0.000
   38        0.000   0.000   0.000   0.000
   39       -0.000  -0.000   0.000  -0.000
   40       -0.000  -0.000   0.000  -0.000
   41        0.000   0.000   0.000   0.000
   42        0.000   0.000   0.000   0.000
   43       -0.000  -0.000   0.000  -0.000
   44       -0.000  -0.000   0.000  -0.000
   45        0.000   0.000   0.000   0.000
   46        0.000   0.000   0.000   0.000
   47       -0.000  -0.000   0.000  -0.000
   48       -0.000  -0.000   0.000  -0.000
   49        0.000   0.000   0.000   0.000
   50        0.000   0.000   0.000   0.000
   51       -0.000  -0.000   0.000  -0.000
   52       -0.000  -0.000   0.000  -0.000
   53       -0.000  -0.000   0.000  -0.000
   54        0.000   0.000   0.000   0.000
   55        0.000  -0.000   0.000  -0.000
   56        0.000   0.000   0.000   0.000
   57       -0.000  -0.000   0.000  -0.000
   58        0.000   0.000  -0.001  -0.001
   59        0.000  -0.000   0.001   0.001
--------------------------------------------------
tot          0.000   0.000  -0.000   0.000
 

 total amount of memory used by VASP MPI-rank0   226003. kBytes
=======================================================================

   base      :      30000. kBytes
   nonl-proj :       7147. kBytes
   fftplans  :      17540. kBytes
   grid      :      46049. kBytes
   one-center:         93. kBytes
   HF        :         23. kBytes
   nonlr-proj:      19353. kBytes
   wavefun   :     105798. kBytes
 
  
  
 General timing and accounting informations for this job:
 ========================================================
  
                  Total CPU time used (sec):    10706.842
                            User time (sec):    10686.938
                          System time (sec):       19.904
                         Elapsed time (sec):    10737.290
  
                   Maximum memory used (kb):      489512.
                   Average memory used (kb):           0.
  
                          Minor page faults:       657611
                          Major page faults:          218
                 Voluntary context switches:       150683
