 vasp.5.4.4.18Apr17-6-g9f103f2a35 (build Feb 25 2019 10:51:38) complex          
  
 executed on             LinuxIFC date 2021.03.10  00:07:10
 running on   80 total cores
 distrk:  each k-point on   40 cores,    2 groups
 distr:  one band on NCORES_PER_BAND=  40 cores,    1 groups


--------------------------------------------------------------------------------------------------------


 INCAR:
 POTCAR:    PAW_PBE C 08Apr2002                   
 POTCAR:    PAW_PBE N 08Apr2002                   
 POTCAR:    PAW_PBE Co 02Aug2007                  
 POTCAR:    PAW_PBE Fe 06Sep2000                  

 ----------------------------------------------------------------------------- 
|                                                                             |
|           W    W    AA    RRRRR   N    N  II  N    N   GGGG   !!!           |
|           W    W   A  A   R    R  NN   N  II  NN   N  G    G  !!!           |
|           W    W  A    A  R    R  N N  N  II  N N  N  G       !!!           |
|           W WW W  AAAAAA  RRRRR   N  N N  II  N  N N  G  GGG   !            |
|           WW  WW  A    A  R   R   N   NN  II  N   NN  G    G                |
|           W    W  A    A  R    R  N    N  II  N    N   GGGG   !!!           |
|                                                                             |
|      For optimal performance we recommend to set                            |
|        NCORE= 4 - approx SQRT( number of cores)                             |
|      NCORE specifies how many cores store one orbital (NPAR=cpu/NCORE).     |
|      This setting can  greatly improve the performance of VASP for DFT.     |
|      The default,   NCORE=1            might be grossly inefficient         |
|      on modern multi-core architectures or massively parallel machines.     |
|      Do your own testing !!!!                                               |
|      Unfortunately you need to use the default for GW and RPA calculations. |
|      (for HF NCORE is supported but not extensively tested yet)             |
|                                                                             |
 ----------------------------------------------------------------------------- 


 ----------------------------------------------------------------------------- 
|                                                                             |
|           W    W    AA    RRRRR   N    N  II  N    N   GGGG   !!!           |
|           W    W   A  A   R    R  NN   N  II  NN   N  G    G  !!!           |
|           W    W  A    A  R    R  N N  N  II  N N  N  G       !!!           |
|           W WW W  AAAAAA  RRRRR   N  N N  II  N  N N  G  GGG   !            |
|           WW  WW  A    A  R   R   N   NN  II  N   NN  G    G                |
|           W    W  A    A  R    R  N    N  II  N    N   GGGG   !!!           |
|                                                                             |
|      You have enabled k-point parallelism (KPAR>1).                         |
|      This developmental code was originally  written by Paul Kent at ORNL,  |
|      and carefully double checked in Vienna.                                |
|      GW as well as linear response parallelism added by Martijn Marsman     |
|      and Georg Kresse.                                                      |
|      Carefully verify results versus KPAR=1.                                |
|      Report problems to Paul Kent and Vienna.                               |
|                                                                             |
 ----------------------------------------------------------------------------- 

 POTCAR:    PAW_PBE C 08Apr2002                   
   VRHFIN =C: s2p2                                                              
   LEXCH  = PE                                                                  
   EATOM  =   147.1560 eV,   10.8157 Ry                                         
                                                                                
   TITEL  = PAW_PBE C 08Apr2002                                                 
   LULTRA =        F    use ultrasoft PP ?                                      
   IUNSCR =        1    unscreen: 0-lin 1-nonlin 2-no                           
   RPACOR =    1.200    partial core radius                                     
   POMASS =   12.011; ZVAL   =    4.000    mass and valenz                      
   RCORE  =    1.500    outmost cutoff radius                                   
   RWIGS  =    1.630; RWIGS  =    0.863    wigner-seitz radius (au A)           
   ENMAX  =  400.000; ENMIN  =  300.000 eV                                      
   ICORE  =        2    local potential                                         
   LCOR   =        T    correct aug charges                                     
   LPAW   =        T    paw PP                                                  
   EAUG   =  644.873                                                            
   DEXC   =    0.000                                                            
   RMAX   =    1.529    core radius for proj-oper                               
   RAUG   =    1.300    factor for augmentation sphere                          
   RDEP   =    1.501    radius for radial grids                                 
   RDEPT  =    1.300    core radius for aug-charge                              
                                                                                
   Atomic configuration                                                         
    4 entries                                                                   
     n  l   j            E        occ.                                          
     1  0  0.50      -273.3789   2.0000                                         
     2  0  0.50       -13.7508   2.0000                                         
     2  1  0.50        -5.2854   2.0000                                         
     3  2  1.50        -5.4423   0.0000                                         
   Description                                                                  
     l       E           TYP  RCUT    TYP  RCUT                                 
     0    -13.7508458     23  1.200                                             
     0     -8.2022199     23  1.200                                             
     1     -5.2854383     23  1.500                                             
     1     34.0145650     23  1.500                                             
     2     -5.4423304      7  1.500                                             
  local pseudopotential read in
  partial core-charges read in
  partial kinetic energy density read in
  atomic valenz-charges read in
  non local Contribution for L=           0  read in
    real space projection operators read in
  non local Contribution for L=           0  read in
    real space projection operators read in
  non local Contribution for L=           1  read in
    real space projection operators read in
  non local Contribution for L=           1  read in
    real space projection operators read in
    PAW grid and wavefunctions read in
 
   number of l-projection  operators is LMAX  =           4
   number of lm-projection operators is LMMAX =           8
 
 POTCAR:    PAW_PBE N 08Apr2002                   
   VRHFIN =N: s2p3                                                              
   LEXCH  = PE                                                                  
   EATOM  =   264.5486 eV,   19.4438 Ry                                         
                                                                                
   TITEL  = PAW_PBE N 08Apr2002                                                 
   LULTRA =        F    use ultrasoft PP ?                                      
   IUNSCR =        1    unscreen: 0-lin 1-nonlin 2-no                           
   RPACOR =    1.200    partial core radius                                     
   POMASS =   14.001; ZVAL   =    5.000    mass and valenz                      
   RCORE  =    1.500    outmost cutoff radius                                   
   RWIGS  =    1.400; RWIGS  =    0.741    wigner-seitz radius (au A)           
   ENMAX  =  400.000; ENMIN  =  300.000 eV                                      
   ICORE  =        2    local potential                                         
   LCOR   =        T    correct aug charges                                     
   LPAW   =        T    paw PP                                                  
   EAUG   =  627.112                                                            
   DEXC   =    0.000                                                            
   RMAX   =    1.529    core radius for proj-oper                               
   RAUG   =    1.300    factor for augmentation sphere                          
   RDEP   =    1.514    radius for radial grids                                 
   RDEPT  =    1.338    core radius for aug-charge                              
                                                                                
   Atomic configuration                                                         
    4 entries                                                                   
     n  l   j            E        occ.                                          
     1  0  0.50      -384.7179   2.0000                                         
     2  0  0.50       -18.5828   2.0000                                         
     2  1  0.50        -7.0898   3.0000                                         
     3  2  1.50        -6.8029   0.0000                                         
   Description                                                                  
     l       E           TYP  RCUT    TYP  RCUT                                 
     0    -18.5828119     23  1.200                                             
     0    -13.5018863     23  1.200                                             
     1     -7.0897853     23  1.500                                             
     1      9.5240782     23  1.500                                             
     2     -6.8029130      7  1.500                                             
  local pseudopotential read in
  partial core-charges read in
  partial kinetic energy density read in
  atomic valenz-charges read in
  non local Contribution for L=           0  read in
    real space projection operators read in
  non local Contribution for L=           0  read in
    real space projection operators read in
  non local Contribution for L=           1  read in
    real space projection operators read in
  non local Contribution for L=           1  read in
    real space projection operators read in
    PAW grid and wavefunctions read in
 
   number of l-projection  operators is LMAX  =           4
   number of lm-projection operators is LMMAX =           8
 
 POTCAR:    PAW_PBE Co 02Aug2007                  
   VRHFIN =Co: d8 s1                                                            
   LEXCH  = PE                                                                  
   EATOM  =   813.3670 eV,   59.7808 Ry                                         
                                                                                
   TITEL  = PAW_PBE Co 02Aug2007                                                
   LULTRA =        F    use ultrasoft PP ?                                      
   IUNSCR =        1    unscreen: 0-lin 1-nonlin 2-no                           
   RPACOR =    2.000    partial core radius                                     
   POMASS =   58.933; ZVAL   =    9.000    mass and valenz                      
   RCORE  =    2.300    outmost cutoff radius                                   
   RWIGS  =    2.460; RWIGS  =    1.302    wigner-seitz radius (au A)           
   ENMAX  =  267.968; ENMIN  =  200.976 eV                                      
   RCLOC  =    1.203    cutoff for local pot                                    
   LCOR   =        T    correct aug charges                                     
   LPAW   =        T    paw PP                                                  
   EAUG   =  477.818                                                            
   DEXC   =    0.000                                                            
   RMAX   =    2.360    core radius for proj-oper                               
   RAUG   =    1.300    factor for augmentation sphere                          
   RDEP   =    2.393    radius for radial grids                                 
   RDEPT  =    1.864    core radius for aug-charge                              
                                                                                
   Atomic configuration                                                         
    9 entries                                                                   
     n  l   j            E        occ.                                          
     1  0  0.50     -7587.6674   2.0000                                         
     2  0  0.50      -893.6084   2.0000                                         
     2  1  1.50      -764.5805   6.0000                                         
     3  0  0.50       -97.5973   2.0000                                         
     3  1  1.50       -60.9648   6.0000                                         
     3  2  2.50        -4.2382   8.0000                                         
     4  0  0.50        -4.3746   1.0000                                         
     4  1  1.50        -4.0817   0.0000                                         
     4  3  2.50        -1.3606   0.0000                                         
   Description                                                                  
     l       E           TYP  RCUT    TYP  RCUT                                 
     2     -4.2382362     23  2.300                                             
     2     -5.5988188     23  2.300                                             
     0     -4.3745797     23  2.300                                             
     0      5.7660125     23  2.300                                             
     1     -2.7211652     23  2.300                                             
     1     16.9860234     23  2.300                                             
  local pseudopotential read in
  partial core-charges read in
  partial kinetic energy density read in
  atomic valenz-charges read in
  non local Contribution for L=           2  read in
    real space projection operators read in
  non local Contribution for L=           2  read in
    real space projection operators read in
  non local Contribution for L=           0  read in
    real space projection operators read in
  non local Contribution for L=           0  read in
    real space projection operators read in
  non local Contribution for L=           1  read in
    real space projection operators read in
  non local Contribution for L=           1  read in
    real space projection operators read in
    PAW grid and wavefunctions read in
 
   number of l-projection  operators is LMAX  =           6
   number of lm-projection operators is LMMAX =          18
 
 POTCAR:    PAW_PBE Fe 06Sep2000                  
   VRHFIN =Fe:  d7 s1                                                           
   LEXCH  = PE                                                                  
   EATOM  =   594.3153 eV,   43.6809 Ry                                         
                                                                                
   TITEL  = PAW_PBE Fe 06Sep2000                                                
   LULTRA =        F    use ultrasoft PP ?                                      
   IUNSCR =        1    unscreen: 0-lin 1-nonlin 2-no                           
   RPACOR =    2.000    partial core radius                                     
   POMASS =   55.847; ZVAL   =    8.000    mass and valenz                      
   RCORE  =    2.300    outmost cutoff radius                                   
   RWIGS  =    2.460; RWIGS  =    1.302    wigner-seitz radius (au A)           
   ENMAX  =  267.882; ENMIN  =  200.911 eV                                      
   RCLOC  =    1.701    cutoff for local pot                                    
   LCOR   =        T    correct aug charges                                     
   LPAW   =        T    paw PP                                                  
   EAUG   =  511.368                                                            
   DEXC   =    0.000                                                            
   RMAX   =    2.356    core radius for proj-oper                               
   RAUG   =    1.300    factor for augmentation sphere                          
   RDEP   =    2.442    radius for radial grids                                 
   RDEPT  =    1.890    core radius for aug-charge                              
                                                                                
   Atomic configuration                                                         
    9 entries                                                                   
     n  l   j            E        occ.                                          
     1  0  0.50     -6993.8440   2.0000                                         
     2  0  0.50      -814.6047   2.0000                                         
     2  1  1.50      -693.3689   6.0000                                         
     3  0  0.50       -89.4732   2.0000                                         
     3  1  1.50       -55.6373   6.0000                                         
     3  2  2.50        -3.8151   7.0000                                         
     4  0  0.50        -4.2551   1.0000                                         
     4  1  1.50        -3.4015   0.0000                                         
     4  3  2.50        -1.3606   0.0000                                         
   Description                                                                  
     l       E           TYP  RCUT    TYP  RCUT                                 
     2     -3.8151135     23  2.300                                             
     2     -5.1756961     23  2.300                                             
     0     -4.2550963     23  2.300                                             
     0      7.2035603     23  2.300                                             
     1     -2.7211652     23  2.300                                             
     1     18.4316424     23  2.300                                             
  local pseudopotential read in
  partial core-charges read in
  partial kinetic energy density read in
  atomic valenz-charges read in
  non local Contribution for L=           2  read in
    real space projection operators read in
  non local Contribution for L=           2  read in
    real space projection operators read in
  non local Contribution for L=           0  read in
    real space projection operators read in
  non local Contribution for L=           0  read in
    real space projection operators read in
  non local Contribution for L=           1  read in
    real space projection operators read in
  non local Contribution for L=           1  read in
    real space projection operators read in
    PAW grid and wavefunctions read in
 
   number of l-projection  operators is LMAX  =           6
   number of lm-projection operators is LMMAX =          18
 

 ----------------------------------------------------------------------------- 
|                                                                             |
|  ADVICE TO THIS USER RUNNING 'VASP/VAMP'   (HEAR YOUR MASTER'S VOICE ...):  |
|                                                                             |
|      You have a (more or less) 'large supercell' and for larger cells       |
|      it might be more efficient to use real space projection opertators     |
|      So try LREAL= Auto  in the INCAR   file.                               |
|      Mind:          For very  accurate calculation you might also keep the  |
|      reciprocal projection scheme          (i.e. LREAL=.FALSE.)             |
|                                                                             |
 ----------------------------------------------------------------------------- 

  PAW_PBE C 08Apr2002                   :
 energy of atom  1       EATOM= -147.1560
 kinetic energy error for atom=    0.0076 (will be added to EATOM!!)
  PAW_PBE N 08Apr2002                   :
 energy of atom  2       EATOM= -264.5486
 kinetic energy error for atom=    0.0138 (will be added to EATOM!!)
  PAW_PBE Co 02Aug2007                  :
 energy of atom  3       EATOM= -813.3670
 kinetic energy error for atom=    0.0028 (will be added to EATOM!!)
  PAW_PBE Fe 06Sep2000                  :
 energy of atom  4       EATOM= -594.3153
 kinetic energy error for atom=    0.0026 (will be added to EATOM!!)
 
 
 POSCAR:  C  N Co Fe                             
  positions in cartesian coordinates
  No initial velocities read in
 exchange correlation table for  LEXCH =        8
   RHO(1)=    0.500       N(1)  =     2000
   RHO(2)=  100.500       N(2)  =     4000

 VTST: version 3.2, (02/03/18)

 CHAIN: initializing optimizer
 
 OPT: Using VASP Conjugate-Gradient optimizer
 CHAIN: Read ICHAIN            0
 
 POSCAR:  C  N Co Fe                             
  positions in cartesian coordinates
  No initial velocities read in
 


--------------------------------------------------------------------------------------------------------


 ion  position               nearest neighbor table
   1  0.223  0.002  0.499-  19 1.42   3 1.42   4 1.44
   2  0.057  0.102  0.498-  36 1.43   3 1.43   7 1.44
   3  0.111  0.002  0.498-   1 1.42   2 1.43  17 1.43
   4  0.278  0.103  0.501-  21 1.42   5 1.44   1 1.44
   5  0.225  0.205  0.504-   7 1.44   4 1.44   8 1.45
   6  0.057  0.303  0.499-   7 1.43  40 1.43  11 1.43
   7  0.113  0.203  0.501-   6 1.43   5 1.44   2 1.44
   8  0.282  0.306  0.510-  25 1.45   5 1.45   9 1.46
   9  0.222  0.407  0.509-  53 1.38  11 1.43   8 1.46
  10  0.054  0.503  0.500-  14 1.43  44 1.44  11 1.44
  11  0.111  0.404  0.502-   6 1.43   9 1.43  10 1.44
  12  0.222  0.602  0.504-  53 1.38  14 1.43  15 1.45
  13  0.054  0.702  0.497-  14 1.42  18 1.43  48 1.44
  14  0.110  0.603  0.500-  13 1.42  10 1.43  12 1.43
  15  0.282  0.702  0.500-  56 1.41  16 1.44  12 1.45
  16  0.223  0.801  0.498-  19 1.44  18 1.44  15 1.44
  17  0.056  0.901  0.497-  18 1.43  52 1.43   3 1.43
  18  0.111  0.801  0.497-  13 1.43  17 1.43  16 1.44
  19  0.277  0.902  0.498-   1 1.42  30 1.43  16 1.44
  20  0.555  0.001  0.496-  32 1.41  23 1.42  22 1.42
  21  0.389  0.102  0.500-   4 1.42  26 1.42  22 1.43
  22  0.444  0.002  0.497-  20 1.42  21 1.43  30 1.43
  23  0.612  0.099  0.496-  24 1.41  20 1.42  34 1.42
  24  0.557  0.198  0.500-  23 1.41  27 1.41  26 1.43
  25  0.395  0.301  0.512-  54 1.38  26 1.42   8 1.45
  26  0.446  0.200  0.503-  21 1.42  25 1.42  24 1.43
  27  0.615  0.295  0.500-  28 1.39  24 1.41  38 1.41
  28  0.560  0.391  0.509-  54 1.36  55 1.38  27 1.39
  29  0.555  0.804  0.496-  57 1.38  32 1.41  31 1.43
  30  0.389  0.903  0.497-  31 1.41  22 1.43  19 1.43
  31  0.443  0.803  0.497-  56 1.40  30 1.41  29 1.43
  32  0.610  0.903  0.496-  29 1.41  20 1.41  50 1.43
  33  0.890  0.001  0.496-  52 1.42  35 1.43  36 1.44
  34  0.724  0.100  0.495-  35 1.42  23 1.42  39 1.43
  35  0.779  0.000  0.495-  34 1.42  50 1.43  33 1.43
  36  0.946  0.101  0.496-   2 1.43  37 1.43  33 1.44
  37  0.891  0.201  0.496-  39 1.42  36 1.43  40 1.43
  38  0.725  0.298  0.497-  27 1.41  39 1.41  43 1.43
  39  0.780  0.199  0.495-  38 1.41  37 1.42  34 1.43
  40  0.945  0.302  0.497-  37 1.43   6 1.43  41 1.43
  41  0.888  0.402  0.498-  43 1.43  44 1.43  40 1.43
  42  0.717  0.497  0.501-  55 1.39  43 1.44  47 1.45
  43  0.777  0.400  0.498-  38 1.43  41 1.43  42 1.44
  44  0.942  0.502  0.498-  41 1.43  10 1.44  45 1.44
  45  0.883  0.601  0.497-  48 1.44  44 1.44  47 1.46
  46  0.715  0.702  0.497-  57 1.39  51 1.44  47 1.45
  47  0.770  0.600  0.498-  42 1.45  46 1.45  45 1.46
  48  0.941  0.700  0.497-  49 1.42  45 1.44  13 1.44
  49  0.887  0.801  0.496-  48 1.42  51 1.43  52 1.44
  50  0.722  0.902  0.496-  51 1.42  35 1.43  32 1.43
  51  0.775  0.801  0.496-  50 1.42  49 1.43  46 1.44
  52  0.944  0.900  0.496-  33 1.42  17 1.43  49 1.44
  53  0.272  0.505  0.516-  12 1.38   9 1.38  58 1.88
  54  0.456  0.391  0.522-  28 1.36  25 1.38  58 1.88
  55  0.609  0.490  0.507-  28 1.38  42 1.39  59 1.90
  56  0.392  0.704  0.500-  31 1.40  15 1.41  59 1.94
  57  0.607  0.707  0.497-  29 1.38  46 1.39  59 1.90
  58  0.397  0.512  0.565-  54 1.88  53 1.88  59 2.11
  59  0.504  0.598  0.504-  57 1.90  55 1.90  56 1.94  58 2.11
 
  LATTYP: Found a simple orthorhombic cell.
 ALAT       =    12.4000000000
 B/A-ratio  =     1.0330645161
 C/A-ratio  =     1.6129032258
  
  Lattice vectors:
  
 A1 = (   0.0000000000, -12.4000000000,   0.0000000000)
 A2 = ( -12.8100000000,   0.0000000000,   0.0000000000)
 A3 = (   0.0000000000,   0.0000000000, -20.0000000000)


Analysis of symmetry for initial positions (statically):
=====================================================================
 Subroutine PRICEL returns:
 Original cell was already a primitive cell.
 

 Routine SETGRP: Setting up the symmetry group for a 
 simple orthorhombic supercell.


 Subroutine GETGRP returns: Found  1 space group operations
 (whereof  1 operations were pure point group operations)
 out of a pool of  8 trial point group operations.


The static configuration has the point symmetry C_1 .


Analysis of symmetry for dynamics (positions and initial velocities):
=====================================================================
 Subroutine PRICEL returns:
 Original cell was already a primitive cell.
 

 Routine SETGRP: Setting up the symmetry group for a 
 simple orthorhombic supercell.


 Subroutine GETGRP returns: Found  1 space group operations
 (whereof  1 operations were pure point group operations)
 out of a pool of  8 trial point group operations.


The dynamic configuration has the point symmetry C_1 .


Analysis of structural, dynamic, and magnetic symmetry:
=====================================================================
 Subroutine PRICEL returns:
 Original cell was already a primitive cell.
 

 Routine SETGRP: Setting up the symmetry group for a 
 simple orthorhombic supercell.


 Subroutine GETGRP returns: Found  1 space group operations
 (whereof  1 operations were pure point group operations)
 out of a pool of  8 trial point group operations.


The magnetic configuration has the point symmetry C_1 .


 Subroutine INISYM returns: Found  1 space group operations
 (whereof  1 operations are pure point group operations),
 and found     1 'primitive' translations

 
 
 KPOINTS: KPOINTS created by Atomic Simulation Env

Automatic generation of k-mesh.
Space group operators:
 irot       det(A)        alpha          n_x          n_y          n_z        tau_x        tau_y        tau_z
    1     1.000000     0.000000     1.000000     0.000000     0.000000     0.000000     0.000000     0.000000
 
 Subroutine IBZKPT returns following result:
 ===========================================
 
 Found      2 irreducible k-points:
 
 Following reciprocal coordinates:
            Coordinates               Weight
  0.250000  0.250000  0.000000      2.000000
 -0.250000  0.250000  0.000000      2.000000
 
 Following cartesian coordinates:
            Coordinates               Weight
  0.019516  0.020161  0.000000      2.000000
 -0.019516  0.020161  0.000000      2.000000
 
 
 Subroutine IBZKPT_HF returns following result:
 ==============================================
 
 Found      4 k-points in 1st BZ
 the following      4 k-points will be used (e.g. in the exchange kernel)
 Following reciprocal coordinates:   # in IRBZ
  0.250000  0.250000  0.000000    0.25000000   1 t-inv F
 -0.250000  0.250000  0.000000    0.25000000   2 t-inv F
 -0.250000 -0.250000  0.000000    0.25000000   1 t-inv T
  0.250000 -0.250000  0.000000    0.25000000   2 t-inv T


--------------------------------------------------------------------------------------------------------




 Dimension of arrays:
   k-points           NKPTS =      2   k-points in BZ     NKDIM =      4   number of bands    NBANDS=    157
   number of dos      NEDOS =    301   number of ions     NIONS =     59
   non local maximal  LDIM  =      6   non local SUM 2l+1 LMDIM =     18
   total plane-waves  NPLWV = ******
   max r-space proj   IRMAX =      1   max aug-charges    IRDMAX=  16287
   dimension x,y,z NGX =    96 NGY =   90 NGZ =  150
   dimension x,y,z NGXF=   192 NGYF=  180 NGZF=  300
   support grid    NGXF=   192 NGYF=  180 NGZF=  300
   ions per type =              52   5   1   1
   NGX,Y,Z   is equivalent  to a cutoff of  12.46, 12.07, 12.47 a.u.
   NGXF,Y,Z  is equivalent  to a cutoff of  24.92, 24.13, 24.94 a.u.

 SYSTEM =  unknown system                          
 POSCAR =   C  N Co Fe                             

 Startparameter for this run:
   NWRITE =      2    write-flag & timer
   PREC   = accura    normal or accurate (medium, high low for compatibility)
   ISTART =      1    job   : 0-new  1-cont  2-samecut
   ICHARG =      0    charge: 1-file 2-atom 10-const
   ISPIN  =      2    spin polarized calculation?
   LNONCOLLINEAR =      F non collinear calculations
   LSORBIT =      F    spin-orbit coupling
   INIWAV =      1    electr: 0-lowe 1-rand  2-diag
   LASPH  =      T    aspherical Exc in radial PAW
   METAGGA=      F    non-selfconsistent MetaGGA calc.

 Electronic Relaxation 1
   ENCUT  =  500.0 eV  36.75 Ry    6.06 a.u.  23.36 22.61 36.46*2*pi/ulx,y,z
   ENINI  =  500.0     initial cutoff
   ENAUG  =  644.9 eV  augmentation charge cutoff
   NELM   =    250;   NELMIN=  2; NELMDL=  0     # of ELM steps 
   EDIFF  = 0.1E-03   stopping-criterion for ELM
   LREAL  =      F    real-space projection
   NLSPLINE    = F    spline interpolate recip. space projectors
   LCOMPAT=      F    compatible to vasp.4.4
   GGA_COMPAT  = T    GGA compatible to vasp.4.4-vasp.4.6
   LMAXPAW     = -100 max onsite density
   LMAXMIX     =    2 max onsite mixed and CHGCAR
   VOSKOWN=      0    Vosko Wilk Nusair interpolation
   ROPT   =    0.00000   0.00000   0.00000   0.00000
 Ionic relaxation
   EDIFFG = -.3E-01   stopping-criterion for IOM
   NSW    =      0    number of steps for IOM
   NBLOCK =      1;   KBLOCK =      1    inner block; outer block 
   IBRION =     -1    ionic relax: 0-MD 1-quasi-New 2-CG
   NFREE  =      1    steps in history (QN), initial steepest desc. (CG)
   ISIF   =      2    stress and relaxation
   IWAVPR =     10    prediction:  0-non 1-charg 2-wave 3-comb
   ISYM   =      3    0-nonsym 1-usesym 2-fastsym
   LCORR  =      T    Harris-Foulkes like correction to forces

   POTIM  = 0.5000    time-step for ionic-motion
   TEIN   =    0.0    initial temperature
   TEBEG  =    0.0;   TEEND  =   0.0 temperature during run
   SMASS  =  -3.00    Nose mass-parameter (am)
   estimated Nose-frequenzy (Omega)   =  0.10E-29 period in steps =****** mass=  -0.375E-26a.u.
   SCALEE = 1.0000    scale energy and forces
   NPACO  =    256;   APACO  = 16.0  distance and # of slots for P.C.
   PSTRESS=    0.0 pullay stress

  Mass of Ions in am
   POMASS =  12.01 14.00 58.93 55.85
  Ionic Valenz
   ZVAL   =   4.00  5.00  9.00  8.00
  Atomic Wigner-Seitz radii
   RWIGS  =  -1.00 -1.00 -1.00 -1.00
  virtual crystal weights 
   VCA    =   1.00  1.00  1.00  1.00
   NELECT =     250.0000    total number of electrons
   NUPDOWN=      -1.0000    fix difference up-down

 DOS related values:
   EMIN   =  10.00;   EMAX   =-10.00  energy-range for DOS
   EFERMI =   0.00
   ISMEAR =     0;   SIGMA  =   0.10  broadening in eV -4-tet -1-fermi 0-gaus

 Electronic relaxation 2 (details)
   IALGO  =     53    algorithm
   LDIAG  =      T    sub-space diagonalisation (order eigenvalues)
   LSUBROT=      F    optimize rotation matrix (better conditioning)
   TURBO    =      0    0=normal 1=particle mesh
   IRESTART =      0    0=no restart 2=restart with 2 vectors
   NREBOOT  =      0    no. of reboots
   NMIN     =      0    reboot dimension
   EREF     =   0.00    reference energy to select bands
   IMIX   =      4    mixing-type and parameters
     AMIX     =   0.40;   BMIX     =  1.00
     AMIX_MAG =   1.60;   BMIX_MAG =  1.00
     AMIN     =   0.10
     WC   =   100.;   INIMIX=   1;  MIXPRE=   1;  MAXMIX= -45

 Intra band minimization:
   WEIMIN = 0.0000     energy-eigenvalue tresh-hold
   EBREAK =  0.16E-06  absolut break condition
   DEPER  =   0.30     relativ break condition  

   TIME   =   0.20     timestep for ELM

  volume/ion in A,a.u.               =      53.85       363.37
  Fermi-wavevector in a.u.,A,eV,Ry     =   0.701543  1.325725  6.696287  0.492163
  Thomas-Fermi vector in A             =   1.785999
 
 Write flags
   LWAVE        =      T    write WAVECAR
   LDOWNSAMPLE  =      F    k-point downsampling of WAVECAR
   LCHARG       =      T    write CHGCAR
   LVTOT        =      F    write LOCPOT, total local potential
   LVHAR        =      T    write LOCPOT, Hartree potential only
   LELF         =      F    write electronic localiz. function (ELF)
   LORBIT       =     11    0 simple, 1 ext, 2 COOP (PROOUT), +10 PAW based schemes


 Dipole corrections
   LMONO  =      F    monopole corrections only (constant potential shift)
   LDIPOL =      T    correct potential (dipole corrections)
   IDIPOL =      3    1-x, 2-y, 3-z, 4-all directions 
   EPSILON=  1.0000000 bulk dielectric constant

 Exchange correlation treatment:
   GGA     =    PE    GGA type
   LEXCH   =     8    internal setting for exchange type
   VOSKOWN=      0    Vosko Wilk Nusair interpolation
   EXXOEP  =     0    0=HF, 1=EXX-LHF (local Hartree Fock) 2=EXX OEP
   LHFCALC =     T    Hartree Fock is set to
   LSYMGRAD=     F    symmetrize gradient (conserves proper symmetry)
   PRECFOCK=normal    Normal, Fast or Accurate (Low or Medium for compatibility)
   LRHFCALC=     F    long range Hartree Fock
   LRSCOR  =     F    long range correlation only (use DFT for short range part)
   LTHOMAS =     F    Thomas Fermi screening in HF
   LMODELHF=     F    short range full HF, long range fraction AEXX
   ENCUT4O =  -1.0   cutoff for four orbital integrals eV
   LMAXFOCK=     4    L truncation for augmentation on plane wave grid
   LMAXFOCKAE=  -1    L truncation for all-electron charge restoration on plane wave grid
   NMAXFOCKAE=   1    number of basis functions for all-electron charge restoration
   LFOCKAEDFT=     F  apply the AE augmentation even for DFT
   NKREDX  =     1    reduce k-point grid by
   NKREDY  =     1    reduce k-point grid by
   NKREDZ  =     1    reduce k-point grid by
   SHIFTRED=     F    shift reduced grid of Gamma
   HFKIDENT=     F    idential grid for each k-point
   ODDONLY =     F    use only odd q-grid points
   EVENONLY=     F    use only even q-grid points
   HFALPHA =   -1.0000 decay constant for conv. correction
   MCALPHA =    0.0000 extent of test-charge in conv. correction in multipole expansion
   AEXX    =    0.2500 exact exchange contribution
   HFSCREEN=    0.2000 screening length (either q_TF or 0.3 A-1)
   HFSCREENC=   0.2000 screening length for correlation (either q_TF or 0.3 A-1)
   HFRCUT  =    0.0000 spherical cutoff for potential kernel
   ALDAX   =    0.7500 LDA exchange part
   AGGAX   =    0.7500 GGA exchange part
   ALDAC   =    1.0000 LDA correlation
   AGGAC   =    1.0000 GGA correlation
   ENCUTFOCK=  -1.0 apply spherical cutoff to Coloumb kernel
   NBANDSGWLOW=     1    first orbital included in HF term
   NBLOCK_FOCK=    64    blocking factor in FOCK_ACC
 Linear response parameters
   LEPSILON=     F    determine dielectric tensor
   LRPA    =     F    only Hartree local field effects (RPA)
   LNABLA  =     F    use nabla operator in PAW spheres
   LVEL    =     F    velocity operator in full k-point grid
   LINTERFAST=   F  fast interpolation
   KINTER  =     0    interpolate to denser k-point grid
   CSHIFT  =0.1000    complex shift for real part using Kramers Kronig
   OMEGAMAX=  -1.0    maximum frequency
   DEG_THRESHOLD= 0.2000000E-02 threshold for treating states as degnerate
   RTIME   =   -0.100 relaxation time in fs
  (WPLASMAI=    0.000 imaginary part of plasma frequency in eV, 0.658/RTIME)
   DFIELD  = 0.0000000 0.0000000 0.0000000 field for delta impulse in time
 
 Orbital magnetization related:
   ORBITALMAG=     F  switch on orbital magnetization
   LCHIMAG   =     F  perturbation theory with respect to B field
   DQ        =  0.001000  dq finite difference perturbation B field
   LLRAUG    =     F  two centre corrections for induced B field



--------------------------------------------------------------------------------------------------------


 Static calculation
 charge density and potential will be updated during run
 spin polarized calculation
 Conjugate gradient for all bands (Freysoldt, et al. PRB 79, 241103 (2009))
 perform sub-space diagonalisation
    before iterative eigenvector-optimisation
 modified Broyden-mixing scheme, WC =      100.0
 initial mixing is a Kerker type mixing with AMIX =  0.4000 and BMIX =      1.0000
 Hartree-type preconditioning will be used
 using additional bands           32
 reciprocal scheme for non local part
 use partial core corrections
 no Harris-corrections to forces 
 use gradient corrections 
 use of overlap-Matrix (Vanderbilt PP)
 Gauss-broadening in eV      SIGMA  =   0.10


--------------------------------------------------------------------------------------------------------


  energy-cutoff  :      500.00
  volume of cell :     3176.88
      direct lattice vectors                 reciprocal lattice vectors
    12.810000000  0.000000000  0.000000000     0.078064012  0.000000000  0.000000000
     0.000000000 12.400000000  0.000000000     0.000000000  0.080645161  0.000000000
     0.000000000  0.000000000 20.000000000     0.000000000  0.000000000  0.050000000

  length of vectors
    12.810000000 12.400000000 20.000000000     0.078064012  0.080645161  0.050000000


 
 old parameters found on file WAVECAR:
  energy-cutoff  :      500.00
  volume of cell :     3176.88
      direct lattice vectors                 reciprocal lattice vectors
    12.810000000  0.000000000  0.000000000     0.078064012  0.000000000  0.000000000
     0.000000000 12.400000000  0.000000000     0.000000000  0.080645161  0.000000000
     0.000000000  0.000000000 20.000000000     0.000000000  0.000000000  0.050000000

  length of vectors

 
 k-points in units of 2pi/SCALE and weight: KPOINTS created by Atomic Simulation Env
   0.01951600  0.02016129  0.00000000       0.500
  -0.01951600  0.02016129  0.00000000       0.500
 
 k-points in reciprocal lattice and weights: KPOINTS created by Atomic Simulation Env
   0.25000000  0.25000000  0.00000000       0.500
  -0.25000000  0.25000000  0.00000000       0.500
 
 position of ions in fractional coordinates (direct lattice) 
   0.22254370  0.00227605  0.49914910
   0.05745164  0.10225794  0.49843637
   0.11135093  0.00155010  0.49848986
   0.27824300  0.10321555  0.50136575
   0.22489952  0.20512460  0.50402005
   0.05676708  0.30266747  0.49939328
   0.11296524  0.20324384  0.50061899
   0.28151156  0.30604315  0.50977878
   0.22240414  0.40682579  0.50904282
   0.05411917  0.50328209  0.49994195
   0.11119253  0.40353279  0.50170763
   0.22181325  0.60240585  0.50448488
   0.05351973  0.70172668  0.49720032
   0.11006412  0.60314512  0.49967855
   0.28198061  0.70153401  0.50032363
   0.22342889  0.80054300  0.49797474
   0.05588214  0.90113542  0.49729202
   0.11107774  0.80067888  0.49747057
   0.27726738  0.90238139  0.49790195
   0.55530713  0.00149077  0.49618152
   0.38894179  0.10153729  0.50004789
   0.44439364  0.00198946  0.49733635
   0.61246439  0.09936514  0.49633875
   0.55719572  0.19757837  0.49978039
   0.39451319  0.30078834  0.51152756
   0.44606592  0.19997483  0.50286501
   0.61476650  0.29466193  0.50019622
   0.56047102  0.39080106  0.50938300
   0.55475212  0.80448333  0.49630188
   0.38854116  0.90256684  0.49727739
   0.44297272  0.80337416  0.49715825
   0.61045107  0.90262301  0.49565477
   0.89010503  0.00089450  0.49581571
   0.72365519  0.10004203  0.49510292
   0.77865392  0.00041643  0.49513417
   0.94624398  0.10112664  0.49647020
   0.89102707  0.20092924  0.49588612
   0.72494788  0.29821629  0.49680120
   0.78006347  0.19941643  0.49519544
   0.94511387  0.30182455  0.49708301
   0.88831392  0.40154839  0.49753974
   0.71653865  0.49733884  0.50116884
   0.77698456  0.39977569  0.49832638
   0.94210012  0.50249585  0.49822043
   0.88341820  0.60121263  0.49748850
   0.71473585  0.70190929  0.49727215
   0.76965397  0.60007240  0.49840882
   0.94117490  0.70045855  0.49667123
   0.88657295  0.80053106  0.49632963
   0.72178176  0.90154589  0.49555071
   0.77473405  0.80051136  0.49635074
   0.94400711  0.90038841  0.49639897
   0.27163880  0.50533787  0.51574932
   0.45604852  0.39096708  0.52217658
   0.60879776  0.48994465  0.50698165
   0.39240219  0.70380655  0.49954778
   0.60668264  0.70681131  0.49680218
   0.39691444  0.51162458  0.56462444
   0.50373051  0.59761925  0.50441293
 
 position of ions in cartesian coordinates  (Angst):
   2.85078475  0.02822300  9.98298197
   0.73595556  1.26799846  9.96872733
   1.42640535  0.01922118  9.96979722
   3.56429284  1.27987280 10.02731499
   2.88096280  2.54354503 10.08040099
   0.72718625  3.75307659  9.98786562
   1.44708474  2.52022368 10.01237971
   3.60616304  3.79493507 10.19557563
   2.84899710  5.04463977 10.18085636
   0.69326654  6.24069791  9.99883905
   1.42437630  5.00380660 10.03415268
   2.84142768  7.46983249 10.08969754
   0.68558769  8.70141085  9.94400648
   1.40992138  7.47899950  9.99357105
   3.61217163  8.69902173 10.00647257
   2.86212409  9.92673324  9.95949474
   0.71585017 11.17407918  9.94584036
   1.42290591  9.92841812  9.94941142
   3.55179512 11.18952918  9.95803896
   7.11348428  0.01848558  9.92363040
   4.98234437  1.25906244 10.00095777
   5.69268249  0.02466930  9.94672694
   7.84566889  1.23212779  9.92677508
   7.13767716  2.44997182  9.99560771
   5.05371397  3.72977547 10.23055111
   5.71410442  2.47968787 10.05730016
   7.87515889  3.65380795 10.00392449
   7.17963372  4.84593320 10.18766006
   7.10637460  9.97559333  9.92603764
   4.97721227 11.19182877  9.94554771
   5.67448052  9.96183953  9.94316506
   7.81987822 11.19252534  9.91309531
  11.40224545  0.01109174  9.91631419
   9.27002301  1.24052117  9.90205849
   9.97455672  0.00516374  9.90268343
  12.12138537  1.25397029  9.92940397
  11.41405676  2.49152256  9.91772234
   9.28658237  3.69788200  9.93602400
   9.99261299  2.47276370  9.90390873
  12.10690862  3.74262447  9.94166022
  11.37930129  4.97920004  9.95079482
   9.17886012  6.16700161 10.02337687
   9.95317219  4.95721857  9.96652761
  12.06830254  6.23094858  9.96440860
  11.31658719  7.45503663  9.94977010
   9.15576625  8.70367521  9.94544291
   9.85926737  7.44089770  9.96817644
  12.05645041  8.68568598  9.93342454
  11.35699945  9.92658510  9.92659270
   9.24602433 11.17916899  9.91101412
   9.92434313  9.92634087  9.92701489
  12.09273110 11.16481627  9.92797946
   3.47969300  6.26618958 10.31498643
   5.84198150  4.84799176 10.44353157
   7.79869925  6.07531363 10.13963291
   5.02667201  8.72720124  9.99095562
   7.77160459  8.76446022  9.93604360
   5.08447401  6.34414483 11.29248873
   6.45278784  7.41047875 10.08825858
 


--------------------------------------------------------------------------------------------------------


 k-point  1 :   0.2500 0.2500 0.0000  plane waves:   80679
 k-point  2 :  -0.2500 0.2500 0.0000  plane waves:   80679

 maximum and minimum number of plane-waves per node :      2047     1989

 maximum number of plane-waves:     80679
 maximum index in each direction: 
   IXMAX=   23   IYMAX=   22   IZMAX=   36
   IXMIN=  -23   IYMIN=  -22   IZMIN=  -36


 parallel 3D FFT for wavefunctions:
    minimum data exchange during FFTs selected (reduces bandwidth)
 parallel 3D FFT for charge:
    minimum data exchange during FFTs selected (reduces bandwidth)


 FFT grid for exact exchange (Hartree Fock) 
  NGX = 72; NGY = 70; NGZ =112

 
 Radii for the augmentation spheres in the non-local exchange
 for species   1 augmentation radius   0.874 (default was   0.699)
       energy cutoff for augmentation   2000.0
 for species   2 augmentation radius   0.886 (default was   0.709)
       energy cutoff for augmentation   2000.0
 for species   3 augmentation radius   1.307 (default was   1.045)
       energy cutoff for augmentation   2000.0
 for species   4 augmentation radius   1.263 (default was   1.010)
       energy cutoff for augmentation   2000.0

 real space projection operators:
  total allocation   :       2604.85 KBytes
  max/ min on nodes  :         96.44         42.82

 Maximum index for augmentation-charges in exchange          116
  SETUP_FOCK is finished

 total amount of memory used by VASP MPI-rank0   139431. kBytes
=======================================================================

   base      :      30000. kBytes
   nonl-proj :       4307. kBytes
   fftplans  :      11188. kBytes
   grid      :      29312. kBytes
   one-center:         62. kBytes
   HF        :         23. kBytes
   nonlr-proj:       1812. kBytes
   wavefun   :      62727. kBytes
 
     INWAV:  cpu time    5.2105: real time    5.2253
 Broyden mixing: mesh for mixing (old mesh)
   NGX = 47   NGY = 45   NGZ = 73
  (NGX  =192   NGY  =180   NGZ  =300)
  gives a total of 154395 points

 charge density for first step will be calculated from the start-wavefunctions


--------------------------------------------------------------------------------------------------------


 Maximum index for augmentation-charges          701 (set IRDMAX)


--------------------------------------------------------------------------------------------------------


 initial charge from wavefunction
 First call to EWALD:  gamma=   0.121
 Maximum number of real-space cells 3x 3x 2
 Maximum number of reciprocal cells 2x 2x 4

    FEWALD:  cpu time    0.0026: real time    0.0034


--------------------------------------- Iteration      1(   1)  ---------------------------------------


    POTLOK:  cpu time    1.0345: real time    1.0390
    SETDIJ:  cpu time    1.2339: real time    1.2393
    TRIAL :  cpu time  218.3500: real time  219.0652
    CORREC:  cpu time    0.0012: real time    0.0012
    CHARGE:  cpu time    1.2135: real time    1.2168
    --------------------------------------------
      LOOP:  cpu time  221.8551: real time  222.5858

 eigenvalue-minimisations  :     0
 total energy-change (2. order) :-0.6170381E+03  (-0.5257145E+00)
 number of electron     250.0000006 magnetization       3.7777502
 augmentation part       15.4467161 magnetization       2.6916694

 DIPCOR: dipole corrections for dipol
 direction  3 min pos     1,
 dipolmoment           0.000000      0.000000     -0.139839 electrons x Angstroem
 Tr[quadrupol]     -6948.931013

 energy correction for charged system         0.000000 eV
 dipol+quadrupol energy correction           -0.000559 eV
 added-field ion interaction          0.100643 eV  (added to PSCEN)


 Free energy of the ion-electron system (eV)
  ---------------------------------------------------
  alpha Z        PSCENC =       103.11858073
  Ewald energy   TEWEN  =     40967.06784247
  -Hartree energ DENC   =    -49841.44636727
  -exchange      EXHF   =       568.24514074
  -V(xc)+E(xc)   XCENC  =       641.75635170
  PAW double counting   =     27170.36790605   -27259.14575189
  entropy T*S    EENTRO =        -0.02278630
  eigenvalues    EBANDS =     -3233.46663312
  atomic energy  EATOM  =     10266.49278878
  ---------------------------------------------------
  free energy    TOTEN  =      -617.03806050 eV

  energy without entropy =     -617.01527420  energy(sigma->0) =     -617.02666735
  exchange ACFDT corr.  =        -0.03736213  see jH, gK, PRB 81, 115126


--------------------------------------------------------------------------------------------------------




--------------------------------------- Iteration      1(   2)  ---------------------------------------


    POTLOK:  cpu time    1.0576: real time    1.0606
    SETDIJ:  cpu time    1.2302: real time    1.2333
    TRIAL :  cpu time  216.3231: real time  217.0194
    CORREC:  cpu time    0.0010: real time    0.0010
    CHARGE:  cpu time    1.2065: real time    1.2097
    --------------------------------------------
      LOOP:  cpu time  219.8204: real time  220.5311

 eigenvalue-minimisations  :     0
 total energy-change (2. order) :-0.4145883E+00  (-0.4706209E+00)
 number of electron     250.0000006 magnetization       3.8515972
 augmentation part       15.4142639 magnetization       2.7721104

 DIPCOR: dipole corrections for dipol
 direction  3 min pos     1,
 dipolmoment           0.000000      0.000000     -0.116688 electrons x Angstroem
 Tr[quadrupol]     -6948.756255

 energy correction for charged system         0.000000 eV
 dipol+quadrupol energy correction           -0.000389 eV
 added-field ion interaction          0.083981 eV  (added to PSCEN)


 Free energy of the ion-electron system (eV)
  ---------------------------------------------------
  alpha Z        PSCENC =       103.10208886
  Ewald energy   TEWEN  =     40967.06784247
  -Hartree energ DENC   =    -49828.93658468
  -exchange      EXHF   =       568.21528953
  -V(xc)+E(xc)   XCENC  =       641.42833928
  PAW double counting   =     27303.23043640   -27392.24549504
  entropy T*S    EENTRO =        -0.01742033
  eigenvalues    EBANDS =     -3245.78456806
  atomic energy  EATOM  =     10266.49278878
  ---------------------------------------------------
  free energy    TOTEN  =      -617.45264876 eV

  energy without entropy =     -617.43522843  energy(sigma->0) =     -617.44393860
  exchange ACFDT corr.  =        -0.03000014  see jH, gK, PRB 81, 115126


--------------------------------------------------------------------------------------------------------




--------------------------------------- Iteration      1(   3)  ---------------------------------------


    POTLOK:  cpu time    1.0644: real time    1.0677
    SETDIJ:  cpu time    1.2363: real time    1.2396
    TRIAL :  cpu time  217.3782: real time  218.0775
    CORREC:  cpu time    0.0013: real time    0.0013
    CHARGE:  cpu time    1.2113: real time    1.2145
    --------------------------------------------
      LOOP:  cpu time  220.8941: real time  221.6074

 eigenvalue-minimisations  :     0
 total energy-change (2. order) :-0.3558779E+00  (-0.2689502E+00)
 number of electron     250.0000006 magnetization       3.9098241
 augmentation part       15.4040565 magnetization       2.8389861

 DIPCOR: dipole corrections for dipol
 direction  3 min pos     1,
 dipolmoment           0.000000      0.000000     -0.173786 electrons x Angstroem
 Tr[quadrupol]     -6948.675493

 energy correction for charged system         0.000000 eV
 dipol+quadrupol energy correction           -0.000863 eV
 added-field ion interaction          0.125075 eV  (added to PSCEN)


 Free energy of the ion-electron system (eV)
  ---------------------------------------------------
  alpha Z        PSCENC =       103.14270812
  Ewald energy   TEWEN  =     40967.06784247
  -Hartree energ DENC   =    -49814.86989904
  -exchange      EXHF   =       568.20464566
  -V(xc)+E(xc)   XCENC  =       641.04185413
  PAW double counting   =     27470.02702324   -27558.20801935
  entropy T*S    EENTRO =        -0.01237572
  eigenvalues    EBANDS =     -3260.69005031
  atomic energy  EATOM  =     10266.49278878
  ---------------------------------------------------
  free energy    TOTEN  =      -617.80852663 eV

  energy without entropy =     -617.79615091  energy(sigma->0) =     -617.80233877
  exchange ACFDT corr.  =        -0.02582647  see jH, gK, PRB 81, 115126


--------------------------------------------------------------------------------------------------------




--------------------------------------- Iteration      1(   4)  ---------------------------------------


    POTLOK:  cpu time    1.0826: real time    1.0872
    SETDIJ:  cpu time    1.2339: real time    1.2370
    TRIAL :  cpu time  216.1997: real time  216.8894
    CORREC:  cpu time    0.0014: real time    0.0014
    CHARGE:  cpu time    1.2074: real time    1.2106
    --------------------------------------------
      LOOP:  cpu time  219.7273: real time  220.4329

 eigenvalue-minimisations  :     0
 total energy-change (2. order) :-0.2081782E+00  (-0.1638318E+00)
 number of electron     250.0000006 magnetization       3.9487656
 augmentation part       15.4135388 magnetization       2.8849123

 DIPCOR: dipole corrections for dipol
 direction  3 min pos     1,
 dipolmoment           0.000000      0.000000     -0.189116 electrons x Angstroem
 Tr[quadrupol]     -6948.657892

 energy correction for charged system         0.000000 eV
 dipol+quadrupol energy correction           -0.001023 eV
 added-field ion interaction          0.136108 eV  (added to PSCEN)


 Free energy of the ion-electron system (eV)
  ---------------------------------------------------
  alpha Z        PSCENC =       103.15358213
  Ewald energy   TEWEN  =     40967.06784247
  -Hartree energ DENC   =    -49808.83504416
  -exchange      EXHF   =       568.39250658
  -V(xc)+E(xc)   XCENC  =       640.89800343
  PAW double counting   =     27615.15800268   -27703.19309174
  entropy T*S    EENTRO =        -0.00824911
  eigenvalues    EBANDS =     -3267.13891928
  atomic energy  EATOM  =     10266.49278878
  ---------------------------------------------------
  free energy    TOTEN  =      -618.01670482 eV

  energy without entropy =     -618.00845571  energy(sigma->0) =     -618.01258027
  exchange ACFDT corr.  =        -0.01369934  see jH, gK, PRB 81, 115126


--------------------------------------------------------------------------------------------------------




--------------------------------------- Iteration      1(   5)  ---------------------------------------


    POTLOK:  cpu time    1.0666: real time    1.0696
    SETDIJ:  cpu time    1.2474: real time    1.2507
    TRIAL :  cpu time  215.3014: real time  215.9759
    CORREC:  cpu time    0.0012: real time    0.0012
    CHARGE:  cpu time    1.2025: real time    1.2056
    --------------------------------------------
      LOOP:  cpu time  218.8214: real time  219.5098

 eigenvalue-minimisations  :     0
 total energy-change (2. order) :-0.1314013E+00  (-0.1088563E+00)
 number of electron     250.0000006 magnetization       3.9730510
 augmentation part       15.4216460 magnetization       2.9165187

 DIPCOR: dipole corrections for dipol
 direction  3 min pos     1,
 dipolmoment           0.000000      0.000000     -0.184754 electrons x Angstroem
 Tr[quadrupol]     -6948.709464

 energy correction for charged system         0.000000 eV
 dipol+quadrupol energy correction           -0.000976 eV
 added-field ion interaction          0.132968 eV  (added to PSCEN)


 Free energy of the ion-electron system (eV)
  ---------------------------------------------------
  alpha Z        PSCENC =       103.15048921
  Ewald energy   TEWEN  =     40967.06784247
  -Hartree energ DENC   =    -49810.51705940
  -exchange      EXHF   =       568.71419577
  -V(xc)+E(xc)   XCENC  =       640.96627933
  PAW double counting   =     27719.84147015   -27808.17870747
  entropy T*S    EENTRO =        -0.00520076
  eigenvalues    EBANDS =     -3265.67715581
  atomic energy  EATOM  =     10266.49278878
  ---------------------------------------------------
  free energy    TOTEN  =      -618.14810609 eV

  energy without entropy =     -618.14290534  energy(sigma->0) =     -618.14550571
  exchange ACFDT corr.  =        -0.00772567  see jH, gK, PRB 81, 115126


--------------------------------------------------------------------------------------------------------




--------------------------------------- Iteration      1(   6)  ---------------------------------------


    POTLOK:  cpu time    1.0640: real time    1.0669
    SETDIJ:  cpu time    1.2288: real time    1.2320
    TRIAL :  cpu time  215.2731: real time  215.9489
    CORREC:  cpu time    0.0009: real time    0.0009
    CHARGE:  cpu time    1.2030: real time    1.2062
    --------------------------------------------
      LOOP:  cpu time  218.7717: real time  219.4612

 eigenvalue-minimisations  :     0
 total energy-change (2. order) :-0.9167704E-01  (-0.7691845E-01)
 number of electron     250.0000006 magnetization       3.9861048
 augmentation part       15.4257820 magnetization       2.9381733

 DIPCOR: dipole corrections for dipol
 direction  3 min pos     1,
 dipolmoment           0.000000      0.000000     -0.193830 electrons x Angstroem
 Tr[quadrupol]     -6948.798352

 energy correction for charged system         0.000000 eV
 dipol+quadrupol energy correction           -0.001074 eV
 added-field ion interaction          0.139501 eV  (added to PSCEN)


 Free energy of the ion-electron system (eV)
  ---------------------------------------------------
  alpha Z        PSCENC =       103.15692326
  Ewald energy   TEWEN  =     40967.06784247
  -Hartree energ DENC   =    -49814.82951436
  -exchange      EXHF   =       569.03484893
  -V(xc)+E(xc)   XCENC  =       641.09909132
  PAW double counting   =     27786.21626965   -27874.66582877
  entropy T*S    EENTRO =        -0.00328511
  eigenvalues    EBANDS =     -3261.80700365
  atomic energy  EATOM  =     10266.49278878
  ---------------------------------------------------
  free energy    TOTEN  =      -618.23978313 eV

  energy without entropy =     -618.23649801  energy(sigma->0) =     -618.23814057
  exchange ACFDT corr.  =        -0.00407316  see jH, gK, PRB 81, 115126


--------------------------------------------------------------------------------------------------------




--------------------------------------- Iteration      1(   7)  ---------------------------------------


    POTLOK:  cpu time    1.1077: real time    1.1297
    SETDIJ:  cpu time    1.2289: real time    1.2328
    TRIAL :  cpu time  215.6208: real time  216.3021
    CORREC:  cpu time    0.0009: real time    0.0009
    CHARGE:  cpu time    1.2025: real time    1.2057
    --------------------------------------------
      LOOP:  cpu time  219.1626: real time  219.8778

 eigenvalue-minimisations  :     0
 total energy-change (2. order) :-0.6635420E-01  (-0.5595045E-01)
 number of electron     250.0000006 magnetization       3.9923991
 augmentation part       15.4298024 magnetization       2.9534832

 DIPCOR: dipole corrections for dipol
 direction  3 min pos     1,
 dipolmoment           0.000000      0.000000     -0.204557 electrons x Angstroem
 Tr[quadrupol]     -6948.872233

 energy correction for charged system         0.000000 eV
 dipol+quadrupol energy correction           -0.001196 eV
 added-field ion interaction          0.147221 eV  (added to PSCEN)


 Free energy of the ion-electron system (eV)
  ---------------------------------------------------
  alpha Z        PSCENC =       103.16452120
  Ewald energy   TEWEN  =     40967.06784247
  -Hartree energ DENC   =    -49818.63876485
  -exchange      EXHF   =       569.29381252
  -V(xc)+E(xc)   XCENC  =       641.21957718
  PAW double counting   =     27824.79298464   -27913.23682388
  entropy T*S    EENTRO =        -0.00219934
  eigenvalues    EBANDS =     -3258.45879026
  atomic energy  EATOM  =     10266.49278878
  ---------------------------------------------------
  free energy    TOTEN  =      -618.30613733 eV

  energy without entropy =     -618.30393799  energy(sigma->0) =     -618.30503766
  exchange ACFDT corr.  =        -0.00216000  see jH, gK, PRB 81, 115126


--------------------------------------------------------------------------------------------------------




--------------------------------------- Iteration      1(   8)  ---------------------------------------


    POTLOK:  cpu time    1.0589: real time    1.0619
    SETDIJ:  cpu time    1.2611: real time    1.2642
    TRIAL :  cpu time  216.3086: real time  217.0029
    CORREC:  cpu time    0.0009: real time    0.0009
    CHARGE:  cpu time    1.2018: real time    1.2051
    --------------------------------------------
      LOOP:  cpu time  219.8340: real time  220.5421

 eigenvalue-minimisations  :     0
 total energy-change (2. order) :-0.4973107E-01  (-0.4281593E-01)
 number of electron     250.0000006 magnetization       3.9953901
 augmentation part       15.4339174 magnetization       2.9658154

 DIPCOR: dipole corrections for dipol
 direction  3 min pos     1,
 dipolmoment           0.000000      0.000000     -0.207515 electrons x Angstroem
 Tr[quadrupol]     -6948.912666

 energy correction for charged system         0.000000 eV
 dipol+quadrupol energy correction           -0.001231 eV
 added-field ion interaction          0.149350 eV  (added to PSCEN)


 Free energy of the ion-electron system (eV)
  ---------------------------------------------------
  alpha Z        PSCENC =       103.16661558
  Ewald energy   TEWEN  =     40967.06784247
  -Hartree energ DENC   =    -49821.11073260
  -exchange      EXHF   =       569.48420838
  -V(xc)+E(xc)   XCENC  =       641.30725726
  PAW double counting   =     27845.75582421   -27934.25181632
  entropy T*S    EENTRO =        -0.00158494
  eigenvalues    EBANDS =     -3256.26565682
  atomic energy  EATOM  =     10266.49278878
  ---------------------------------------------------
  free energy    TOTEN  =      -618.35586840 eV

  energy without entropy =     -618.35428346  energy(sigma->0) =     -618.35507593
  exchange ACFDT corr.  =        -0.00125341  see jH, gK, PRB 81, 115126


--------------------------------------------------------------------------------------------------------




--------------------------------------- Iteration      1(   9)  ---------------------------------------


    POTLOK:  cpu time    1.0550: real time    1.0579
    SETDIJ:  cpu time    1.2291: real time    1.2322
    TRIAL :  cpu time  215.5951: real time  216.2854
    CORREC:  cpu time    0.0009: real time    0.0009
    CHARGE:  cpu time    1.1997: real time    1.2029
    --------------------------------------------
      LOOP:  cpu time  219.0822: real time  219.7859

 eigenvalue-minimisations  :     0
 total energy-change (2. order) :-0.3881074E-01  (-0.3406253E-01)
 number of electron     250.0000006 magnetization       3.9968690
 augmentation part       15.4369258 magnetization       2.9769455

 DIPCOR: dipole corrections for dipol
 direction  3 min pos     1,
 dipolmoment           0.000000      0.000000     -0.207330 electrons x Angstroem
 Tr[quadrupol]     -6948.930638

 energy correction for charged system         0.000000 eV
 dipol+quadrupol energy correction           -0.001229 eV
 added-field ion interaction          0.149217 eV  (added to PSCEN)


 Free energy of the ion-electron system (eV)
  ---------------------------------------------------
  alpha Z        PSCENC =       103.16648467
  Ewald energy   TEWEN  =     40967.06784247
  -Hartree energ DENC   =    -49822.38856965
  -exchange      EXHF   =       569.61714974
  -V(xc)+E(xc)   XCENC  =       641.36146915
  PAW double counting   =     27856.40594480   -27944.98737975
  entropy T*S    EENTRO =        -0.00122204
  eigenvalues    EBANDS =     -3255.12882442
  atomic energy  EATOM  =     10266.49278878
  ---------------------------------------------------
  free energy    TOTEN  =      -618.39467914 eV

  energy without entropy =     -618.39345710  energy(sigma->0) =     -618.39406812
  exchange ACFDT corr.  =        -0.00081796  see jH, gK, PRB 81, 115126


--------------------------------------------------------------------------------------------------------




--------------------------------------- Iteration      1(  10)  ---------------------------------------


    POTLOK:  cpu time    1.0608: real time    1.0739
    SETDIJ:  cpu time    1.2328: real time    1.2362
    TRIAL :  cpu time  215.7265: real time  216.4579
    CORREC:  cpu time    0.0011: real time    0.0011
    CHARGE:  cpu time    1.2011: real time    1.2047
    --------------------------------------------
      LOOP:  cpu time  219.2245: real time  219.9805

 eigenvalue-minimisations  :     0
 total energy-change (2. order) :-0.3140965E-01  (-0.2803556E-01)
 number of electron     250.0000005 magnetization       3.9976411
 augmentation part       15.4387943 magnetization       2.9871951

 DIPCOR: dipole corrections for dipol
 direction  3 min pos     1,
 dipolmoment           0.000000      0.000000     -0.208425 electrons x Angstroem
 Tr[quadrupol]     -6948.939459

 energy correction for charged system         0.000000 eV
 dipol+quadrupol energy correction           -0.001242 eV
 added-field ion interaction          0.150005 eV  (added to PSCEN)


 Free energy of the ion-electron system (eV)
  ---------------------------------------------------
  alpha Z        PSCENC =       103.16725935
  Ewald energy   TEWEN  =     40967.06784247
  -Hartree energ DENC   =    -49822.88279266
  -exchange      EXHF   =       569.71057370
  -V(xc)+E(xc)   XCENC  =       641.39112878
  PAW double counting   =     27861.35260134   -27949.99432813
  entropy T*S    EENTRO =        -0.00099795
  eigenvalues    EBANDS =     -3254.72994037
  atomic energy  EATOM  =     10266.49278878
  ---------------------------------------------------
  free energy    TOTEN  =      -618.42608878 eV

  energy without entropy =     -618.42509083  energy(sigma->0) =     -618.42558981
  exchange ACFDT corr.  =        -0.00041026  see jH, gK, PRB 81, 115126


--------------------------------------------------------------------------------------------------------




--------------------------------------- Iteration      1(  11)  ---------------------------------------


    POTLOK:  cpu time    1.0495: real time    1.0526
    SETDIJ:  cpu time    1.2261: real time    1.2295
    TRIAL :  cpu time  215.6604: real time  216.3504
    CORREC:  cpu time    0.0016: real time    0.0016
    CHARGE:  cpu time    1.2081: real time    1.2113
    --------------------------------------------
      LOOP:  cpu time  219.1476: real time  219.8527

 eigenvalue-minimisations  :     0
 total energy-change (2. order) :-0.2614356E-01  (-0.2358621E-01)
 number of electron     250.0000005 magnetization       3.9980685
 augmentation part       15.4402254 magnetization       2.9963535

 DIPCOR: dipole corrections for dipol
 direction  3 min pos     1,
 dipolmoment           0.000000      0.000000     -0.210055 electrons x Angstroem
 Tr[quadrupol]     -6948.944789

 energy correction for charged system         0.000000 eV
 dipol+quadrupol energy correction           -0.001262 eV
 added-field ion interaction          0.151177 eV  (added to PSCEN)


 Free energy of the ion-electron system (eV)
  ---------------------------------------------------
  alpha Z        PSCENC =       103.16841280
  Ewald energy   TEWEN  =     40967.06784247
  -Hartree energ DENC   =    -49822.99970997
  -exchange      EXHF   =       569.78236208
  -V(xc)+E(xc)   XCENC  =       641.40845617
  PAW double counting   =     27863.44699220   -27952.12582936
  entropy T*S    EENTRO =        -0.00085367
  eigenvalues    EBANDS =     -3254.69254956
  atomic energy  EATOM  =     10266.49278878
  ---------------------------------------------------
  free energy    TOTEN  =      -618.45223234 eV

  energy without entropy =     -618.45137868  energy(sigma->0) =     -618.45180551
  exchange ACFDT corr.  =        -0.00031960  see jH, gK, PRB 81, 115126


--------------------------------------------------------------------------------------------------------




--------------------------------------- Iteration      1(  12)  ---------------------------------------


    POTLOK:  cpu time    1.0481: real time    1.0509
    SETDIJ:  cpu time    1.2204: real time    1.2237
    TRIAL :  cpu time  215.5555: real time  216.2558
    CORREC:  cpu time    0.0009: real time    0.0009
    CHARGE:  cpu time    1.2014: real time    1.2046
    --------------------------------------------
      LOOP:  cpu time  219.0276: real time  219.7422

 eigenvalue-minimisations  :     0
 total energy-change (2. order) :-0.2220903E-01  (-0.2025919E-01)
 number of electron     250.0000005 magnetization       3.9983191
 augmentation part       15.4416355 magnetization       3.0042935

 DIPCOR: dipole corrections for dipol
 direction  3 min pos     1,
 dipolmoment           0.000000      0.000000     -0.210479 electrons x Angstroem
 Tr[quadrupol]     -6948.948031

 energy correction for charged system         0.000000 eV
 dipol+quadrupol energy correction           -0.001267 eV
 added-field ion interaction          0.151483 eV  (added to PSCEN)


 Free energy of the ion-electron system (eV)
  ---------------------------------------------------
  alpha Z        PSCENC =       103.16871287
  Ewald energy   TEWEN  =     40967.06784247
  -Hartree energ DENC   =    -49823.01243251
  -exchange      EXHF   =       569.84410236
  -V(xc)+E(xc)   XCENC  =       641.42207128
  PAW double counting   =     27864.44826482   -27953.16481116
  entropy T*S    EENTRO =        -0.00075675
  eigenvalues    EBANDS =     -3254.74012662
  atomic energy  EATOM  =     10266.49278878
  ---------------------------------------------------
  free energy    TOTEN  =      -618.47444138 eV

  energy without entropy =     -618.47368462  energy(sigma->0) =     -618.47406300
  exchange ACFDT corr.  =        -0.00026599  see jH, gK, PRB 81, 115126


--------------------------------------------------------------------------------------------------------




--------------------------------------- Iteration      1(  13)  ---------------------------------------


    POTLOK:  cpu time    1.0630: real time    1.0661
    SETDIJ:  cpu time    1.2405: real time    1.2438
    TRIAL :  cpu time  215.7170: real time  216.4122
    CORREC:  cpu time    0.0009: real time    0.0009
    CHARGE:  cpu time    1.2012: real time    1.2044
    --------------------------------------------
      LOOP:  cpu time  219.2246: real time  219.9341

 eigenvalue-minimisations  :     0
 total energy-change (2. order) :-0.1921341E-01  (-0.1765973E-01)
 number of electron     250.0000005 magnetization       3.9984728
 augmentation part       15.4430118 magnetization       3.0110793

 DIPCOR: dipole corrections for dipol
 direction  3 min pos     1,
 dipolmoment           0.000000      0.000000     -0.209903 electrons x Angstroem
 Tr[quadrupol]     -6948.950213

 energy correction for charged system         0.000000 eV
 dipol+quadrupol energy correction           -0.001260 eV
 added-field ion interaction          0.151068 eV  (added to PSCEN)


 Free energy of the ion-electron system (eV)
  ---------------------------------------------------
  alpha Z        PSCENC =       103.16830563
  Ewald energy   TEWEN  =     40967.06784247
  -Hartree energ DENC   =    -49823.04013928
  -exchange      EXHF   =       569.90032447
  -V(xc)+E(xc)   XCENC  =       641.43494042
  PAW double counting   =     27865.34393285   -27954.10405786
  entropy T*S    EENTRO =        -0.00068914
  eigenvalues    EBANDS =     -3254.75683551
  atomic energy  EATOM  =     10266.49278878
  ---------------------------------------------------
  free energy    TOTEN  =      -618.49365478 eV

  energy without entropy =     -618.49296565  energy(sigma->0) =     -618.49331021
  exchange ACFDT corr.  =        -0.00023196  see jH, gK, PRB 81, 115126


--------------------------------------------------------------------------------------------------------




--------------------------------------- Iteration      1(  14)  ---------------------------------------


    POTLOK:  cpu time    1.0462: real time    1.0490
    SETDIJ:  cpu time    1.2236: real time    1.2269
    TRIAL :  cpu time  216.3419: real time  217.0638
    CORREC:  cpu time    0.0015: real time    0.0015
    CHARGE:  cpu time    1.2022: real time    1.2055
    --------------------------------------------
      LOOP:  cpu time  219.8168: real time  220.5530

 eigenvalue-minimisations  :     0
 total energy-change (2. order) :-0.1684139E-01  (-0.1557745E-01)
 number of electron     250.0000005 magnetization       3.9985692
 augmentation part       15.4442382 magnetization       3.0168373

 DIPCOR: dipole corrections for dipol
 direction  3 min pos     1,
 dipolmoment           0.000000      0.000000     -0.209448 electrons x Angstroem
 Tr[quadrupol]     -6948.952307

 energy correction for charged system         0.000000 eV
 dipol+quadrupol energy correction           -0.001254 eV
 added-field ion interaction          0.150741 eV  (added to PSCEN)


 Free energy of the ion-electron system (eV)
  ---------------------------------------------------
  alpha Z        PSCENC =       103.16798359
  Ewald energy   TEWEN  =     40967.06784247
  -Hartree energ DENC   =    -49823.10158256
  -exchange      EXHF   =       569.95193504
  -V(xc)+E(xc)   XCENC  =       641.44691474
  PAW double counting   =     27866.59784254   -27955.39922946
  entropy T*S    EENTRO =        -0.00064076
  eigenvalues    EBANDS =     -3254.73430217
  atomic energy  EATOM  =     10266.49278878
  ---------------------------------------------------
  free energy    TOTEN  =      -618.51049618 eV

  energy without entropy =     -618.50985542  energy(sigma->0) =     -618.51017580
  exchange ACFDT corr.  =        -0.00020910  see jH, gK, PRB 81, 115126


--------------------------------------------------------------------------------------------------------




--------------------------------------- Iteration      1(  15)  ---------------------------------------


    POTLOK:  cpu time    1.0528: real time    1.0595
    SETDIJ:  cpu time    1.2382: real time    1.2422
    TRIAL :  cpu time  215.1245: real time  215.8221
    CORREC:  cpu time    0.0009: real time    0.0009
    CHARGE:  cpu time    1.2030: real time    1.2062
    --------------------------------------------
      LOOP:  cpu time  218.6221: real time  219.3377

 eigenvalue-minimisations  :     0
 total energy-change (2. order) :-0.1491981E-01  (-0.1386253E-01)
 number of electron     250.0000005 magnetization       3.9986287
 augmentation part       15.4453017 magnetization       3.0216717

 DIPCOR: dipole corrections for dipol
 direction  3 min pos     1,
 dipolmoment           0.000000      0.000000     -0.209468 electrons x Angstroem
 Tr[quadrupol]     -6948.954535

 energy correction for charged system         0.000000 eV
 dipol+quadrupol energy correction           -0.001254 eV
 added-field ion interaction          0.150755 eV  (added to PSCEN)


 Free energy of the ion-electron system (eV)
  ---------------------------------------------------
  alpha Z        PSCENC =       103.16799777
  Ewald energy   TEWEN  =     40967.06784247
  -Hartree energ DENC   =    -49823.17917475
  -exchange      EXHF   =       569.99924883
  -V(xc)+E(xc)   XCENC  =       641.45752115
  PAW double counting   =     27868.31376501   -27957.14921324
  entropy T*S    EENTRO =        -0.00060585
  eigenvalues    EBANDS =     -3254.69555124
  atomic energy  EATOM  =     10266.49278878
  ---------------------------------------------------
  free energy    TOTEN  =      -618.52541598 eV

  energy without entropy =     -618.52481013  energy(sigma->0) =     -618.52511306
  exchange ACFDT corr.  =        -0.00019319  see jH, gK, PRB 81, 115126


--------------------------------------------------------------------------------------------------------




--------------------------------------- Iteration      1(  16)  ---------------------------------------


    POTLOK:  cpu time    1.0440: real time    1.0501
    SETDIJ:  cpu time    1.2160: real time    1.2196
    TRIAL :  cpu time  216.4653: real time  217.2029
    CORREC:  cpu time    0.0010: real time    0.0010
    CHARGE:  cpu time    1.2013: real time    1.2047
    --------------------------------------------
      LOOP:  cpu time  219.9295: real time  220.6844

 eigenvalue-minimisations  :     0
 total energy-change (2. order) :-0.1332059E-01  (-0.1241447E-01)
 number of electron     250.0000005 magnetization       3.9986631
 augmentation part       15.4462343 magnetization       3.0257088

 DIPCOR: dipole corrections for dipol
 direction  3 min pos     1,
 dipolmoment           0.000000      0.000000     -0.209525 electrons x Angstroem
 Tr[quadrupol]     -6948.956516

 energy correction for charged system         0.000000 eV
 dipol+quadrupol energy correction           -0.001255 eV
 added-field ion interaction          0.150796 eV  (added to PSCEN)


 Free energy of the ion-electron system (eV)
  ---------------------------------------------------
  alpha Z        PSCENC =       103.16803789
  Ewald energy   TEWEN  =     40967.06784247
  -Hartree energ DENC   =    -49823.25539596
  -exchange      EXHF   =       570.04288544
  -V(xc)+E(xc)   XCENC  =       641.46687191
  PAW double counting   =     27870.35373047   -27959.21825235
  entropy T*S    EENTRO =        -0.00058079
  eigenvalues    EBANDS =     -3254.65663937
  atomic energy  EATOM  =     10266.49278878
  ---------------------------------------------------
  free energy    TOTEN  =      -618.53873658 eV

  energy without entropy =     -618.53815578  energy(sigma->0) =     -618.53844618
  exchange ACFDT corr.  =        -0.00018197  see jH, gK, PRB 81, 115126


--------------------------------------------------------------------------------------------------------




--------------------------------------- Iteration      1(  17)  ---------------------------------------


    POTLOK:  cpu time    1.0380: real time    1.0421
    SETDIJ:  cpu time    1.2227: real time    1.2260
    TRIAL :  cpu time  215.3917: real time  216.0872
    CORREC:  cpu time    0.0009: real time    0.0009
    CHARGE:  cpu time    1.2028: real time    1.2063
    --------------------------------------------
      LOOP:  cpu time  218.8582: real time  219.5687

 eigenvalue-minimisations  :     0
 total energy-change (2. order) :-0.1196089E-01  (-0.1117760E-01)
 number of electron     250.0000005 magnetization       3.9986800
 augmentation part       15.4470675 magnetization       3.0290837

 DIPCOR: dipole corrections for dipol
 direction  3 min pos     1,
 dipolmoment           0.000000      0.000000     -0.209281 electrons x Angstroem
 Tr[quadrupol]     -6948.957917

 energy correction for charged system         0.000000 eV
 dipol+quadrupol energy correction           -0.001252 eV
 added-field ion interaction          0.150620 eV  (added to PSCEN)


 Free energy of the ion-electron system (eV)
  ---------------------------------------------------
  alpha Z        PSCENC =       103.16786509
  Ewald energy   TEWEN  =     40967.06784247
  -Hartree energ DENC   =    -49823.31943734
  -exchange      EXHF   =       570.08336943
  -V(xc)+E(xc)   XCENC  =       641.47526383
  PAW double counting   =     27872.45824258   -27961.34979788
  entropy T*S    EENTRO =        -0.00056306
  eigenvalues    EBANDS =     -3254.62625363
  atomic energy  EATOM  =     10266.49278878
  ---------------------------------------------------
  free energy    TOTEN  =      -618.55069747 eV

  energy without entropy =     -618.55013441  energy(sigma->0) =     -618.55041594
  exchange ACFDT corr.  =        -0.00017408  see jH, gK, PRB 81, 115126


--------------------------------------------------------------------------------------------------------




[...]
  in kB     -22.20199   -18.56219     0.30628    -5.62548    -0.41063    -0.30448
  external pressure =      -13.49 kB  Pullay stress =        0.00 kB


 VOLUME and BASIS-vectors are now :
 -----------------------------------------------------------------------------
  energy-cutoff  :      500.00
  volume of cell :     3176.88
      direct lattice vectors                 reciprocal lattice vectors
    12.810000000  0.000000000  0.000000000     0.078064012  0.000000000  0.000000000
     0.000000000 12.400000000  0.000000000     0.000000000  0.080645161  0.000000000
     0.000000000  0.000000000 20.000000000     0.000000000  0.000000000  0.050000000

  length of vectors
    12.810000000 12.400000000 20.000000000     0.078064012  0.080645161  0.050000000


 FORCES acting on ions:
    Electron-Ion                     Ewald-Force                    Non-Local-Force
 -----------------------------------------------------------------------------------------------
   0.649E+01 -.615E+01 0.694E+01   -.651E+01 0.599E+01 -.699E+01   0.143E+00 -.721E-01 0.347E-01
   -.608E+00 -.122E+01 0.756E+01   0.794E+00 0.112E+01 -.758E+01   -.156E+00 0.543E-01 0.258E-01
   0.690E+01 0.336E+00 0.569E+01   -.692E+01 -.433E+00 -.564E+01   -.791E-01 0.769E-01 -.550E-01
   0.147E+02 0.398E+01 0.186E+01   -.149E+02 -.407E+01 -.177E+01   0.281E+00 0.175E+00 -.884E-01
   0.918E+01 0.682E+01 -.428E+01   -.919E+01 -.693E+01 0.425E+01   0.593E-01 0.693E-01 0.363E-01
   0.565E+01 0.570E+01 0.139E+02   -.553E+01 -.601E+01 -.140E+02   -.170E-01 0.314E+00 0.480E-01
   0.538E+01 0.828E+01 0.509E+01   -.541E+01 -.836E+01 -.506E+01   0.163E-02 0.104E+00 -.218E-01
   0.228E+02 0.231E+02 -.173E+02   -.230E+02 -.233E+02 0.172E+02   0.291E+00 0.833E-01 0.461E-01
   0.348E+02 0.512E+02 0.162E+00   -.365E+02 -.540E+02 -.828E+00   0.177E+01 0.318E+01 0.748E+00
   0.181E+02 0.219E+01 0.128E+02   -.183E+02 -.202E+01 -.126E+02   0.245E+00 -.142E+00 -.136E+00
   0.205E+02 0.125E+02 0.165E+02   -.210E+02 -.129E+02 -.166E+02   0.381E+00 0.218E+00 0.131E+00
   0.401E+02 -.418E+02 0.232E+02   -.419E+02 0.451E+02 -.241E+02   0.169E+01 -.300E+01 0.850E+00
   0.132E+02 -.847E+01 0.206E+02   -.133E+02 0.870E+01 -.206E+02   0.223E+00 -.224E+00 0.551E-01
   0.213E+02 -.802E+01 0.215E+02   -.215E+02 0.861E+01 -.216E+02   0.116E+00 -.477E+00 0.149E+00
   0.416E+02 -.156E+02 0.282E+02   -.450E+02 0.155E+02 -.284E+02   0.291E+01 0.803E-01 0.202E+00
   0.199E+02 -.134E+02 0.200E+02   -.201E+02 0.132E+02 -.201E+02   0.241E+00 -.964E-01 0.734E-01
   0.352E+01 -.344E+01 0.103E+02   -.337E+01 0.350E+01 -.104E+02   -.118E+00 0.639E-02 0.391E-01
   0.808E+01 -.720E+01 0.145E+02   -.832E+01 0.701E+01 -.144E+02   0.164E+00 0.983E-01 -.945E-01
   0.155E+02 -.989E+01 0.148E+02   -.159E+02 0.104E+02 -.148E+02   0.265E+00 -.206E+00 0.502E-01
   -.169E+01 -.516E+01 0.191E+02   0.139E+01 0.518E+01 -.190E+02   0.265E+00 -.945E-01 -.510E-01
   0.708E+01 0.626E+01 0.128E+02   -.760E+01 -.667E+01 -.129E+02   0.417E+00 0.399E+00 0.712E-01
   0.506E+01 -.531E+01 0.181E+02   -.487E+01 0.529E+01 -.181E+02   -.992E-01 0.248E-01 0.411E-01
   -.928E+01 0.769E+01 0.218E+02   0.945E+01 -.812E+01 -.219E+02   -.122E+00 0.485E+00 0.751E-01
   -.296E+01 0.209E+02 0.167E+02   0.287E+01 -.216E+02 -.165E+02   0.126E+00 0.648E+00 -.225E+00
   0.397E+02 0.508E+02 -.104E+02   -.421E+02 -.541E+02 0.957E+01   0.243E+01 0.318E+01 0.810E+00
   0.818E+01 0.247E+02 0.129E+02   -.851E+01 -.253E+02 -.130E+02   0.275E+00 0.553E+00 0.166E+00
   -.243E+02 0.304E+02 0.288E+02   0.250E+02 -.315E+02 -.292E+02   -.645E+00 0.107E+01 0.385E+00
   -.421E+02 0.448E+02 -.324E+01   0.443E+02 -.484E+02 0.239E+01   -.226E+01 0.353E+01 0.850E+00
   0.483E+00 -.477E+02 0.252E+02   -.247E+01 0.509E+02 -.253E+02   0.174E+01 -.305E+01 0.101E+00
   0.945E+01 -.211E+02 0.181E+02   -.943E+01 0.213E+02 -.180E+02   0.170E+00 -.329E+00 -.633E-01
   -.663E+00 -.480E+02 0.283E+02   0.198E+01 0.509E+02 -.285E+02   -.106E+01 -.264E+01 0.285E+00
   -.123E+02 -.174E+02 0.196E+02   0.121E+02 0.179E+02 -.196E+02   0.879E-01 -.409E+00 0.548E-01
   -.608E+01 -.218E+01 0.137E+02   0.626E+01 0.212E+01 -.137E+02   -.129E+00 0.285E-01 0.101E-01
   -.962E+01 0.271E+01 0.220E+02   0.963E+01 -.282E+01 -.220E+02   -.976E-01 0.145E+00 -.510E-02
   -.979E+01 0.652E+00 0.175E+02   0.994E+01 -.676E+00 -.176E+02   -.212E+00 -.558E-01 0.294E-01
   -.158E+01 0.413E+01 0.136E+02   0.176E+01 -.428E+01 -.136E+02   -.179E+00 0.111E+00 0.262E-01
   -.826E+01 0.254E+01 0.187E+02   0.852E+01 -.260E+01 -.187E+02   -.235E+00 0.936E-01 0.183E-02
   -.227E+02 0.932E+01 0.286E+02   0.234E+02 -.952E+01 -.288E+02   -.702E+00 0.136E+00 0.205E+00
   -.117E+02 0.932E+01 0.253E+02   0.119E+02 -.960E+01 -.253E+02   -.245E+00 0.309E+00 0.505E-01
   -.217E+01 0.228E+01 0.179E+02   0.224E+01 -.235E+01 -.179E+02   -.127E+00 0.395E-01 0.534E-01
   -.882E+01 0.194E+01 0.156E+02   0.930E+01 -.174E+01 -.156E+02   -.363E+00 -.142E+00 0.267E-01
   -.552E+02 -.118E+02 0.895E+01   0.593E+02 0.123E+02 -.913E+01   -.399E+01 -.551E+00 0.199E+00
   -.242E+02 0.696E+00 0.158E+02   0.247E+02 -.736E+00 -.158E+02   -.569E+00 0.127E+00 -.274E-01
   -.283E+00 -.248E+01 0.123E+02   0.144E+00 0.276E+01 -.123E+02   0.914E-01 -.302E+00 -.198E-01
   -.351E+00 -.249E+01 0.138E+02   0.493E+00 0.272E+01 -.138E+02   -.202E-01 -.135E+00 0.333E-01
   -.511E+02 0.147E+01 0.154E+02   0.547E+02 -.166E+01 -.154E+02   -.368E+01 0.282E+00 -.192E-01
   -.229E+02 -.369E+01 0.130E+02   0.231E+02 0.390E+01 -.130E+02   -.258E+00 -.208E+00 0.597E-01
   -.181E+01 -.144E+00 0.161E+02   0.185E+01 0.164E-01 -.161E+02   -.157E+00 0.884E-01 0.203E-02
   -.577E+01 -.568E+01 0.127E+02   0.608E+01 0.546E+01 -.127E+02   -.300E+00 0.141E+00 0.200E-01
   -.147E+02 -.898E+01 0.158E+02   0.149E+02 0.927E+01 -.158E+02   -.244E+00 -.146E+00 0.195E-01
   -.195E+02 -.170E+01 0.125E+02   0.200E+02 0.179E+01 -.125E+02   -.431E+00 -.210E+00 -.282E-01
   -.201E+01 0.187E+01 0.113E+02   0.213E+01 -.187E+01 -.113E+02   -.118E+00 0.414E-01 -.531E-02
   0.318E+02 0.684E+01 -.167E+02   -.121E+02 -.642E+01 0.185E+02   -.188E+02 -.542E+00 -.222E+01
   0.173E+02 0.460E+02 -.796E+02   -.264E+02 -.302E+02 0.851E+02   0.897E+01 -.149E+02 -.551E+01
   -.542E+02 -.327E+02 -.941E+01   0.450E+02 0.492E+02 0.108E+02   0.886E+01 -.158E+02 -.116E+01
   0.249E+02 0.919E+00 0.516E+02   -.158E+02 -.173E+02 -.526E+02   -.848E+01 0.152E+02 0.109E+01
   -.345E+02 0.127E+02 0.424E+02   0.255E+02 -.283E+02 -.435E+02   0.863E+01 0.146E+02 0.104E+01
   0.416E+02 -.464E+02 -.825E+03   -.444E+02 0.419E+02 0.819E+03   0.172E+01 0.408E+01 0.842E+01
   -.275E+02 -.273E+02 0.103E+03   0.315E+02 0.317E+02 -.102E+03   -.338E+01 -.360E+01 -.165E+01
 -----------------------------------------------------------------------------------------------
   0.477E+01 -.228E+01 -.455E+01   0.334E-12 0.426E-13 -.341E-12   -.478E+01 0.244E+01 0.524E+01
 
 
 POSITION                                       TOTAL-FORCE (eV/Angst)
 -----------------------------------------------------------------------------------
      2.85078      0.02822      9.98298         0.119491     -0.244278     -0.006110
      0.73596      1.26800      9.96873         0.017272     -0.043777     -0.001453
      1.42641      0.01922      9.96980        -0.103195     -0.012897     -0.008502
      3.56429      1.27987     10.02731         0.073225      0.094245     -0.005398
      2.88096      2.54355     10.08040         0.039316     -0.050066     -0.000404
      0.72719      3.75308      9.98787         0.107413      0.015259      0.011666
      1.44708      2.52022     10.01238        -0.032401      0.032984      0.004007
      3.60616      3.79494     10.19558         0.068184     -0.172886     -0.033389
      2.84900      5.04464     10.18086         0.173331      0.575735      0.122060
      0.69327      6.24070      9.99884         0.082328      0.020188      0.009244
      1.42438      5.00381     10.03415        -0.112384     -0.080363      0.039292
      2.84143      7.46983     10.08970         0.042638      0.138111      0.014718
      0.68559      8.70141      9.94401         0.111734     -0.011287      0.025166
      1.40992      7.47900      9.99357        -0.073980      0.088908      0.078361
      3.61217      8.69902     10.00647        -0.328223     -0.063981     -0.073107
      2.86212      9.92673      9.95949         0.041941     -0.266048      0.034539
      0.71585     11.17408      9.94584         0.028466      0.062108     -0.003385
      1.42291      9.92842      9.94941        -0.065756     -0.081025     -0.000870
      3.55180     11.18953      9.95804        -0.109036      0.266507      0.010985
      7.11348      0.01849      9.92363        -0.020974     -0.078859      0.009400
      4.98234      1.25906     10.00096        -0.078986      0.004338      0.011006
      5.69268      0.02467      9.94673         0.082011     -0.000935     -0.003241
      7.84567      1.23213      9.92678         0.035964      0.084371      0.004435
      7.13768      2.44997      9.99561         0.050673     -0.006602      0.014842
      5.05371      3.72978     10.23055         0.162339      0.063623      0.022573
      5.71410      2.47969     10.05730        -0.032207      0.050055      0.029017
      7.87516      3.65381     10.00392         0.053891      0.012518      0.045817
      7.17963      4.84593     10.18766        -0.183986      0.111696      0.046606
      7.10637      9.97559      9.92604        -0.149947      0.042717     -0.035080
      4.97721     11.19183      9.94555         0.195243     -0.132548      0.004992
      5.67448      9.96184      9.94317         0.206583      0.146824      0.090407
      7.81988     11.19253      9.91310        -0.057547      0.060961      0.020841
     11.40225      0.01109      9.91631         0.035518     -0.031055     -0.000511
      9.27002      1.24052      9.90206        -0.087045      0.036613      0.012766
      9.97456      0.00516      9.90268        -0.077919     -0.079472      0.000635
     12.12139      1.25397      9.92940        -0.014926     -0.024275     -0.000010
     11.41406      2.49152      9.91772         0.014378      0.043949      0.010213
      9.28658      3.69788      9.93602        -0.083187     -0.057325      0.052764
      9.99261      2.47276      9.90391        -0.041668      0.042964      0.015738
     12.10691      3.74262      9.94166        -0.053813     -0.026584      0.011084
     11.37930      4.97920      9.95079         0.092506      0.049885      0.009708
      9.17886      6.16700     10.02338        -0.128314     -0.074522      0.036908
      9.95317      4.95722      9.96653        -0.060427      0.090912     -0.004713
     12.06830      6.23095      9.96441        -0.045618     -0.045268     -0.001963
     11.31659      7.45504      9.94977         0.131482      0.080845      0.005100
      9.15577      8.70368      9.94544        -0.299454      0.110856      0.030130
      9.85927      7.44090      9.96818        -0.006343     -0.006544      0.026339
     12.05645      8.68569      9.93342        -0.131673     -0.028345      0.000732
     11.35700      9.92659      9.92659        -0.009716     -0.081871     -0.000564
      9.24602     11.17917      9.91101        -0.055551      0.142148     -0.006400
      9.92434      9.92634      9.92701         0.020068     -0.125139     -0.025619
     12.09273     11.16482      9.92798        -0.007323      0.049924     -0.003386
      3.47969      6.26619     10.31499        -0.780062     -0.159738     -0.583782
      5.84198      4.84799     10.44353         0.627956     -0.410820     -0.475919
      7.79870      6.07531     10.13963         0.416879     -0.760929      0.138908
      5.02667      8.72720      9.99096        -0.100388      0.140655      0.186650
      7.77160      8.76446      9.93604         0.347560      0.290679      0.055151
      5.08447      6.34414     11.29249        -0.587870     -0.474420      1.178882
      6.45279      7.41048     10.08826         0.541529      0.681282     -1.147877
 -----------------------------------------------------------------------------------
    total drift:                                0.005946     -0.000732     -0.009515


--------------------------------------------------------------------------------------------------------



  FREE ENERGIE OF THE ION-ELECTRON SYSTEM (eV)
  ---------------------------------------------------
  free  energy   TOTEN  =      -618.74537346 eV

  energy  without entropy=     -618.74458617  energy(sigma->0) =     -618.74497982
 


--------------------------------------------------------------------------------------------------------


    POTLOK:  cpu time    2.2233: real time    2.2324


--------------------------------------------------------------------------------------------------------


 stress matrix after NEB project (eV)
    -44.02325    -11.15586     -0.60373
    -11.15449    -36.80606     -0.81722
     -0.60135     -0.81421      0.60731
  FORCES: max atom, RMS     1.440493    0.375566
  FORCE total and by dimension    2.884780    1.178882
  Stress total and by dimension   59.531792   44.023247
 writing wavefunctions
     LOOP+:  cpu time49716.9623: real time49883.1372
 vacuum level on the upper side and lower side of the slab         1.383         1.617
    4ORBIT:  cpu time    0.0000: real time    0.0000
 


 total charge     
 
# of ion       s       p       d       tot
------------------------------------------
    1        0.864   1.767   0.000   2.631
    2        0.865   1.759   0.000   2.625
    3        0.865   1.773   0.000   2.638
    4        0.862   1.768   0.000   2.629
    5        0.860   1.735   0.000   2.595
    6        0.865   1.761   0.000   2.626
    7        0.860   1.763   0.000   2.623
    8        0.847   1.743   0.000   2.590
    9        0.855   1.701   0.000   2.556
   10        0.865   1.748   0.000   2.612
   11        0.862   1.769   0.000   2.631
   12        0.852   1.731   0.000   2.583
   13        0.863   1.767   0.000   2.629
   14        0.866   1.772   0.000   2.637
   15        0.844   1.702   0.000   2.546
   16        0.861   1.746   0.000   2.607
   17        0.864   1.756   0.000   2.620
   18        0.862   1.759   0.000   2.621
   19        0.864   1.770   0.000   2.635
   20        0.869   1.795   0.000   2.665
   21        0.870   1.774   0.000   2.644
   22        0.866   1.783   0.000   2.649
   23        0.871   1.795   0.000   2.665
   24        0.874   1.788   0.000   2.662
   25        0.857   1.717   0.000   2.574
   26        0.867   1.787   0.000   2.654
   27        0.877   1.833   0.000   2.710
   28        0.868   1.744   0.000   2.613
   29        0.863   1.763   0.000   2.626
   30        0.870   1.783   0.000   2.653
   31        0.859   1.748   0.000   2.608
   32        0.871   1.795   0.000   2.667
   33        0.866   1.764   0.000   2.630
   34        0.868   1.774   0.000   2.642
   35        0.866   1.781   0.000   2.647
   36        0.865   1.773   0.000   2.637
   37        0.869   1.769   0.000   2.638
   38        0.872   1.786   0.000   2.658
   39        0.869   1.787   0.000   2.656
   40        0.863   1.766   0.000   2.629
   41        0.866   1.758   0.000   2.624
   42        0.855   1.704   0.000   2.558
   43        0.863   1.780   0.000   2.643
   44        0.861   1.766   0.000   2.627
   45        0.858   1.735   0.000   2.592
   46        0.853   1.703   0.000   2.556
   47        0.849   1.751   0.000   2.600
   48        0.861   1.765   0.000   2.626
   49        0.865   1.755   0.000   2.620
   50        0.868   1.768   0.000   2.637
   51        0.862   1.769   0.000   2.631
   52        0.863   1.763   0.000   2.626
   53        1.230   2.685   0.000   3.914
   54        1.230   2.700   0.000   3.930
   55        1.229   2.691   0.000   3.920
   56        1.217   2.653   0.000   3.870
   57        1.226   2.679   0.000   3.906
   58        0.429   0.393   7.488   8.310
   59        0.468   0.579   6.312   7.360
--------------------------------------------------
tot         51.916 105.996  13.800 171.712
 


 magnetization (x)
 
# of ion       s       p       d       tot
------------------------------------------
    1        0.000   0.003   0.000   0.003
    2       -0.000  -0.000   0.000  -0.000
    3        0.000   0.002   0.000   0.002
    4        0.000   0.002   0.000   0.002
    5       -0.000  -0.003   0.000  -0.003
    6        0.000   0.001   0.000   0.001
    7        0.000   0.002   0.000   0.002
    8        0.001   0.006   0.000   0.006
    9        0.000  -0.000   0.000   0.000
   10       -0.000  -0.006   0.000  -0.007
   11        0.001   0.004   0.000   0.005
   12        0.000  -0.004   0.000  -0.004
   13        0.000   0.004   0.000   0.004
   14        0.001   0.004   0.000   0.004
   15        0.000  -0.003   0.000  -0.002
   16        0.000   0.003   0.000   0.003
   17       -0.000  -0.002   0.000  -0.002
   18        0.000   0.003   0.000   0.003
   19       -0.000  -0.002   0.000  -0.002
   20        0.000   0.003   0.000   0.003
   21       -0.000  -0.001   0.000  -0.001
   22        0.000   0.001   0.000   0.001
   23        0.000   0.003   0.000   0.003
   24       -0.000  -0.003   0.000  -0.003
   25       -0.001  -0.003   0.000  -0.004
   26        0.001   0.004   0.000   0.005
   27        0.000   0.004   0.000   0.004
   28       -0.000  -0.003   0.000  -0.003
   29        0.000   0.004   0.000   0.005
   30       -0.000  -0.001   0.000  -0.002
   31       -0.000  -0.002   0.000  -0.002
   32       -0.000   0.000   0.000  -0.000
   33       -0.000   0.000   0.000  -0.000
   34       -0.000  -0.002   0.000  -0.002
   35        0.000   0.002   0.000   0.003
   36        0.000   0.003   0.000   0.004
   37       -0.000  -0.003   0.000  -0.004
   38        0.000   0.000   0.000   0.000
   39        0.000   0.002   0.000   0.002
   40        0.000   0.003   0.000   0.003
   41       -0.000  -0.002   0.000  -0.002
   42       -0.000  -0.001   0.000  -0.001
   43        0.000   0.004   0.000   0.004
   44        0.000   0.004   0.000   0.004
   45       -0.000  -0.003   0.000  -0.003
   46       -0.000   0.000   0.000   0.000
   47        0.000   0.003   0.000   0.003
   48        0.000   0.003   0.000   0.004
   49       -0.000  -0.000   0.000  -0.000
   50       -0.000  -0.004   0.000  -0.005
   51       -0.000   0.003   0.000   0.003
   52        0.000   0.002   0.000   0.002
   53        0.006   0.030   0.000   0.037
   54        0.002   0.025   0.000   0.027
   55       -0.003  -0.015   0.000  -0.018
   56       -0.003  -0.004   0.000  -0.007
   57       -0.006  -0.031   0.000  -0.037
   58       -0.009   0.024   1.775   1.790
   59        0.017   0.002   1.923   1.941
--------------------------------------------------
tot          0.006   0.067   3.698   3.771
 

 total amount of memory used by VASP MPI-rank0   154965. kBytes
=======================================================================

   base      :      30000. kBytes
   nonl-proj :       4307. kBytes
   fftplans  :      11188. kBytes
   grid      :      29312. kBytes
   one-center:         62. kBytes
   HF        :         23. kBytes
   nonlr-proj:      17346. kBytes
   wavefun   :      62727. kBytes
 
  
  
 General timing and accounting informations for this job:
 ========================================================
  
                  Total CPU time used (sec):    49783.508
                            User time (sec):    49633.124
                          System time (sec):      150.384
                         Elapsed time (sec):    49956.830
  
                   Maximum memory used (kb):      399628.
                   Average memory used (kb):           0.
  
                          Minor page faults:      3392032
                          Major page faults:            1
                 Voluntary context switches:       554748
