 vasp.5.4.4.18Apr17-6-g9f103f2a35 (build Feb 25 2019 10:51:38) complex          
  
 executed on             LinuxIFC date 2021.06.17  07:39:49
 running on   80 total cores
 distrk:  each k-point on   40 cores,    2 groups
 distr:  one band on NCORES_PER_BAND=  40 cores,    1 groups


--------------------------------------------------------------------------------------------------------


 INCAR:
 POTCAR:    PAW_PBE C 08Apr2002                   
 POTCAR:    PAW_PBE N 08Apr2002                   
 POTCAR:    PAW_PBE Fe 06Sep2000                  
 POTCAR:    PAW_PBE Mn 06Sep2000                  

 ----------------------------------------------------------------------------- 
|                                                                             |
|           W    W    AA    RRRRR   N    N  II  N    N   GGGG   !!!           |
|           W    W   A  A   R    R  NN   N  II  NN   N  G    G  !!!           |
|           W    W  A    A  R    R  N N  N  II  N N  N  G       !!!           |
|           W WW W  AAAAAA  RRRRR   N  N N  II  N  N N  G  GGG   !            |
|           WW  WW  A    A  R   R   N   NN  II  N   NN  G    G                |
|           W    W  A    A  R    R  N    N  II  N    N   GGGG   !!!           |
|                                                                             |
|      For optimal performance we recommend to set                            |
|        NCORE= 4 - approx SQRT( number of cores)                             |
|      NCORE specifies how many cores store one orbital (NPAR=cpu/NCORE).     |
|      This setting can  greatly improve the performance of VASP for DFT.     |
|      The default,   NCORE=1            might be grossly inefficient         |
|      on modern multi-core architectures or massively parallel machines.     |
|      Do your own testing !!!!                                               |
|      Unfortunately you need to use the default for GW and RPA calculations. |
|      (for HF NCORE is supported but not extensively tested yet)             |
|                                                                             |
 ----------------------------------------------------------------------------- 


 ----------------------------------------------------------------------------- 
|                                                                             |
|           W    W    AA    RRRRR   N    N  II  N    N   GGGG   !!!           |
|           W    W   A  A   R    R  NN   N  II  NN   N  G    G  !!!           |
|           W    W  A    A  R    R  N N  N  II  N N  N  G       !!!           |
|           W WW W  AAAAAA  RRRRR   N  N N  II  N  N N  G  GGG   !            |
|           WW  WW  A    A  R   R   N   NN  II  N   NN  G    G                |
|           W    W  A    A  R    R  N    N  II  N    N   GGGG   !!!           |
|                                                                             |
|      You have enabled k-point parallelism (KPAR>1).                         |
|      This developmental code was originally  written by Paul Kent at ORNL,  |
|      and carefully double checked in Vienna.                                |
|      GW as well as linear response parallelism added by Martijn Marsman     |
|      and Georg Kresse.                                                      |
|      Carefully verify results versus KPAR=1.                                |
|      Report problems to Paul Kent and Vienna.                               |
|                                                                             |
 ----------------------------------------------------------------------------- 

 POTCAR:    PAW_PBE C 08Apr2002                   
   VRHFIN =C: s2p2                                                              
   LEXCH  = PE                                                                  
   EATOM  =   147.1560 eV,   10.8157 Ry                                         
                                                                                
   TITEL  = PAW_PBE C 08Apr2002                                                 
   LULTRA =        F    use ultrasoft PP ?                                      
   IUNSCR =        1    unscreen: 0-lin 1-nonlin 2-no                           
   RPACOR =    1.200    partial core radius                                     
   POMASS =   12.011; ZVAL   =    4.000    mass and valenz                      
   RCORE  =    1.500    outmost cutoff radius                                   
   RWIGS  =    1.630; RWIGS  =    0.863    wigner-seitz radius (au A)           
   ENMAX  =  400.000; ENMIN  =  300.000 eV                                      
   ICORE  =        2    local potential                                         
   LCOR   =        T    correct aug charges                                     
   LPAW   =        T    paw PP                                                  
   EAUG   =  644.873                                                            
   DEXC   =    0.000                                                            
   RMAX   =    1.529    core radius for proj-oper                               
   RAUG   =    1.300    factor for augmentation sphere                          
   RDEP   =    1.501    radius for radial grids                                 
   RDEPT  =    1.300    core radius for aug-charge                              
                                                                                
   Atomic configuration                                                         
    4 entries                                                                   
     n  l   j            E        occ.                                          
     1  0  0.50      -273.3789   2.0000                                         
     2  0  0.50       -13.7508   2.0000                                         
     2  1  0.50        -5.2854   2.0000                                         
     3  2  1.50        -5.4423   0.0000                                         
   Description                                                                  
     l       E           TYP  RCUT    TYP  RCUT                                 
     0    -13.7508458     23  1.200                                             
     0     -8.2022199     23  1.200                                             
     1     -5.2854383     23  1.500                                             
     1     34.0145650     23  1.500                                             
     2     -5.4423304      7  1.500                                             
  local pseudopotential read in
  partial core-charges read in
  partial kinetic energy density read in
  atomic valenz-charges read in
  non local Contribution for L=           0  read in
    real space projection operators read in
  non local Contribution for L=           0  read in
    real space projection operators read in
  non local Contribution for L=           1  read in
    real space projection operators read in
  non local Contribution for L=           1  read in
    real space projection operators read in
    PAW grid and wavefunctions read in
 
   number of l-projection  operators is LMAX  =           4
   number of lm-projection operators is LMMAX =           8
 
 POTCAR:    PAW_PBE N 08Apr2002                   
   VRHFIN =N: s2p3                                                              
   LEXCH  = PE                                                                  
   EATOM  =   264.5486 eV,   19.4438 Ry                                         
                                                                                
   TITEL  = PAW_PBE N 08Apr2002                                                 
   LULTRA =        F    use ultrasoft PP ?                                      
   IUNSCR =        1    unscreen: 0-lin 1-nonlin 2-no                           
   RPACOR =    1.200    partial core radius                                     
   POMASS =   14.001; ZVAL   =    5.000    mass and valenz                      
   RCORE  =    1.500    outmost cutoff radius                                   
   RWIGS  =    1.400; RWIGS  =    0.741    wigner-seitz radius (au A)           
   ENMAX  =  400.000; ENMIN  =  300.000 eV                                      
   ICORE  =        2    local potential                                         
   LCOR   =        T    correct aug charges                                     
   LPAW   =        T    paw PP                                                  
   EAUG   =  627.112                                                            
   DEXC   =    0.000                                                            
   RMAX   =    1.529    core radius for proj-oper                               
   RAUG   =    1.300    factor for augmentation sphere                          
   RDEP   =    1.514    radius for radial grids                                 
   RDEPT  =    1.338    core radius for aug-charge                              
                                                                                
   Atomic configuration                                                         
    4 entries                                                                   
     n  l   j            E        occ.                                          
     1  0  0.50      -384.7179   2.0000                                         
     2  0  0.50       -18.5828   2.0000                                         
     2  1  0.50        -7.0898   3.0000                                         
     3  2  1.50        -6.8029   0.0000                                         
   Description                                                                  
     l       E           TYP  RCUT    TYP  RCUT                                 
     0    -18.5828119     23  1.200                                             
     0    -13.5018863     23  1.200                                             
     1     -7.0897853     23  1.500                                             
     1      9.5240782     23  1.500                                             
     2     -6.8029130      7  1.500                                             
  local pseudopotential read in
  partial core-charges read in
  partial kinetic energy density read in
  atomic valenz-charges read in
  non local Contribution for L=           0  read in
    real space projection operators read in
  non local Contribution for L=           0  read in
    real space projection operators read in
  non local Contribution for L=           1  read in
    real space projection operators read in
  non local Contribution for L=           1  read in
    real space projection operators read in
    PAW grid and wavefunctions read in
 
   number of l-projection  operators is LMAX  =           4
   number of lm-projection operators is LMMAX =           8
 
 POTCAR:    PAW_PBE Fe 06Sep2000                  
   VRHFIN =Fe:  d7 s1                                                           
   LEXCH  = PE                                                                  
   EATOM  =   594.3153 eV,   43.6809 Ry                                         
                                                                                
   TITEL  = PAW_PBE Fe 06Sep2000                                                
   LULTRA =        F    use ultrasoft PP ?                                      
   IUNSCR =        1    unscreen: 0-lin 1-nonlin 2-no                           
   RPACOR =    2.000    partial core radius                                     
   POMASS =   55.847; ZVAL   =    8.000    mass and valenz                      
   RCORE  =    2.300    outmost cutoff radius                                   
   RWIGS  =    2.460; RWIGS  =    1.302    wigner-seitz radius (au A)           
   ENMAX  =  267.882; ENMIN  =  200.911 eV                                      
   RCLOC  =    1.701    cutoff for local pot                                    
   LCOR   =        T    correct aug charges                                     
   LPAW   =        T    paw PP                                                  
   EAUG   =  511.368                                                            
   DEXC   =    0.000                                                            
   RMAX   =    2.356    core radius for proj-oper                               
   RAUG   =    1.300    factor for augmentation sphere                          
   RDEP   =    2.442    radius for radial grids                                 
   RDEPT  =    1.890    core radius for aug-charge                              
                                                                                
   Atomic configuration                                                         
    9 entries                                                                   
     n  l   j            E        occ.                                          
     1  0  0.50     -6993.8440   2.0000                                         
     2  0  0.50      -814.6047   2.0000                                         
     2  1  1.50      -693.3689   6.0000                                         
     3  0  0.50       -89.4732   2.0000                                         
     3  1  1.50       -55.6373   6.0000                                         
     3  2  2.50        -3.8151   7.0000                                         
     4  0  0.50        -4.2551   1.0000                                         
     4  1  1.50        -3.4015   0.0000                                         
     4  3  2.50        -1.3606   0.0000                                         
   Description                                                                  
     l       E           TYP  RCUT    TYP  RCUT                                 
     2     -3.8151135     23  2.300                                             
     2     -5.1756961     23  2.300                                             
     0     -4.2550963     23  2.300                                             
     0      7.2035603     23  2.300                                             
     1     -2.7211652     23  2.300                                             
     1     18.4316424     23  2.300                                             
  local pseudopotential read in
  partial core-charges read in
  partial kinetic energy density read in
  atomic valenz-charges read in
  non local Contribution for L=           2  read in
    real space projection operators read in
  non local Contribution for L=           2  read in
    real space projection operators read in
  non local Contribution for L=           0  read in
    real space projection operators read in
  non local Contribution for L=           0  read in
    real space projection operators read in
  non local Contribution for L=           1  read in
    real space projection operators read in
  non local Contribution for L=           1  read in
    real space projection operators read in
    PAW grid and wavefunctions read in
 
   number of l-projection  operators is LMAX  =           6
   number of lm-projection operators is LMMAX =          18
 
 POTCAR:    PAW_PBE Mn 06Sep2000                  
   VRHFIN =Mn: d6 s1                                                            
   LEXCH  = PE                                                                  
   EATOM  =   416.7541 eV,   30.6306 Ry                                         
                                                                                
   TITEL  = PAW_PBE Mn 06Sep2000                                                
   LULTRA =        F    use ultrasoft PP ?                                      
   IUNSCR =        1    unscreen: 0-lin 1-nonlin 2-no                           
   RPACOR =    2.000    partial core radius                                     
   POMASS =   54.938; ZVAL   =    7.000    mass and valenz                      
   RCORE  =    2.300    outmost cutoff radius                                   
   RWIGS  =    2.500; RWIGS  =    1.323    wigner-seitz radius (au A)           
   ENMAX  =  269.864; ENMIN  =  202.398 eV                                      
   RCLOC  =    1.725    cutoff for local pot                                    
   LCOR   =        T    correct aug charges                                     
   LPAW   =        T    paw PP                                                  
   EAUG   =  500.711                                                            
   DEXC   =    0.000                                                            
   RMAX   =    2.343    core radius for proj-oper                               
   RAUG   =    1.300    factor for augmentation sphere                          
   RDEP   =    2.338    radius for radial grids                                 
   RDEPT  =    1.911    core radius for aug-charge                              
                                                                                
   Atomic configuration                                                         
    9 entries                                                                   
     n  l   j            E        occ.                                          
     1  0  0.50     -6424.8288   2.0000                                         
     2  0  0.50      -739.1154   2.0000                                         
     2  1  1.50      -625.3949   6.0000                                         
     3  0  0.50       -81.6100   2.0000                                         
     3  1  1.50       -50.4667   6.0000                                         
     3  2  2.50        -3.3745   6.0000                                         
     4  0  0.50        -4.1331   1.0000                                         
     4  1  0.50        -4.0817   0.0000                                         
     4  3  2.50        -1.3606   0.0000                                         
   Description                                                                  
     l       E           TYP  RCUT    TYP  RCUT                                 
     2     -3.3744664     23  2.300                                             
     2     -4.7350490     23  2.300                                             
     0     -4.1331408     23  2.300                                             
     0      7.6656614     23  2.300                                             
     1     -2.7211652     23  2.300                                             
     1     20.4087390     23  2.300                                             
  local pseudopotential read in
  partial core-charges read in
  partial kinetic energy density read in
  atomic valenz-charges read in
  non local Contribution for L=           2  read in
    real space projection operators read in
  non local Contribution for L=           2  read in
    real space projection operators read in
  non local Contribution for L=           0  read in
    real space projection operators read in
  non local Contribution for L=           0  read in
    real space projection operators read in
  non local Contribution for L=           1  read in
    real space projection operators read in
  non local Contribution for L=           1  read in
    real space projection operators read in
    PAW grid and wavefunctions read in
 
   number of l-projection  operators is LMAX  =           6
   number of lm-projection operators is LMMAX =          18
 

 ----------------------------------------------------------------------------- 
|                                                                             |
|  ADVICE TO THIS USER RUNNING 'VASP/VAMP'   (HEAR YOUR MASTER'S VOICE ...):  |
|                                                                             |
|      You have a (more or less) 'large supercell' and for larger cells       |
|      it might be more efficient to use real space projection opertators     |
|      So try LREAL= Auto  in the INCAR   file.                               |
|      Mind:          For very  accurate calculation you might also keep the  |
|      reciprocal projection scheme          (i.e. LREAL=.FALSE.)             |
|                                                                             |
 ----------------------------------------------------------------------------- 

  PAW_PBE C 08Apr2002                   :
 energy of atom  1       EATOM= -147.1560
 kinetic energy error for atom=    0.0076 (will be added to EATOM!!)
  PAW_PBE N 08Apr2002                   :
 energy of atom  2       EATOM= -264.5486
 kinetic energy error for atom=    0.0138 (will be added to EATOM!!)
  PAW_PBE Fe 06Sep2000                  :
 energy of atom  3       EATOM= -594.3153
 kinetic energy error for atom=    0.0026 (will be added to EATOM!!)
  PAW_PBE Mn 06Sep2000                  :
 energy of atom  4       EATOM= -416.7541
 kinetic energy error for atom=    0.0024 (will be added to EATOM!!)
 
 
 POSCAR:  C  N Fe Mn                             
  positions in cartesian coordinates
  No initial velocities read in
 exchange correlation table for  LEXCH =        8
   RHO(1)=    0.500       N(1)  =     2000
   RHO(2)=  100.500       N(2)  =     4000

 VTST: version 3.2, (02/03/18)

 CHAIN: initializing optimizer
 
 OPT: Using VASP Conjugate-Gradient optimizer
 CHAIN: Read ICHAIN            0
 
 POSCAR:  C  N Fe Mn                             
  positions in cartesian coordinates
  No initial velocities read in
 


--------------------------------------------------------------------------------------------------------


 ion  position               nearest neighbor table
   1  0.222  0.998  0.501-   3 1.41   4 1.41  17 1.42
   2  0.055  0.099  0.500-  34 1.42   7 1.43   3 1.43
   3  0.110  0.999  0.501-   1 1.41  15 1.43   2 1.43
   4  0.277  0.096  0.501-   1 1.41  19 1.42   5 1.42
   5  0.222  0.195  0.500-   8 1.41   7 1.42   4 1.42
   6  0.057  0.300  0.500-   7 1.44  38 1.44  10 1.44
   7  0.110  0.198  0.500-   5 1.42   2 1.43   6 1.44
   8  0.280  0.291  0.501-  51 1.37  53 1.38   5 1.41
   9  0.064  0.498  0.500-  10 1.45  12 1.47  42 1.47
  10  0.119  0.396  0.499-  51 1.41   6 1.44   9 1.45
  11  0.059  0.698  0.501-  46 1.43  16 1.44  12 1.45
  12  0.120  0.600  0.500-  52 1.39  11 1.45   9 1.47
  13  0.279  0.703  0.500-  52 1.38  14 1.41  25 1.42
  14  0.223  0.801  0.501-  13 1.41  16 1.42  17 1.42
  15  0.056  0.899  0.501-  50 1.41  16 1.43   3 1.43
  16  0.112  0.800  0.501-  14 1.42  15 1.43  11 1.44
  17  0.278  0.900  0.501-  28 1.41  14 1.42   1 1.42
  18  0.556  0.999  0.499-  20 1.41  30 1.42  21 1.42
  19  0.389  0.096  0.500-  23 1.41   4 1.42  20 1.42
  20  0.445  0.998  0.499-  18 1.41  19 1.42  28 1.42
  21  0.610  0.098  0.499-  22 1.41  32 1.42  18 1.42
  22  0.555  0.196  0.500-  54 1.38  21 1.41  23 1.42
  23  0.442  0.194  0.501-  53 1.39  19 1.41  22 1.42
  24  0.553  0.608  0.498-  55 1.37  56 1.38  26 1.42
  25  0.391  0.704  0.498-  56 1.39  29 1.41  13 1.42
  26  0.611  0.704  0.498-  27 1.41  24 1.42  44 1.42
  27  0.557  0.803  0.498-  29 1.41  26 1.41  30 1.41
  28  0.389  0.900  0.500-  17 1.41  29 1.42  20 1.42
  29  0.445  0.802  0.499-  25 1.41  27 1.41  28 1.42
  30  0.612  0.901  0.498-  48 1.41  27 1.41  18 1.42
  31  0.889  1.000  0.500-  33 1.41  34 1.43  50 1.44
  32  0.722  0.100  0.499-  21 1.42  33 1.43  37 1.44
  33  0.778  1.000  0.499-  31 1.41  32 1.43  48 1.43
  34  0.943  0.100  0.500-   2 1.42  31 1.43  35 1.44
  35  0.887  0.201  0.500-  37 1.43  38 1.44  34 1.44
  36  0.714  0.299  0.501-  54 1.39  37 1.45  41 1.47
  37  0.775  0.201  0.500-  35 1.43  32 1.44  36 1.45
  38  0.943  0.301  0.500-  39 1.44   6 1.44  35 1.44
  39  0.886  0.401  0.501-  38 1.44  42 1.46  41 1.48
  40  0.715  0.504  0.502-  55 1.41  45 1.44  41 1.45
  41  0.770  0.402  0.501-  40 1.45  36 1.47  39 1.48
  42  0.948  0.498  0.500-  43 1.44  39 1.46   9 1.47
  43  0.891  0.598  0.500-  42 1.44  45 1.44  46 1.44
  44  0.723  0.701  0.500-  26 1.42  49 1.43  45 1.44
  45  0.777  0.600  0.500-  44 1.44  40 1.44  43 1.44
  46  0.947  0.698  0.500-  11 1.43  43 1.44  47 1.44
  47  0.891  0.799  0.500-  49 1.42  50 1.44  46 1.44
  48  0.724  0.900  0.499-  30 1.41  33 1.43  49 1.43
  49  0.779  0.800  0.500-  47 1.42  44 1.43  48 1.43
  50  0.945  0.899  0.500-  15 1.41  47 1.44  31 1.44
  51  0.230  0.388  0.497-   8 1.37  10 1.41  57 1.91
  52  0.230  0.606  0.500-  13 1.38  12 1.39  57 1.96
  53  0.389  0.291  0.504-   8 1.38  23 1.39  58 1.97
  54  0.605  0.294  0.502-  22 1.38  36 1.39  58 2.03
  55  0.604  0.512  0.503-  24 1.37  40 1.41  58 1.96
  56  0.444  0.607  0.495-  24 1.38  25 1.39  57 1.97
  57  0.338  0.494  0.491-  51 1.91  52 1.96  56 1.97  58 2.27
  58  0.491  0.407  0.514-  55 1.96  53 1.97  54 2.03  57 2.27
 
  LATTYP: Found a triclinic cell.
 ALAT       =    34.6523373928
 B/A-ratio  =     0.3656232437
 C/A-ratio  =     1.2092190655
 COS(alpha) =     0.0001535446
 COS(beta)  =     0.6587503162
 COS(gamma) =     0.7323758138
  
  Lattice vectors:
  
 A1 = ( -25.3785337977, -12.5259635379, -19.9953681263)
 A2 = ( -12.6697000000,   0.0000000000,   0.0000000000)
 A3 = (  -0.0064338649, -12.5116328143, -39.9907362525)


Analysis of symmetry for initial positions (statically):
=====================================================================
 Subroutine PRICEL returns:
 Original cell was already a primitive cell.
 

 Routine SETGRP: Setting up the symmetry group for a 
 triclinic supercell.


 Subroutine GETGRP returns: Found  1 space group operations
 (whereof  1 operations were pure point group operations)
 out of a pool of  2 trial point group operations.


The static configuration has the point symmetry C_1 .


Analysis of symmetry for dynamics (positions and initial velocities):
=====================================================================
 Subroutine PRICEL returns:
 Original cell was already a primitive cell.
 

 Routine SETGRP: Setting up the symmetry group for a 
 triclinic supercell.


 Subroutine GETGRP returns: Found  1 space group operations
 (whereof  1 operations were pure point group operations)
 out of a pool of  2 trial point group operations.


The dynamic configuration has the point symmetry C_1 .


Analysis of structural, dynamic, and magnetic symmetry:
=====================================================================
 Subroutine PRICEL returns:
 Original cell was already a primitive cell.
 

 Routine SETGRP: Setting up the symmetry group for a 
 triclinic supercell.


 Subroutine GETGRP returns: Found  1 space group operations
 (whereof  1 operations were pure point group operations)
 out of a pool of  2 trial point group operations.


The magnetic configuration has the point symmetry C_1 .


 Subroutine INISYM returns: Found  1 space group operations
 (whereof  1 operations are pure point group operations),
 and found     1 'primitive' translations

 
 
 KPOINTS: KPOINTS created by Atomic Simulation Env

Automatic generation of k-mesh.
Space group operators:
 irot       det(A)        alpha          n_x          n_y          n_z        tau_x        tau_y        tau_z
    1     1.000000     0.000000     1.000000     0.000000     0.000000     0.000000     0.000000     0.000000
 
 Subroutine IBZKPT returns following result:
 ===========================================
 
 Found      2 irreducible k-points:
 
 Following reciprocal coordinates:
            Coordinates               Weight
  0.250000  0.250000 -0.000000      2.000000
 -0.250000  0.250000  0.000000      2.000000
 
 Following cartesian coordinates:
            Coordinates               Weight
  0.019732  0.019823  0.000046      2.000000
 -0.019732  0.020049 -0.000018      2.000000
 
 
 Subroutine IBZKPT_HF returns following result:
 ==============================================
 
 Found      4 k-points in 1st BZ
 the following      4 k-points will be used (e.g. in the exchange kernel)
 Following reciprocal coordinates:   # in IRBZ
  0.250000  0.250000 -0.000000    0.25000000   1 t-inv F
 -0.250000  0.250000  0.000000    0.25000000   2 t-inv F
 -0.250000 -0.250000  0.000000    0.25000000   1 t-inv T
  0.250000 -0.250000 -0.000000    0.25000000   2 t-inv T


--------------------------------------------------------------------------------------------------------




 Dimension of arrays:
   k-points           NKPTS =      2   k-points in BZ     NKDIM =      4   number of bands    NBANDS=    156
   number of dos      NEDOS =    301   number of ions     NIONS =     58
   non local maximal  LDIM  =      6   non local SUM 2l+1 LMDIM =     18
   total plane-waves  NPLWV = ******
   max r-space proj   IRMAX =      1   max aug-charges    IRDMAX=  16196
   dimension x,y,z NGX =    96 NGY =   96 NGZ =  150
   dimension x,y,z NGXF=   192 NGYF=  192 NGZF=  300
   support grid    NGXF=   192 NGYF=  192 NGZF=  300
   ions per type =              50   6   1   1
   NGX,Y,Z   is equivalent  to a cutoff of  12.60, 12.73, 12.47 a.u.
   NGXF,Y,Z  is equivalent  to a cutoff of  25.19, 25.45, 24.94 a.u.

 SYSTEM =  unknown system                          
 POSCAR =   C  N Fe Mn                             

 Startparameter for this run:
   NWRITE =      2    write-flag & timer
   PREC   = accura    normal or accurate (medium, high low for compatibility)
   ISTART =      1    job   : 0-new  1-cont  2-samecut
   ICHARG =      0    charge: 1-file 2-atom 10-const
   ISPIN  =      2    spin polarized calculation?
   LNONCOLLINEAR =      F non collinear calculations
   LSORBIT =      F    spin-orbit coupling
   INIWAV =      1    electr: 0-lowe 1-rand  2-diag
   LASPH  =      T    aspherical Exc in radial PAW
   METAGGA=      F    non-selfconsistent MetaGGA calc.

 Electronic Relaxation 1
   ENCUT  =  500.0 eV  36.75 Ry    6.06 a.u.  23.10 22.86 36.46*2*pi/ulx,y,z
   ENINI  =  500.0     initial cutoff
   ENAUG  =  644.9 eV  augmentation charge cutoff
   NELM   =    250;   NELMIN=  2; NELMDL=  0     # of ELM steps 
   EDIFF  = 0.1E-03   stopping-criterion for ELM
   LREAL  =      F    real-space projection
   NLSPLINE    = F    spline interpolate recip. space projectors
   LCOMPAT=      F    compatible to vasp.4.4
   GGA_COMPAT  = T    GGA compatible to vasp.4.4-vasp.4.6
   LMAXPAW     = -100 max onsite density
   LMAXMIX     =    2 max onsite mixed and CHGCAR
   VOSKOWN=      0    Vosko Wilk Nusair interpolation
   ROPT   =    0.00000   0.00000   0.00000   0.00000
 Ionic relaxation
   EDIFFG = -.3E-01   stopping-criterion for IOM
   NSW    =      0    number of steps for IOM
   NBLOCK =      1;   KBLOCK =      1    inner block; outer block 
   IBRION =     -1    ionic relax: 0-MD 1-quasi-New 2-CG
   NFREE  =      1    steps in history (QN), initial steepest desc. (CG)
   ISIF   =      2    stress and relaxation
   IWAVPR =     10    prediction:  0-non 1-charg 2-wave 3-comb
   ISYM   =      3    0-nonsym 1-usesym 2-fastsym
   LCORR  =      T    Harris-Foulkes like correction to forces

   POTIM  = 0.5000    time-step for ionic-motion
   TEIN   =    0.0    initial temperature
   TEBEG  =    0.0;   TEEND  =   0.0 temperature during run
   SMASS  =  -3.00    Nose mass-parameter (am)
   estimated Nose-frequenzy (Omega)   =  0.10E-29 period in steps =****** mass=  -0.367E-26a.u.
   SCALEE = 1.0000    scale energy and forces
   NPACO  =    256;   APACO  = 16.0  distance and # of slots for P.C.
   PSTRESS=    0.0 pullay stress

  Mass of Ions in am
   POMASS =  12.01 14.00 55.85 54.94
  Ionic Valenz
   ZVAL   =   4.00  5.00  8.00  7.00
  Atomic Wigner-Seitz radii
   RWIGS  =  -1.00 -1.00 -1.00 -1.00
  virtual crystal weights 
   VCA    =   1.00  1.00  1.00  1.00
   NELECT =     245.0000    total number of electrons
   NUPDOWN=      -1.0000    fix difference up-down

 DOS related values:
   EMIN   =  10.00;   EMAX   =-10.00  energy-range for DOS
   EFERMI =   0.00
   ISMEAR =     0;   SIGMA  =   0.10  broadening in eV -4-tet -1-fermi 0-gaus

 Electronic relaxation 2 (details)
   IALGO  =     53    algorithm
   LDIAG  =      T    sub-space diagonalisation (order eigenvalues)
   LSUBROT=      F    optimize rotation matrix (better conditioning)
   TURBO    =      0    0=normal 1=particle mesh
   IRESTART =      0    0=no restart 2=restart with 2 vectors
   NREBOOT  =      0    no. of reboots
   NMIN     =      0    reboot dimension
   EREF     =   0.00    reference energy to select bands
   IMIX   =      4    mixing-type and parameters
     AMIX     =   0.40;   BMIX     =  1.00
     AMIX_MAG =   1.60;   BMIX_MAG =  1.00
     AMIN     =   0.10
     WC   =   100.;   INIMIX=   1;  MIXPRE=   1;  MAXMIX= -45

 Intra band minimization:
   WEIMIN = 0.0000     energy-eigenvalue tresh-hold
   EBREAK =  0.16E-06  absolut break condition
   DEPER  =   0.30     relativ break condition  

   TIME   =   0.20     timestep for ELM

  volume/ion in A,a.u.               =      54.77       369.63
  Fermi-wavevector in a.u.,A,eV,Ry     =   0.696834  1.316824  6.606676  0.485577
  Thomas-Fermi vector in A             =   1.779993
 
 Write flags
   LWAVE        =      T    write WAVECAR
   LDOWNSAMPLE  =      F    k-point downsampling of WAVECAR
   LCHARG       =      T    write CHGCAR
   LVTOT        =      F    write LOCPOT, total local potential
   LVHAR        =      F    write LOCPOT, Hartree potential only
   LELF         =      F    write electronic localiz. function (ELF)
   LORBIT       =     11    0 simple, 1 ext, 2 COOP (PROOUT), +10 PAW based schemes


 Dipole corrections
   LMONO  =      F    monopole corrections only (constant potential shift)
   LDIPOL =      T    correct potential (dipole corrections)
   IDIPOL =      3    1-x, 2-y, 3-z, 4-all directions 
   EPSILON=  1.0000000 bulk dielectric constant

 Exchange correlation treatment:
   GGA     =    PE    GGA type
   LEXCH   =     8    internal setting for exchange type
   VOSKOWN=      0    Vosko Wilk Nusair interpolation
   EXXOEP  =     0    0=HF, 1=EXX-LHF (local Hartree Fock) 2=EXX OEP
   LHFCALC =     T    Hartree Fock is set to
   LSYMGRAD=     F    symmetrize gradient (conserves proper symmetry)
   PRECFOCK=normal    Normal, Fast or Accurate (Low or Medium for compatibility)
   LRHFCALC=     F    long range Hartree Fock
   LRSCOR  =     F    long range correlation only (use DFT for short range part)
   LTHOMAS =     F    Thomas Fermi screening in HF
   LMODELHF=     F    short range full HF, long range fraction AEXX
   ENCUT4O =  -1.0   cutoff for four orbital integrals eV
   LMAXFOCK=     4    L truncation for augmentation on plane wave grid
   LMAXFOCKAE=  -1    L truncation for all-electron charge restoration on plane wave grid
   NMAXFOCKAE=   1    number of basis functions for all-electron charge restoration
   LFOCKAEDFT=     F  apply the AE augmentation even for DFT
   NKREDX  =     1    reduce k-point grid by
   NKREDY  =     1    reduce k-point grid by
   NKREDZ  =     1    reduce k-point grid by
   SHIFTRED=     F    shift reduced grid of Gamma
   HFKIDENT=     F    idential grid for each k-point
   ODDONLY =     F    use only odd q-grid points
   EVENONLY=     F    use only even q-grid points
   HFALPHA =   -1.0000 decay constant for conv. correction
   MCALPHA =    0.0000 extent of test-charge in conv. correction in multipole expansion
   AEXX    =    0.2500 exact exchange contribution
   HFSCREEN=    0.2000 screening length (either q_TF or 0.3 A-1)
   HFSCREENC=   0.2000 screening length for correlation (either q_TF or 0.3 A-1)
   HFRCUT  =    0.0000 spherical cutoff for potential kernel
   ALDAX   =    0.7500 LDA exchange part
   AGGAX   =    0.7500 GGA exchange part
   ALDAC   =    1.0000 LDA correlation
   AGGAC   =    1.0000 GGA correlation
   ENCUTFOCK=  -1.0 apply spherical cutoff to Coloumb kernel
   NBANDSGWLOW=     1    first orbital included in HF term
   NBLOCK_FOCK=    64    blocking factor in FOCK_ACC
 Linear response parameters
   LEPSILON=     F    determine dielectric tensor
   LRPA    =     F    only Hartree local field effects (RPA)
   LNABLA  =     F    use nabla operator in PAW spheres
   LVEL    =     F    velocity operator in full k-point grid
   LINTERFAST=   F  fast interpolation
   KINTER  =     0    interpolate to denser k-point grid
   CSHIFT  =0.1000    complex shift for real part using Kramers Kronig
   OMEGAMAX=  -1.0    maximum frequency
   DEG_THRESHOLD= 0.2000000E-02 threshold for treating states as degnerate
   RTIME   =   -0.100 relaxation time in fs
  (WPLASMAI=    0.000 imaginary part of plasma frequency in eV, 0.658/RTIME)
   DFIELD  = 0.0000000 0.0000000 0.0000000 field for delta impulse in time
 
 Orbital magnetization related:
   ORBITALMAG=     F  switch on orbital magnetization
   LCHIMAG   =     F  perturbation theory with respect to B field
   DQ        =  0.001000  dq finite difference perturbation B field
   LLRAUG    =     F  two centre corrections for induced B field



--------------------------------------------------------------------------------------------------------


 Static calculation
 charge density and potential will be updated during run
 spin polarized calculation
 Conjugate gradient for all bands (Freysoldt, et al. PRB 79, 241103 (2009))
 perform sub-space diagonalisation
    before iterative eigenvector-optimisation
 modified Broyden-mixing scheme, WC =      100.0
 initial mixing is a Kerker type mixing with AMIX =  0.4000 and BMIX =      1.0000
 Hartree-type preconditioning will be used
 using additional bands           33
 reciprocal scheme for non local part
 use partial core corrections
 no Harris-corrections to forces 
 use gradient corrections 
 use of overlap-Matrix (Vanderbilt PP)
 Gauss-broadening in eV      SIGMA  =   0.10


--------------------------------------------------------------------------------------------------------


  energy-cutoff  :      500.00
  volume of cell :     3176.90
      direct lattice vectors                 reciprocal lattice vectors
    12.669700000  0.000000000  0.000000000     0.078928467 -0.000452121  0.000128754
     0.071833731 12.540294262  0.000000000     0.000000000  0.079742945  0.000057152
    -0.032699933 -0.014330724 19.995368126     0.000000000  0.000000000  0.050011582

  length of vectors
    12.669700000 12.540500000 19.995400000     0.078929867  0.079742966  0.050011582


 
 old parameters found on file WAVECAR:
  energy-cutoff  :      500.00
  volume of cell :     3176.90
      direct lattice vectors                 reciprocal lattice vectors
    12.669700000  0.000000000  0.000000000     0.078928467 -0.000452121  0.000128754
     0.071833731 12.540294262  0.000000000     0.000000000  0.079742945  0.000057152
    -0.032699933 -0.014330724 19.995368126     0.000000000  0.000000000  0.050011582

  length of vectors

 
 k-points in units of 2pi/SCALE and weight: KPOINTS created by Atomic Simulation Env
   0.01973212  0.01982271  0.00004648       0.500
  -0.01973212  0.02004877 -0.00001790       0.500
 
 k-points in reciprocal lattice and weights: KPOINTS created by Atomic Simulation Env
   0.25000000  0.25000000 -0.00000000       0.500
  -0.25000000  0.25000000  0.00000000       0.500
 
 position of ions in fractional coordinates (direct lattice) 
   0.22152674  0.99844746  0.50094642
   0.05466017  0.09930126  0.50024078
   0.10997476  0.99922519  0.50083767
   0.27697144  0.09593338  0.50080536
   0.22200405  0.19474645  0.50047809
   0.05711972  0.29969484  0.49990640
   0.11018925  0.19819166  0.49991072
   0.27993260  0.29087383  0.50052031
   0.06448584  0.49768920  0.49969138
   0.11929144  0.39575908  0.49896620
   0.05941520  0.69830973  0.50073924
   0.12020297  0.59984339  0.50027302
   0.27899365  0.70340694  0.49992079
   0.22336600  0.80129309  0.50111424
   0.05590149  0.89920260  0.50099607
   0.11163184  0.79959204  0.50125555
   0.27781421  0.90003714  0.50084165
   0.55601055  0.99903522  0.49866648
   0.38866134  0.09612924  0.50013637
   0.44486157  0.99824115  0.49937151
   0.61046062  0.09782467  0.49890470
   0.55480072  0.19578570  0.50024134
   0.44242442  0.19422255  0.50115556
   0.55310698  0.60821702  0.49794220
   0.39130400  0.70434544  0.49765244
   0.61138961  0.70443695  0.49808450
   0.55672466  0.80313399  0.49790801
   0.38890927  0.90049515  0.49982709
   0.44506704  0.80249220  0.49859820
   0.61230055  0.90067777  0.49845556
   0.88924347  0.99987172  0.49991414
   0.72218990  0.09952921  0.49921036
   0.77783924  0.99996661  0.49927707
   0.94270577  0.10039658  0.50002429
   0.88744582  0.20132836  0.50011863
   0.71395890  0.29933537  0.50103566
   0.77460785  0.20094282  0.50002558
   0.94329127  0.30126293  0.50036991
   0.88612921  0.40089054  0.50069552
   0.71505084  0.50362148  0.50152006
   0.76969716  0.40150687  0.50138744
   0.94809196  0.49832332  0.50031425
   0.89082877  0.59795019  0.50033860
   0.72334262  0.70089926  0.49955826
   0.77703577  0.59952683  0.50033208
   0.94653733  0.69790001  0.50041546
   0.89105352  0.79865098  0.50025482
   0.72373208  0.89987280  0.49899639
   0.77900218  0.79972166  0.49961772
   0.94450452  0.89923581  0.50039690
   0.23032074  0.38837367  0.49671176
   0.22958147  0.60556513  0.49991345
   0.38859625  0.29058324  0.50371806
   0.60461527  0.29357515  0.50185925
   0.60436931  0.51171134  0.50296464
   0.44406265  0.60728970  0.49467077
   0.33772587  0.49397020  0.49072883
   0.49122758  0.40719388  0.51374226
 
 position of ions in cartesian coordinates  (Angst):
   2.86201858 12.51364601 10.01660815
   0.68330334  1.23809819 10.00249850
   1.44874790 12.52340057 10.01443350
   3.49965998  1.19585588 10.01378760
   2.81034849  2.43500560 10.00724372
   0.72887098  3.75109746  9.99581249
   1.39395453  2.47821766  9.99589890
   3.55118968  3.64047059 10.00808779
   0.83642726  6.23400805  9.99151317
   1.52349940  4.95578474  9.97701277
   0.78656078  8.74983353 10.01246548
   1.54966567  7.51504339 10.00314324
   3.56894685  8.81376584  9.99610026
   2.87115363 10.04126986 10.01996374
   0.75646569 11.26908562 10.01760075
   1.45538853 10.01993606 10.02278921
   3.56809823 11.27955319 10.01451318
   7.09994489 12.52104937  9.97101980
   4.91477349  1.19832167 10.00041086
   5.69164059 12.51108135  9.98511712
   7.72506593  1.21960054  9.97578320
   7.02686485  2.44804152 10.00250978
   5.60294863  2.42842602 10.02078998
   7.03510734  7.62008452  9.95653751
   4.99202687  8.82556731  9.95074375
   7.78043799  8.82670879  9.95938300
   7.09494499 10.06440119  9.95585401
   4.97570545 11.28531127  9.99422657
   5.68020775 10.05634309  9.96965448
   7.80606386 11.28762106  9.96680235
  11.32192530 12.53152142  9.99596726
   9.14075477  1.24097158  9.98189486
   9.91049483 12.53272059  9.98322872
  11.93466045  1.25183689  9.99816972
  11.24178059  2.51754986 10.00005619
   9.05076366  3.74657345 10.01839254
   9.81213273  2.51271632  9.99819556
  11.95649614  3.77075518 10.00508057
  11.23941605  5.02011003 10.01159123
   9.07925693  6.30837435 10.02807825
   9.76427845  5.02782903 10.02542647
  12.03147684  6.24195122 10.00396758
  11.31312528  7.49130107 10.00445444
   9.19854668  8.78232389  9.98885134
   9.87151551  7.51107273 10.00432407
  12.02611316  8.74470015 10.00599124
  11.33039254 10.00814933 10.00277928
   9.21779241 11.27751878  9.97761648
   9.91083338 10.02158509  9.99004031
  12.01482139 11.26951057 10.00562018
   2.92975060  4.86320187  9.93193447
   2.93588124  7.58680082  9.99595346
   4.92780000  3.63678063 10.07202807
   7.66497192  3.67432682 10.03486045
   7.67748912  6.40980294 10.05696314
   5.65358879  7.60850255  9.89112421
   4.29832235  6.18749911  9.81230355
   6.23615693  5.09896877 10.27246560
 


--------------------------------------------------------------------------------------------------------


 k-point  1 :   0.2500 0.2500-0.0000  plane waves:   80666
 k-point  2 :  -0.2500 0.2500 0.0000  plane waves:   80662

 maximum and minimum number of plane-waves per node :      2054     1985

 maximum number of plane-waves:     80666
 maximum index in each direction: 
   IXMAX=   23   IYMAX=   22   IZMAX=   36
   IXMIN=  -23   IYMIN=  -23   IZMIN=  -36


 parallel 3D FFT for wavefunctions:
    minimum data exchange during FFTs selected (reduces bandwidth)
 parallel 3D FFT for charge:
    minimum data exchange during FFTs selected (reduces bandwidth)


 FFT grid for exact exchange (Hartree Fock) 
  NGX = 70; NGY = 70; NGZ =112

 
 Radii for the augmentation spheres in the non-local exchange
 for species   1 augmentation radius   0.874 (default was   0.699)
       energy cutoff for augmentation   2000.0
 for species   2 augmentation radius   0.886 (default was   0.709)
       energy cutoff for augmentation   2000.0
 for species   3 augmentation radius   1.263 (default was   1.010)
       energy cutoff for augmentation   2000.0
 for species   4 augmentation radius   1.276 (default was   1.021)
       energy cutoff for augmentation   2000.0

 real space projection operators:
  total allocation   :       2473.21 KBytes
  max/ min on nodes  :         90.62         42.87

 Maximum index for augmentation-charges in exchange           71
  SETUP_FOCK is finished

 total amount of memory used by VASP MPI-rank0   141652. kBytes
=======================================================================

   base      :      30000. kBytes
   nonl-proj :       4288. kBytes
   fftplans  :      11851. kBytes
   grid      :      31266. kBytes
   one-center:         62. kBytes
   HF        :         23. kBytes
   nonlr-proj:       1624. kBytes
   wavefun   :      62538. kBytes
 
     INWAV:  cpu time    2.9850: real time    5.5001
 Broyden mixing: mesh for mixing (old mesh)
   NGX = 47   NGY = 45   NGZ = 73
  (NGX  =192   NGY  =192   NGZ  =300)
  gives a total of 154395 points

 charge density for first step will be calculated from the start-wavefunctions


--------------------------------------------------------------------------------------------------------


 Maximum index for augmentation-charges          333 (set IRDMAX)


--------------------------------------------------------------------------------------------------------


 initial charge from wavefunction
 First call to EWALD:  gamma=   0.121
 Maximum number of real-space cells 3x 3x 2
 Maximum number of reciprocal cells 2x 2x 4

    FEWALD:  cpu time    0.0032: real time    0.0032


--------------------------------------- Iteration      1(   1)  ---------------------------------------


    POTLOK:  cpu time    1.1113: real time    1.1178
    SETDIJ:  cpu time    1.2099: real time    1.2133
    TRIAL :  cpu time  191.9800: real time  192.6649
    CORREC:  cpu time    0.0010: real time    0.0010
    CHARGE:  cpu time    0.9188: real time    0.9214
    --------------------------------------------
      LOOP:  cpu time  195.2421: real time  195.9409

 eigenvalue-minimisations  :     0
 total energy-change (2. order) :-0.6104269E+03  (-0.5102053E+00)
 number of electron     245.0000001 magnetization       3.2488006
 augmentation part       13.4825146 magnetization       2.4673046

 DIPCOR: dipole corrections for dipol
 direction  3 min pos     1,
 dipolmoment           0.000055      0.000024     -0.033625 electrons x Angstroem
 Tr[quadrupol]     -6564.596829

 energy correction for charged system         0.000000 eV
 dipol+quadrupol energy correction           -0.000032 eV
 added-field ion interaction          0.000537 eV  (added to PSCEN)


 Free energy of the ion-electron system (eV)
  ---------------------------------------------------
  alpha Z        PSCENC =       101.90499335
  Ewald energy   TEWEN  =     39704.41990966
  -Hartree energ DENC   =    -48204.11709016
  -exchange      EXHF   =       557.55775768
  -V(xc)+E(xc)   XCENC  =       614.98058731
  PAW double counting   =     26400.55432505   -26428.00372599
  entropy T*S    EENTRO =        -0.02581079
  eigenvalues    EBANDS =     -3198.27794157
  atomic energy  EATOM  =      9840.58036623
  ---------------------------------------------------
  free energy    TOTEN  =      -610.42692003 eV

  energy without entropy =     -610.40110924  energy(sigma->0) =     -610.41401463
  exchange ACFDT corr.  =        -0.01826113  see jH, gK, PRB 81, 115126


--------------------------------------------------------------------------------------------------------




--------------------------------------- Iteration      1(   2)  ---------------------------------------


    POTLOK:  cpu time    1.1316: real time    1.1365
    SETDIJ:  cpu time    1.1861: real time    1.1893
    TRIAL :  cpu time  193.4352: real time  194.1482
    CORREC:  cpu time    0.0009: real time    0.0009
    CHARGE:  cpu time    0.9175: real time    0.9201
    --------------------------------------------
      LOOP:  cpu time  196.6740: real time  197.4009

 eigenvalue-minimisations  :     0
 total energy-change (2. order) :-0.4107707E+00  (-0.4597498E+00)
 number of electron     245.0000001 magnetization       3.2328555
 augmentation part       13.4508605 magnetization       2.5178556

 DIPCOR: dipole corrections for dipol
 direction  3 min pos     1,
 dipolmoment           0.000085      0.000037     -0.052190 electrons x Angstroem
 Tr[quadrupol]     -6564.431461

 energy correction for charged system         0.000000 eV
 dipol+quadrupol energy correction           -0.000078 eV
 added-field ion interaction          0.000834 eV  (added to PSCEN)


 Free energy of the ion-electron system (eV)
  ---------------------------------------------------
  alpha Z        PSCENC =       101.90524453
  Ewald energy   TEWEN  =     39704.41990966
  -Hartree energ DENC   =    -48189.93699968
  -exchange      EXHF   =       557.51361784
  -V(xc)+E(xc)   XCENC  =       614.65927856
  PAW double counting   =     26536.23166737   -26563.41682198
  entropy T*S    EENTRO =        -0.02474887
  eigenvalues    EBANDS =     -3212.76814247
  atomic energy  EATOM  =      9840.58036623
  ---------------------------------------------------
  free energy    TOTEN  =      -610.83769074 eV

  energy without entropy =     -610.81294187  energy(sigma->0) =     -610.82531630
  exchange ACFDT corr.  =        -0.01746153  see jH, gK, PRB 81, 115126


--------------------------------------------------------------------------------------------------------




--------------------------------------- Iteration      1(   3)  ---------------------------------------


    POTLOK:  cpu time    1.1324: real time    1.1566
    SETDIJ:  cpu time    1.1864: real time    1.1900
    TRIAL :  cpu time  191.9888: real time  192.6927
    CORREC:  cpu time    0.0009: real time    0.0009
    CHARGE:  cpu time    0.9134: real time    0.9158
    --------------------------------------------
      LOOP:  cpu time  195.2244: real time  195.9622

 eigenvalue-minimisations  :     0
 total energy-change (2. order) :-0.3539553E+00  (-0.2722705E+00)
 number of electron     245.0000002 magnetization       3.2142349
 augmentation part       13.4514641 magnetization       2.5529316

 DIPCOR: dipole corrections for dipol
 direction  3 min pos     1,
 dipolmoment           0.000075      0.000033     -0.045720 electrons x Angstroem
 Tr[quadrupol]     -6564.263160

 energy correction for charged system         0.000000 eV
 dipol+quadrupol energy correction           -0.000060 eV
 added-field ion interaction          0.000731 eV  (added to PSCEN)


 Free energy of the ion-electron system (eV)
  ---------------------------------------------------
  alpha Z        PSCENC =       101.90515923
  Ewald energy   TEWEN  =     39704.41990966
  -Hartree energ DENC   =    -48174.03455386
  -exchange      EXHF   =       557.50878959
  -V(xc)+E(xc)   XCENC  =       614.30229556
  PAW double counting   =     26709.69495953   -26736.44360367
  entropy T*S    EENTRO =        -0.02343141
  eigenvalues    EBANDS =     -3229.10021944
  atomic energy  EATOM  =      9840.58036623
  ---------------------------------------------------
  free energy    TOTEN  =      -611.19164604 eV

  energy without entropy =     -611.16821463  energy(sigma->0) =     -611.17993034
  exchange ACFDT corr.  =        -0.01603172  see jH, gK, PRB 81, 115126


--------------------------------------------------------------------------------------------------------




--------------------------------------- Iteration      1(   4)  ---------------------------------------


    POTLOK:  cpu time    1.1432: real time    1.1465
    SETDIJ:  cpu time    1.1859: real time    1.1889
    TRIAL :  cpu time  193.1525: real time  193.8798
    CORREC:  cpu time    0.0009: real time    0.0009
    CHARGE:  cpu time    0.9122: real time    0.9147
    --------------------------------------------
      LOOP:  cpu time  196.3972: real time  197.1374

 eigenvalue-minimisations  :     0
 total energy-change (2. order) :-0.2138011E+00  (-0.1723889E+00)
 number of electron     245.0000002 magnetization       3.1950362
 augmentation part       13.4619515 magnetization       2.5670748

 DIPCOR: dipole corrections for dipol
 direction  3 min pos     1,
 dipolmoment           0.000072      0.000032     -0.044233 electrons x Angstroem
 Tr[quadrupol]     -6564.207365

 energy correction for charged system         0.000000 eV
 dipol+quadrupol energy correction           -0.000056 eV
 added-field ion interaction          0.000707 eV  (added to PSCEN)


 Free energy of the ion-electron system (eV)
  ---------------------------------------------------
  alpha Z        PSCENC =       101.90513929
  Ewald energy   TEWEN  =     39704.41990966
  -Hartree energ DENC   =    -48168.05926742
  -exchange      EXHF   =       557.71595450
  -V(xc)+E(xc)   XCENC  =       614.19509054
  PAW double counting   =     26859.37221378   -26886.15331732
  entropy T*S    EENTRO =        -0.02198347
  eigenvalues    EBANDS =     -3235.35810499
  atomic energy  EATOM  =      9840.58036623
  ---------------------------------------------------
  free energy    TOTEN  =      -611.40544714 eV

  energy without entropy =     -611.38346367  energy(sigma->0) =     -611.39445540
  exchange ACFDT corr.  =        -0.01459983  see jH, gK, PRB 81, 115126


--------------------------------------------------------------------------------------------------------




--------------------------------------- Iteration      1(   5)  ---------------------------------------


    POTLOK:  cpu time    1.1433: real time    1.1465
    SETDIJ:  cpu time    1.1839: real time    1.1872
    TRIAL :  cpu time  192.5022: real time  193.2015
    CORREC:  cpu time    0.0010: real time    0.0010
    CHARGE:  cpu time    0.9093: real time    0.9117
    --------------------------------------------
      LOOP:  cpu time  195.7437: real time  196.4557

 eigenvalue-minimisations  :     0
 total energy-change (2. order) :-0.1407436E+00  (-0.1175868E+00)
 number of electron     245.0000002 magnetization       3.1752447
 augmentation part       13.4646003 magnetization       2.5674222

 DIPCOR: dipole corrections for dipol
 direction  3 min pos     1,
 dipolmoment           0.000078      0.000034     -0.047791 electrons x Angstroem
 Tr[quadrupol]     -6564.240645

 energy correction for charged system         0.000000 eV
 dipol+quadrupol energy correction           -0.000065 eV
 added-field ion interaction          0.000764 eV  (added to PSCEN)


 Free energy of the ion-electron system (eV)
  ---------------------------------------------------
  alpha Z        PSCENC =       101.90518679
  Ewald energy   TEWEN  =     39704.41990966
  -Hartree energ DENC   =    -48169.75086004
  -exchange      EXHF   =       558.05516123
  -V(xc)+E(xc)   XCENC  =       614.28573884
  PAW double counting   =     26964.22482130   -26991.17112874
  entropy T*S    EENTRO =        -0.02039356
  eigenvalues    EBANDS =     -3234.07340251
  atomic energy  EATOM  =      9840.58036623
  ---------------------------------------------------
  free energy    TOTEN  =      -611.54619072 eV

  energy without entropy =     -611.52579716  energy(sigma->0) =     -611.53599394
  exchange ACFDT corr.  =        -0.01658854  see jH, gK, PRB 81, 115126


--------------------------------------------------------------------------------------------------------




--------------------------------------- Iteration      1(   6)  ---------------------------------------


    POTLOK:  cpu time    1.1418: real time    1.1462
    SETDIJ:  cpu time    1.1831: real time    1.1862
    TRIAL :  cpu time  192.3133: real time  193.0410
    CORREC:  cpu time    0.0012: real time    0.0012
    CHARGE:  cpu time    0.9106: real time    0.9130
    --------------------------------------------
      LOOP:  cpu time  195.5521: real time  196.2937

 eigenvalue-minimisations  :     0
 total energy-change (2. order) :-0.9969671E-01  (-0.8308678E-01)
 number of electron     245.0000002 magnetization       3.1558009
 augmentation part       13.4654987 magnetization       2.5633562

 DIPCOR: dipole corrections for dipol
 direction  3 min pos     1,
 dipolmoment           0.000079      0.000034     -0.048048 electrons x Angstroem
 Tr[quadrupol]     -6564.298108

 energy correction for charged system         0.000000 eV
 dipol+quadrupol energy correction           -0.000066 eV
 added-field ion interaction          0.000768 eV  (added to PSCEN)


 Free energy of the ion-electron system (eV)
  ---------------------------------------------------
  alpha Z        PSCENC =       101.90519020
  Ewald energy   TEWEN  =     39704.41990966
  -Hartree energ DENC   =    -48173.42663899
  -exchange      EXHF   =       558.38736416
  -V(xc)+E(xc)   XCENC  =       614.43019538
  PAW double counting   =     27028.79114393   -27055.75179968
  entropy T*S    EENTRO =        -0.01874017
  eigenvalues    EBANDS =     -3230.96122478
  atomic energy  EATOM  =      9840.58036623
  ---------------------------------------------------
  free energy    TOTEN  =      -611.64588743 eV

  energy without entropy =     -611.62714726  energy(sigma->0) =     -611.63651735
  exchange ACFDT corr.  =        -0.01196519  see jH, gK, PRB 81, 115126


--------------------------------------------------------------------------------------------------------




--------------------------------------- Iteration      1(   7)  ---------------------------------------


    POTLOK:  cpu time    1.1436: real time    1.1471
    SETDIJ:  cpu time    1.1859: real time    1.1890
    TRIAL :  cpu time  193.2759: real time  194.8798
    CORREC:  cpu time    0.0009: real time    0.0009
    CHARGE:  cpu time    0.9084: real time    0.9109
    --------------------------------------------
      LOOP:  cpu time  196.5168: real time  198.1338

 eigenvalue-minimisations  :     0
 total energy-change (2. order) :-0.7187966E-01  (-0.6028208E-01)
 number of electron     245.0000002 magnetization       3.1376771
 augmentation part       13.4710891 magnetization       2.5598661

 DIPCOR: dipole corrections for dipol
 direction  3 min pos     1,
 dipolmoment           0.000076      0.000033     -0.046611 electrons x Angstroem
 Tr[quadrupol]     -6564.345791

 energy correction for charged system         0.000000 eV
 dipol+quadrupol energy correction           -0.000062 eV
 added-field ion interaction          0.000745 eV  (added to PSCEN)


 Free energy of the ion-electron system (eV)
  ---------------------------------------------------
  alpha Z        PSCENC =       101.90517112
  Ewald energy   TEWEN  =     39704.41990966
  -Hartree energ DENC   =    -48176.68239599
  -exchange      EXHF   =       558.65747675
  -V(xc)+E(xc)   XCENC  =       614.56212018
  PAW double counting   =     27066.57545793   -27093.51508347
  entropy T*S    EENTRO =        -0.01711662
  eigenvalues    EBANDS =     -3228.20204934
  atomic energy  EATOM  =      9840.58036623
  ---------------------------------------------------
  free energy    TOTEN  =      -611.71776710 eV

  energy without entropy =     -611.70065048  energy(sigma->0) =     -611.70920879
  exchange ACFDT corr.  =        -0.01071883  see jH, gK, PRB 81, 115126


--------------------------------------------------------------------------------------------------------




--------------------------------------- Iteration      1(   8)  ---------------------------------------


    POTLOK:  cpu time    1.1436: real time    1.1479
    SETDIJ:  cpu time    1.1869: real time    1.1900
    TRIAL :  cpu time  192.8376: real time  193.5652
    CORREC:  cpu time    0.0010: real time    0.0010
    CHARGE:  cpu time    0.9100: real time    0.9123
    --------------------------------------------
      LOOP:  cpu time  196.0812: real time  196.8225

 eigenvalue-minimisations  :     0
 total energy-change (2. order) :-0.5374352E-01  (-0.4651846E-01)
 number of electron     245.0000002 magnetization       3.1214289
 augmentation part       13.4780607 magnetization       2.5570391

 DIPCOR: dipole corrections for dipol
 direction  3 min pos     1,
 dipolmoment           0.000076      0.000033     -0.046505 electrons x Angstroem
 Tr[quadrupol]     -6564.376099

 energy correction for charged system         0.000000 eV
 dipol+quadrupol energy correction           -0.000062 eV
 added-field ion interaction          0.000743 eV  (added to PSCEN)


 Free energy of the ion-electron system (eV)
  ---------------------------------------------------
  alpha Z        PSCENC =       101.90516971
  Ewald energy   TEWEN  =     39704.41990966
  -Hartree energ DENC   =    -48179.08493400
  -exchange      EXHF   =       558.86294528
  -V(xc)+E(xc)   XCENC  =       614.66655551
  PAW double counting   =     27088.59405389   -27115.60132151
  entropy T*S    EENTRO =        -0.01558586
  eigenvalues    EBANDS =     -3226.09713877
  atomic energy  EATOM  =      9840.58036623
  ---------------------------------------------------
  free energy    TOTEN  =      -611.77151062 eV

  energy without entropy =     -611.75592476  energy(sigma->0) =     -611.76371769
  exchange ACFDT corr.  =        -0.00954795  see jH, gK, PRB 81, 115126


--------------------------------------------------------------------------------------------------------




--------------------------------------- Iteration      1(   9)  ---------------------------------------


    POTLOK:  cpu time    1.1365: real time    1.1397
    SETDIJ:  cpu time    1.1833: real time    1.1864
    TRIAL :  cpu time  192.4619: real time  193.1611
    CORREC:  cpu time    0.0009: real time    0.0009
    CHARGE:  cpu time    0.9093: real time    0.9117
    --------------------------------------------
      LOOP:  cpu time  195.6944: real time  196.4063

 eigenvalue-minimisations  :     0
 total energy-change (2. order) :-0.4218944E-01  (-0.3695326E-01)
 number of electron     245.0000002 magnetization       3.1072537
 augmentation part       13.4822961 magnetization       2.5537519

 DIPCOR: dipole corrections for dipol
 direction  3 min pos     1,
 dipolmoment           0.000077      0.000034     -0.047123 electrons x Angstroem
 Tr[quadrupol]     -6564.390941

 energy correction for charged system         0.000000 eV
 dipol+quadrupol energy correction           -0.000063 eV
 added-field ion interaction          0.000753 eV  (added to PSCEN)


 Free energy of the ion-electron system (eV)
  ---------------------------------------------------
  alpha Z        PSCENC =       101.90517793
  Ewald energy   TEWEN  =     39704.41990966
  -Hartree energ DENC   =    -48180.47667862
  -exchange      EXHF   =       559.01164789
  -V(xc)+E(xc)   XCENC  =       614.73937348
  PAW double counting   =     27101.07822536   -27128.19274484
  entropy T*S    EENTRO =        -0.01418445
  eigenvalues    EBANDS =     -3224.86339130
  atomic energy  EATOM  =      9840.58036623
  ---------------------------------------------------
  free energy    TOTEN  =      -611.81370006 eV

  energy without entropy =     -611.79951561  energy(sigma->0) =     -611.80660784
  exchange ACFDT corr.  =        -0.00848537  see jH, gK, PRB 81, 115126


--------------------------------------------------------------------------------------------------------




--------------------------------------- Iteration      1(  10)  ---------------------------------------


    POTLOK:  cpu time    1.1305: real time    1.1347
    SETDIJ:  cpu time    1.1846: real time    1.1878
    TRIAL :  cpu time  192.9673: real time  193.7022
    CORREC:  cpu time    0.0009: real time    0.0009
    CHARGE:  cpu time    0.9079: real time    0.9103
    --------------------------------------------
      LOOP:  cpu time  196.1935: real time  196.9422

 eigenvalue-minimisations  :     0
 total energy-change (2. order) :-0.3400291E-01  (-0.3027035E-01)
 number of electron     245.0000002 magnetization       3.0951044
 augmentation part       13.4835638 magnetization       2.5494971

 DIPCOR: dipole corrections for dipol
 direction  3 min pos     1,
 dipolmoment           0.000077      0.000034     -0.047151 electrons x Angstroem
 Tr[quadrupol]     -6564.395630

 energy correction for charged system         0.000000 eV
 dipol+quadrupol energy correction           -0.000064 eV
 added-field ion interaction          0.000754 eV  (added to PSCEN)


 Free energy of the ion-electron system (eV)
  ---------------------------------------------------
  alpha Z        PSCENC =       101.90517830
  Ewald energy   TEWEN  =     39704.41990966
  -Hartree energ DENC   =    -48180.98757888
  -exchange      EXHF   =       559.11752805
  -V(xc)+E(xc)   XCENC  =       614.78516506
  PAW double counting   =     27107.63954144   -27134.83077538
  entropy T*S    EENTRO =        -0.01292912
  eigenvalues    EBANDS =     -3224.46285300
  atomic energy  EATOM  =      9840.58036623
  ---------------------------------------------------
  free energy    TOTEN  =      -611.84770297 eV

  energy without entropy =     -611.83477385  energy(sigma->0) =     -611.84123841
  exchange ACFDT corr.  =        -0.00754724  see jH, gK, PRB 81, 115126


--------------------------------------------------------------------------------------------------------




--------------------------------------- Iteration      1(  11)  ---------------------------------------


    POTLOK:  cpu time    1.1294: real time    1.1335
    SETDIJ:  cpu time    1.1554: real time    1.1585
    TRIAL :  cpu time  192.5791: real time  193.2788
    CORREC:  cpu time    0.0009: real time    0.0009
    CHARGE:  cpu time    0.9149: real time    0.9174
    --------------------------------------------
      LOOP:  cpu time  195.7822: real time  196.4956

 eigenvalue-minimisations  :     0
 total energy-change (2. order) :-0.2815628E-01  (-0.2534560E-01)
 number of electron     245.0000002 magnetization       3.0847940
 augmentation part       13.4839773 magnetization       2.5446139

 DIPCOR: dipole corrections for dipol
 direction  3 min pos     1,
 dipolmoment           0.000076      0.000033     -0.046584 electrons x Angstroem
 Tr[quadrupol]     -6564.395950

 energy correction for charged system         0.000000 eV
 dipol+quadrupol energy correction           -0.000062 eV
 added-field ion interaction          0.000745 eV  (added to PSCEN)


 Free energy of the ion-electron system (eV)
  ---------------------------------------------------
  alpha Z        PSCENC =       101.90517076
  Ewald energy   TEWEN  =     39704.41990966
  -Hartree energ DENC   =    -48181.02341461
  -exchange      EXHF   =       559.19708609
  -V(xc)+E(xc)   XCENC  =       614.81494339
  PAW double counting   =     27110.81582916   -27138.04462082
  entropy T*S    EENTRO =        -0.01182118
  eigenvalues    EBANDS =     -3224.52819999
  atomic energy  EATOM  =      9840.58036623
  ---------------------------------------------------
  free energy    TOTEN  =      -611.87585925 eV

  energy without entropy =     -611.86403807  energy(sigma->0) =     -611.86994866
  exchange ACFDT corr.  =        -0.00673347  see jH, gK, PRB 81, 115126


--------------------------------------------------------------------------------------------------------




--------------------------------------- Iteration      1(  12)  ---------------------------------------


    POTLOK:  cpu time    1.1220: real time    1.1470
    SETDIJ:  cpu time    1.1551: real time    1.1582
    TRIAL :  cpu time  192.7910: real time  193.4895
    CORREC:  cpu time    0.0009: real time    0.0009
    CHARGE:  cpu time    0.9074: real time    0.9099
    --------------------------------------------
      LOOP:  cpu time  195.9786: real time  196.7124

 eigenvalue-minimisations  :     0
 total energy-change (2. order) :-0.2379216E-01  (-0.2166241E-01)
 number of electron     245.0000002 magnetization       3.0760845
 augmentation part       13.4849809 magnetization       2.5396826

 DIPCOR: dipole corrections for dipol
 direction  3 min pos     1,
 dipolmoment           0.000075      0.000033     -0.046077 electrons x Angstroem
 Tr[quadrupol]     -6564.395991

 energy correction for charged system         0.000000 eV
 dipol+quadrupol energy correction           -0.000061 eV
 added-field ion interaction          0.000736 eV  (added to PSCEN)


 Free energy of the ion-electron system (eV)
  ---------------------------------------------------
  alpha Z        PSCENC =       101.90516399
  Ewald energy   TEWEN  =     39704.41990966
  -Hartree energ DENC   =    -48180.99141465
  -exchange      EXHF   =       559.26346940
  -V(xc)+E(xc)   XCENC  =       614.83920252
  PAW double counting   =     27112.54716229   -27139.80371521
  entropy T*S    EENTRO =        -0.01085218
  eigenvalues    EBANDS =     -3224.64797445
  atomic energy  EATOM  =      9840.58036623
  ---------------------------------------------------
  free energy    TOTEN  =      -611.89965141 eV

  energy without entropy =     -611.88879922  energy(sigma->0) =     -611.89422532
  exchange ACFDT corr.  =        -0.00603480  see jH, gK, PRB 81, 115126


--------------------------------------------------------------------------------------------------------




--------------------------------------- Iteration      1(  13)  ---------------------------------------


    POTLOK:  cpu time    1.1289: real time    1.1333
    SETDIJ:  cpu time    1.1476: real time    1.1506
    TRIAL :  cpu time  192.5826: real time  193.3154
    CORREC:  cpu time    0.0009: real time    0.0009
    CHARGE:  cpu time    0.9099: real time    0.9124
    --------------------------------------------
      LOOP:  cpu time  195.7727: real time  196.5190

 eigenvalue-minimisations  :     0
 total energy-change (2. order) :-0.2049986E-01  (-0.1883538E-01)
 number of electron     245.0000002 magnetization       3.0687483
 augmentation part       13.4864229 magnetization       2.5349265

 DIPCOR: dipole corrections for dipol
 direction  3 min pos     1,
 dipolmoment           0.000075      0.000033     -0.045888 electrons x Angstroem
 Tr[quadrupol]     -6564.397251

 energy correction for charged system         0.000000 eV
 dipol+quadrupol energy correction           -0.000060 eV
 added-field ion interaction          0.000733 eV  (added to PSCEN)


 Free energy of the ion-electron system (eV)
  ---------------------------------------------------
  alpha Z        PSCENC =       101.90516147
  Ewald energy   TEWEN  =     39704.41990966
  -Hartree energ DENC   =    -48181.07075043
  -exchange      EXHF   =       559.32330684
  -V(xc)+E(xc)   XCENC  =       614.86296686
  PAW double counting   =     27114.14070340   -27141.43375160
  entropy T*S    EENTRO =        -0.01001031
  eigenvalues    EBANDS =     -3224.63721151
  atomic energy  EATOM  =      9840.58036623
  ---------------------------------------------------
  free energy    TOTEN  =      -611.92015127 eV

  energy without entropy =     -611.91014096  energy(sigma->0) =     -611.91514612
  exchange ACFDT corr.  =        -0.00543855  see jH, gK, PRB 81, 115126


--------------------------------------------------------------------------------------------------------




--------------------------------------- Iteration      1(  14)  ---------------------------------------


    POTLOK:  cpu time    1.1244: real time    1.1314
    SETDIJ:  cpu time    1.1584: real time    1.1615
    TRIAL :  cpu time  192.8781: real time  193.5842
    CORREC:  cpu time    0.0009: real time    0.0009
    CHARGE:  cpu time    0.9077: real time    0.9102
    --------------------------------------------
      LOOP:  cpu time  196.0713: real time  196.7947

 eigenvalue-minimisations  :     0
 total energy-change (2. order) :-0.1793733E-01  (-0.1660768E-01)
 number of electron     245.0000002 magnetization       3.0625863
 augmentation part       13.4876315 magnetization       2.5302661

 DIPCOR: dipole corrections for dipol
 direction  3 min pos     1,
 dipolmoment           0.000075      0.000033     -0.045798 electrons x Angstroem
 Tr[quadrupol]     -6564.399335

 energy correction for charged system         0.000000 eV
 dipol+quadrupol energy correction           -0.000060 eV
 added-field ion interaction          0.000732 eV  (added to PSCEN)


 Free energy of the ion-electron system (eV)
  ---------------------------------------------------
  alpha Z        PSCENC =       101.90516027
  Ewald energy   TEWEN  =     39704.41990966
  -Hartree energ DENC   =    -48181.22873705
  -exchange      EXHF   =       559.37819793
  -V(xc)+E(xc)   XCENC  =       614.88632994
  PAW double counting   =     27116.17198728   -27143.50536163
  entropy T*S    EENTRO =        -0.00928341
  eigenvalues    EBANDS =     -3224.53593092
  atomic energy  EATOM  =      9840.58036623
  ---------------------------------------------------
  free energy    TOTEN  =      -611.93808860 eV

  energy without entropy =     -611.92880519  energy(sigma->0) =     -611.93344689
  exchange ACFDT corr.  =        -0.00493199  see jH, gK, PRB 81, 115126


--------------------------------------------------------------------------------------------------------




--------------------------------------- Iteration      1(  15)  ---------------------------------------


    POTLOK:  cpu time    1.1239: real time    1.1268
    SETDIJ:  cpu time    1.1687: real time    1.1717
    TRIAL :  cpu time  192.3599: real time  193.0864
    CORREC:  cpu time    0.0009: real time    0.0009
    CHARGE:  cpu time    0.9065: real time    0.9091
    --------------------------------------------
      LOOP:  cpu time  195.5630: real time  196.3023

 eigenvalue-minimisations  :     0
 total energy-change (2. order) :-0.1589628E-01  (-0.1481396E-01)
 number of electron     245.0000002 magnetization       3.0574211
 augmentation part       13.4883153 magnetization       2.5256479

 DIPCOR: dipole corrections for dipol
 direction  3 min pos     1,
 dipolmoment           0.000075      0.000033     -0.045641 electrons x Angstroem
 Tr[quadrupol]     -6564.401480

 energy correction for charged system         0.000000 eV
 dipol+quadrupol energy correction           -0.000060 eV
 added-field ion interaction          0.000729 eV  (added to PSCEN)


 Free energy of the ion-electron system (eV)
  ---------------------------------------------------
  alpha Z        PSCENC =       101.90515817
  Ewald energy   TEWEN  =     39704.41990966
  -Hartree energ DENC   =    -48181.38779354
  -exchange      EXHF   =       559.42817200
  -V(xc)+E(xc)   XCENC  =       614.90814461
  PAW double counting   =     27118.67715053   -27146.04486603
  entropy T*S    EENTRO =        -0.00865909
  eigenvalues    EBANDS =     -3224.43094309
  atomic energy  EATOM  =      9840.58036623
  ---------------------------------------------------
  free energy    TOTEN  =      -611.95398488 eV

  energy without entropy =     -611.94532579  energy(sigma->0) =     -611.94965533
  exchange ACFDT corr.  =        -0.00450344  see jH, gK, PRB 81, 115126


--------------------------------------------------------------------------------------------------------




--------------------------------------- Iteration      1(  16)  ---------------------------------------


    POTLOK:  cpu time    1.1318: real time    1.1358
    SETDIJ:  cpu time    1.1689: real time    1.1725
    TRIAL :  cpu time  192.5392: real time  193.2446
    CORREC:  cpu time    0.0009: real time    0.0009
    CHARGE:  cpu time    0.9063: real time    0.9087
    --------------------------------------------
      LOOP:  cpu time  195.7492: real time  196.4694

 eigenvalue-minimisations  :     0
 total energy-change (2. order) :-0.1423758E-01  (-0.1334029E-01)
 number of electron     245.0000002 magnetization       3.0530921
 augmentation part       13.4887609 magnetization       2.5212761

 DIPCOR: dipole corrections for dipol
 direction  3 min pos     1,
 dipolmoment           0.000074      0.000033     -0.045451 electrons x Angstroem
 Tr[quadrupol]     -6564.403267

 energy correction for charged system         0.000000 eV
 dipol+quadrupol energy correction           -0.000059 eV
 added-field ion interaction          0.000726 eV  (added to PSCEN)


 Free energy of the ion-electron system (eV)
  ---------------------------------------------------
  alpha Z        PSCENC =       101.90515563
  Ewald energy   TEWEN  =     39704.41990966
  -Hartree energ DENC   =    -48181.51388604
  -exchange      EXHF   =       559.47345899
  -V(xc)+E(xc)   XCENC  =       614.92804890
  PAW double counting   =     27121.39281780   -27148.78632428
  entropy T*S    EENTRO =        -0.00812453
  eigenvalues    EBANDS =     -3224.35911025
  atomic energy  EATOM  =      9840.58036623
  ---------------------------------------------------
  free energy    TOTEN  =      -611.96822245 eV

  energy without entropy =     -611.96009792  energy(sigma->0) =     -611.96416019
  exchange ACFDT corr.  =        -0.00414198  see jH, gK, PRB 81, 115126


--------------------------------------------------------------------------------------------------------




--------------------------------------- Iteration      1(  17)  ---------------------------------------


    POTLOK:  cpu time    1.1263: real time    1.1295
    SETDIJ:  cpu time    1.1521: real time    1.1551
    TRIAL :  cpu time  192.7580: real time  193.4866
    CORREC:  cpu time    0.0010: real time    0.0010
    CHARGE:  cpu time    0.9119: real time    0.9144
    --------------------------------------------
      LOOP:  cpu time  195.9508: real time  196.6921

 eigenvalue-minimisations  :     0
 total energy-change (2. order) :-0.1286528E-01  (-0.1211192E-01)
 number of electron     245.0000002 magnetization       3.0494591
 augmentation part       13.4893096 magnetization       2.5173579

 DIPCOR: dipole corrections for dipol
 direction  3 min pos     1,
 dipolmoment           0.000074      0.000032     -0.045317 electrons x Angstroem
 Tr[quadrupol]     -6564.404663

 energy correction for charged system         0.000000 eV
 dipol+quadrupol energy correction           -0.000059 eV
 added-field ion interaction          0.000724 eV  (added to PSCEN)


 Free energy of the ion-electron system (eV)
  ---------------------------------------------------
  alpha Z        PSCENC =       101.90515383
  Ewald energy   TEWEN  =     39704.41990966
  -Hartree energ DENC   =    -48181.61824525
  -exchange      EXHF   =       559.51483660
  -V(xc)+E(xc)   XCENC  =       614.94665694
  PAW double counting   =     27124.09558357   -27151.51162356
  entropy T*S    EENTRO =        -0.00766744
  eigenvalues    EBANDS =     -3224.30560121
  atomic energy  EATOM  =      9840.58036623
  ---------------------------------------------------
  free energy    TOTEN  =      -611.98108773 eV

  energy without entropy =     -611.97342029  energy(sigma->0) =     -611.97725401
  exchange ACFDT corr.  =        -0.00383743  see jH, gK, PRB 81, 115126


--------------------------------------------------------------------------------------------------------




[...]
  augment    46.10371    47.80380    47.92481    -0.13154     0.28481     0.36131
  Kinetic  3652.32152  3687.18405  4195.49539     6.65681    -0.92852     0.79744
  Fock     -329.90570  -330.81797  -306.02013     1.27851    -0.12014    -0.07314
  -------------------------------------------------------------------------------------
  Total     -38.78715   -40.16757    -0.36199    -2.05186    -0.59737     0.16395
  in kB     -19.56117   -20.25735    -0.18256    -1.03480    -0.30127     0.08268
  external pressure =      -13.33 kB  Pullay stress =        0.00 kB


 VOLUME and BASIS-vectors are now :
 -----------------------------------------------------------------------------
  energy-cutoff  :      500.00
  volume of cell :     3176.90
      direct lattice vectors                 reciprocal lattice vectors
    12.669700000  0.000000000  0.000000000     0.078928467 -0.000452121  0.000128754
     0.071833731 12.540294262  0.000000000     0.000000000  0.079742945  0.000057152
    -0.032699933 -0.014330724 19.995368126     0.000000000  0.000000000  0.050011582

  length of vectors
    12.669700000 12.540500000 19.995400000     0.078929867  0.079742966  0.050011582


 FORCES acting on ions:
    Electron-Ion                     Ewald-Force                    Non-Local-Force
 -----------------------------------------------------------------------------------------------
   0.701E+01 0.273E+01 -.439E+01   -.714E+01 -.298E+01 0.437E+01   0.109E+00 0.297E+00 0.143E-01
   0.517E+01 0.589E+00 -.131E-01   -.535E+01 -.695E+00 0.187E-01   0.192E+00 0.712E-01 -.180E-02
   0.134E+02 -.221E+00 -.342E+01   -.134E+02 0.275E+00 0.341E+01   0.119E+00 0.540E-02 0.310E-03
   0.939E+01 0.857E+01 -.367E+01   -.955E+01 -.899E+01 0.378E+01   0.614E-01 0.422E+00 -.104E+00
   0.173E+02 0.133E+02 -.187E+01   -.180E+02 -.142E+02 0.186E+01   0.620E+00 0.684E+00 0.184E-01
   0.199E+02 -.398E+01 -.638E+00   -.204E+02 0.427E+01 0.636E+00   0.474E+00 -.248E+00 -.738E-02
   0.203E+02 0.210E+01 0.211E+01   -.208E+02 -.201E+01 -.221E+01   0.605E+00 -.670E-01 0.117E+00
   0.223E+02 0.285E+02 -.428E+01   -.247E+02 -.312E+02 0.431E+01   0.228E+01 0.300E+01 -.389E-01
   0.167E+02 -.227E+01 0.580E+00   -.167E+02 0.213E+01 -.573E+00   -.990E-02 0.433E-01 0.267E-02
   0.407E+02 -.128E+02 0.200E+01   -.443E+02 0.133E+02 -.189E+01   0.366E+01 -.543E+00 -.151E+00
   0.139E+02 0.477E+01 -.408E+01   -.142E+02 -.495E+01 0.405E+01   0.247E+00 0.219E+00 0.256E-01
   0.472E+02 0.138E+02 -.455E+01   -.502E+02 -.141E+02 0.462E+01   0.328E+01 0.544E+00 -.102E+00
   0.275E+01 -.334E+02 -.627E+01   -.168E+01 0.359E+02 0.626E+01   -.122E+01 -.267E+01 -.549E-01
   0.948E+01 -.126E+02 -.892E+01   -.935E+01 0.131E+02 0.894E+01   -.507E-01 -.404E+00 -.358E-01
   0.170E+01 -.450E+00 -.471E+01   -.187E+01 0.524E+00 0.471E+01   0.115E+00 -.954E-01 -.354E-02
   0.178E+02 -.311E+01 -.736E+01   -.181E+02 0.316E+01 0.737E+01   0.307E+00 -.853E-01 -.226E-01
   0.935E+01 -.375E+01 -.577E+01   -.920E+01 0.384E+01 0.576E+01   -.959E-01 -.141E+00 -.363E-03
   -.970E+01 0.166E+01 0.706E+01   0.954E+01 -.175E+01 -.706E+01   0.100E+00 0.117E+00 0.733E-03
   0.312E+00 0.126E+02 0.273E+01   -.680E-01 -.131E+02 -.277E+01   -.100E+00 0.587E+00 0.570E-01
   -.184E+00 0.350E+01 0.367E+01   0.473E+00 -.378E+01 -.369E+01   -.220E+00 0.260E+00 0.151E-01
   -.886E+01 0.928E+01 0.910E+01   0.872E+01 -.975E+01 -.909E+01   0.356E-01 0.402E+00 0.461E-01
   -.212E+01 0.236E+02 0.662E+01   0.118E+01 -.264E+02 -.686E+01   0.113E+01 0.275E+01 0.282E+00
   -.152E+02 0.275E+02 0.599E+00   0.169E+02 -.307E+02 -.763E+00   -.170E+01 0.302E+01 0.183E+00
   -.247E+02 -.216E+02 0.156E+02   0.267E+02 0.248E+02 -.157E+02   -.199E+01 -.341E+01 0.175E+00
   0.889E+01 -.340E+02 0.709E+01   -.106E+02 0.369E+02 -.688E+01   0.173E+01 -.288E+01 -.182E+00
   -.186E+02 -.103E+02 0.991E+01   0.193E+02 0.113E+02 -.993E+01   -.606E+00 -.793E+00 0.156E-01
   -.107E+02 -.960E+01 0.937E+01   0.108E+02 0.101E+02 -.953E+01   -.256E-01 -.485E+00 0.144E+00
   -.128E+01 -.484E+01 -.177E+01   0.978E+00 0.508E+01 0.179E+01   0.239E+00 -.231E+00 -.407E-01
   -.226E+01 -.142E+02 0.292E+01   0.199E+01 0.147E+02 -.288E+01   0.160E+00 -.508E+00 -.587E-01
   -.704E+01 -.310E+01 0.588E+01   0.719E+01 0.339E+01 -.586E+01   -.127E+00 -.322E+00 -.343E-01
   -.755E+01 0.118E+00 0.508E+00   0.754E+01 -.602E-01 -.496E+00   -.307E-01 -.235E-01 -.765E-02
   -.166E+02 0.589E+00 0.540E+01   0.169E+02 -.664E+00 -.541E+01   -.307E+00 0.758E-01 0.164E-01
   -.966E+00 -.640E-01 0.341E+01   0.112E+01 0.205E-01 -.342E+01   -.128E+00 0.847E-01 0.190E-02
   0.797E+01 -.405E+01 0.803E+00   -.810E+01 0.420E+01 -.812E+00   0.127E+00 -.131E+00 0.159E-01
   -.392E+01 -.479E+01 0.477E+00   0.409E+01 0.506E+01 -.473E+00   -.190E+00 -.283E+00 -.121E-02
   -.402E+02 -.172E+02 -.296E+00   0.432E+02 0.174E+02 0.179E+00   -.328E+01 -.518E+00 0.138E+00
   -.109E+02 -.563E+01 0.214E+01   0.113E+02 0.587E+01 -.212E+01   -.269E+00 -.219E+00 -.129E-01
   0.566E+01 -.435E+01 -.161E+01   -.588E+01 0.469E+01 0.165E+01   0.206E+00 -.302E+00 -.282E-01
   0.598E+01 -.441E+01 -.207E+01   -.605E+01 0.452E+01 0.205E+01   0.104E+00 -.116E+00 0.175E-01
   -.350E+02 0.179E+02 -.405E+01   0.390E+02 -.184E+02 0.387E+01   -.390E+01 0.596E+00 0.190E+00
   -.106E+02 0.277E+01 -.438E+01   0.107E+02 -.272E+01 0.431E+01   -.967E-01 0.352E-01 0.557E-01
   -.258E+01 0.484E+01 -.105E+01   0.272E+01 -.496E+01 0.106E+01   -.193E+00 0.127E+00 -.145E-02
   -.323E+01 0.496E+01 -.569E+00   0.354E+01 -.532E+01 0.560E+00   -.274E+00 0.313E+00 0.175E-02
   -.191E+02 -.419E+00 0.755E+00   0.196E+02 0.376E+00 -.639E+00   -.588E+00 0.510E-01 -.123E+00
   -.178E+02 0.452E+01 0.202E+00   0.184E+02 -.484E+01 -.194E+00   -.564E+00 0.228E+00 0.343E-02
   0.571E+01 0.437E+01 -.136E+01   -.587E+01 -.462E+01 0.133E+01   0.180E+00 0.272E+00 0.302E-01
   -.638E+01 0.368E+01 -.158E+01   0.654E+01 -.382E+01 0.159E+01   -.135E+00 0.127E+00 -.207E-01
   -.136E+02 -.215E+00 0.376E+01   0.137E+02 0.169E+00 -.377E+01   -.129E+00 -.161E-01 0.141E-01
   -.478E+01 -.424E+00 0.673E+00   0.497E+01 0.535E+00 -.678E+00   -.218E+00 -.965E-01 0.550E-04
   0.868E+01 -.421E+00 -.151E+01   -.865E+01 0.361E+00 0.150E+01   0.157E-01 0.255E-01 0.159E-01
   0.300E+02 -.389E+02 0.251E+02   -.205E+02 0.566E+02 -.270E+02   -.912E+01 -.174E+02 0.194E+01
   0.206E+02 0.360E+02 -.131E+02   -.942E+01 -.548E+02 0.135E+02   -.112E+02 0.180E+02 -.450E+00
   -.279E+02 -.336E+02 -.268E+02   0.372E+02 0.501E+02 0.280E+02   -.927E+01 -.158E+02 -.115E+01
   -.371E+01 -.546E+02 -.883E+00   -.756E+01 0.740E+02 0.767E+00   0.115E+02 -.187E+02 -.687E-01
   -.170E+02 0.601E+02 -.199E+02   0.819E+01 -.776E+02 0.213E+02   0.858E+01 0.172E+02 -.147E+01
   0.476E+01 0.311E+02 0.439E+02   -.152E+02 -.482E+02 -.462E+02   0.103E+02 0.164E+02 0.214E+01
   -.802E+01 0.208E+02 0.132E+03   0.541E+01 -.199E+02 -.131E+03   0.138E+01 0.679E+00 -.195E+01
   -.238E+02 -.546E+01 -.167E+03   0.249E+02 0.385E+01 0.164E+03   -.445E+00 0.467E+00 0.334E+01
 -----------------------------------------------------------------------------------------------
   -.162E+01 -.461E+00 -.309E+01   -.355E-14 -.270E-12 0.568E-13   0.137E+01 0.585E+00 0.290E+01
 
 
 POSITION                                       TOTAL-FORCE (eV/Angst)
 -----------------------------------------------------------------------------------
      2.86202     12.51365     10.01661        -0.014689      0.066375      0.000355
      0.68330      1.23810     10.00250         0.009242     -0.028650      0.003866
      1.44875     12.52340     10.01443         0.061700      0.057856     -0.002882
      3.49966      1.19586     10.01379        -0.095504      0.028668      0.000321
      2.81035      2.43501     10.00724        -0.053398     -0.149638      0.004563
      0.72887      3.75110      9.99581        -0.016738      0.024903     -0.011030
      1.39395      2.47822      9.99590         0.117927      0.027351      0.017708
      3.55119      3.64047     10.00809         0.043553      0.500591     -0.016261
      0.83643      6.23401      9.99151        -0.004752     -0.097441      0.010492
      1.52350      4.95578      9.97701         0.232907     -0.057901     -0.047806
      0.78656      8.74983     10.01247        -0.100683      0.053242      0.003934
      1.54967      7.51504     10.00314         0.475991      0.221202     -0.036464
      3.56895      8.81377      9.99610        -0.208873     -0.242191     -0.065546
      2.87115     10.04127     10.01996         0.069856      0.043840     -0.025317
      0.75647     11.26909     10.01760        -0.058816     -0.025639     -0.006273
      1.45539     10.01994     10.02279         0.039625     -0.035006     -0.013307
      3.56810     11.27955     10.01451         0.054077     -0.051391     -0.013145
      7.09994     12.52105      9.97102        -0.057354      0.040315      0.003528
      4.91477      1.19832     10.00041         0.136566      0.100952      0.022439
      5.69164     12.51108      9.98512         0.061720     -0.006318     -0.003743
      7.72507      1.21960      9.97578        -0.100473     -0.032999      0.050817
      7.02686      2.44804     10.00251         0.247869      0.153550      0.061254
      5.60295      2.42843     10.02079        -0.093904     -0.011652      0.030774
      7.03511      7.62008      9.95654        -0.094440     -0.380914      0.037527
      4.99203      8.82557      9.95074         0.119321     -0.106111      0.013925
      7.78044      8.82671      9.95938         0.053129      0.131134     -0.002724
      7.09494     10.06440      9.95585         0.066884     -0.052725     -0.004494
      4.97571     11.28531      9.99423        -0.056184     -0.002123     -0.015338
      5.68021     10.05634      9.96965        -0.105506     -0.053058     -0.024741
      7.80606     11.28762      9.96680         0.021482     -0.053878     -0.012294
     11.32193     12.53152      9.99597        -0.059137      0.035310      0.003942
      9.14075      1.24097      9.98189        -0.032530      0.003173      0.010663
      9.91049     12.53272      9.98323         0.035170      0.045833      0.001128
     11.93466      1.25184      9.99817         0.016742      0.002552      0.007624
     11.24178      2.51755     10.00006        -0.030381     -0.032093      0.003149
      9.05076      3.74657     10.01839        -0.374753     -0.326239      0.028200
      9.81213      2.51272      9.99820         0.103979      0.006274      0.009622
     11.95650      3.77076     10.00508        -0.009658      0.022161      0.002006
     11.23942      5.02011     10.01159         0.051539     -0.012095     -0.004189
      9.07926      6.30837     10.02808        -0.075993      0.127867      0.023486
      9.76428      5.02783     10.02543        -0.004354      0.095656     -0.012786
     12.03148      6.24195     10.00397        -0.072994      0.020139      0.002689
     11.31313      7.49130     10.00445         0.017672     -0.032532     -0.006788
      9.19855      8.78232      9.98885        -0.084091      0.013257     -0.013530
      9.87152      7.51107     10.00432        -0.005412     -0.071027      0.011811
     12.02611      8.74470     10.00599         0.031902      0.039578     -0.000146
     11.33039     10.00815     10.00278         0.001562     -0.003887     -0.006460
      9.21779     11.27752      9.97762        -0.070249     -0.062092      0.000799
      9.91083     10.02159      9.99004        -0.027562      0.007377     -0.004896
     12.01482     11.26951     10.00562         0.064031     -0.034806      0.001705
      2.92975      4.86320      9.93193        -0.395122     -1.187497      0.228598
      2.93588      7.58680      9.99595        -1.059460      0.716126     -0.036457
      4.92780      3.63678     10.07203        -0.798155     -0.712317     -0.028040
      7.66497      3.67433     10.03486         1.284702     -0.988767     -0.190056
      7.67749      6.40980     10.05696         0.551464      1.262460     -0.192727
      5.65359      7.60850      9.89112         0.726244      0.698825      0.055243
      4.29832      6.18750      9.81230        -0.875955      1.424980     -0.146344
      6.23616      5.09897     10.27247         0.340264     -1.120561      0.291614
 -----------------------------------------------------------------------------------
    total drift:                                0.002352     -0.001905     -0.003292


--------------------------------------------------------------------------------------------------------



  FREE ENERGIE OF THE ION-ELECTRON SYSTEM (eV)
  ---------------------------------------------------
  free  energy   TOTEN  =      -612.20947521 eV

  energy  without entropy=     -612.20498933  energy(sigma->0) =     -612.20723227
 


--------------------------------------------------------------------------------------------------------


    POTLOK:  cpu time    2.3038: real time    2.3111


--------------------------------------------------------------------------------------------------------


 stress matrix after NEB project (eV)
    -38.78715     -2.05238      0.16395
     -2.05186    -40.16757     -0.59779
      0.16228     -0.59737     -0.36199
  FORCES: max atom, RMS     1.679072    0.522273
  FORCE total and by dimension    3.977513    1.424980
  Stress total and by dimension   55.921346   40.167566
 writing wavefunctions
     LOOP+:  cpu time27462.7937: real time27554.5919
    4ORBIT:  cpu time    0.0000: real time    0.0000
 


 total charge     
 
# of ion       s       p       d       tot
------------------------------------------
    1        0.872   1.796   0.000   2.668
    2        0.866   1.774   0.000   2.640
    3        0.867   1.771   0.000   2.638
    4        0.874   1.791   0.000   2.664
    5        0.871   1.809   0.000   2.680
    6        0.858   1.751   0.000   2.610
    7        0.867   1.766   0.000   2.633
    8        0.862   1.713   0.000   2.574
    9        0.842   1.720   0.000   2.563
   10        0.846   1.690   0.000   2.536
   11        0.861   1.754   0.000   2.615
   12        0.849   1.687   0.000   2.536
   13        0.865   1.763   0.000   2.628
   14        0.873   1.797   0.000   2.670
   15        0.867   1.781   0.000   2.647
   16        0.868   1.765   0.000   2.633
   17        0.870   1.799   0.000   2.668
   18        0.870   1.798   0.000   2.668
   19        0.873   1.806   0.000   2.679
   20        0.872   1.799   0.000   2.671
   21        0.872   1.796   0.000   2.668
   22        0.863   1.762   0.000   2.625
   23        0.865   1.763   0.000   2.628
   24        0.859   1.711   0.000   2.570
   25        0.866   1.760   0.000   2.625
   26        0.871   1.806   0.000   2.677
   27        0.874   1.792   0.000   2.666
   28        0.872   1.799   0.000   2.671
   29        0.873   1.805   0.000   2.678
   30        0.872   1.796   0.000   2.668
   31        0.866   1.768   0.000   2.634
   32        0.867   1.764   0.000   2.632
   33        0.867   1.781   0.000   2.647
   34        0.864   1.762   0.000   2.626
   35        0.860   1.749   0.000   2.609
   36        0.849   1.686   0.000   2.534
   37        0.861   1.754   0.000   2.615
   38        0.858   1.743   0.000   2.601
   39        0.851   1.710   0.000   2.561
   40        0.847   1.691   0.000   2.537
   41        0.842   1.720   0.000   2.562
   42        0.851   1.710   0.000   2.560
   43        0.858   1.744   0.000   2.601
   44        0.866   1.763   0.000   2.629
   45        0.859   1.752   0.000   2.611
   46        0.860   1.749   0.000   2.610
   47        0.864   1.761   0.000   2.625
   48        0.867   1.771   0.000   2.638
   49        0.866   1.773   0.000   2.639
   50        0.866   1.768   0.000   2.634
   51        1.228   2.668   0.000   3.896
   52        1.234   2.656   0.000   3.891
   53        1.229   2.689   0.000   3.918
   54        1.236   2.667   0.000   3.903
   55        1.227   2.690   0.000   3.917
   56        1.229   2.670   0.000   3.899
   57        0.450   0.525   6.354   7.329
   58        0.348   0.377   4.974   5.700
--------------------------------------------------
tot         51.347 104.981  11.328 167.656
 


 magnetization (x)
 
# of ion       s       p       d       tot
------------------------------------------
    1       -0.000  -0.007   0.000  -0.007
    2       -0.000  -0.003   0.000  -0.003
    3        0.000  -0.002   0.000  -0.002
    4       -0.000  -0.006   0.000  -0.006
    5       -0.001  -0.015   0.000  -0.016
    6       -0.001  -0.015   0.000  -0.016
    7        0.001   0.004   0.000   0.004
    8        0.000   0.003   0.000   0.003
    9       -0.001  -0.013   0.000  -0.014
   10        0.001   0.003   0.000   0.003
   11       -0.001  -0.013   0.000  -0.014
   12       -0.000  -0.002   0.000  -0.002
   13        0.000  -0.005   0.000  -0.005
   14        0.000  -0.002   0.000  -0.002
   15       -0.001  -0.011   0.000  -0.012
   16        0.000  -0.003   0.000  -0.003
   17       -0.000  -0.004   0.000  -0.005
   18       -0.000  -0.004   0.000  -0.004
   19       -0.000   0.001   0.000   0.001
   20       -0.000  -0.008   0.000  -0.009
   21        0.000  -0.000   0.000  -0.000
   22        0.001  -0.004   0.000  -0.004
   23       -0.001  -0.021   0.000  -0.022
   24        0.002   0.009   0.000   0.012
   25       -0.001  -0.013   0.000  -0.014
   26       -0.000  -0.009   0.000  -0.010
   27        0.000  -0.002   0.000  -0.002
   28       -0.000  -0.008   0.000  -0.009
   29        0.001   0.003   0.000   0.003
   30       -0.000  -0.006   0.000  -0.006
   31       -0.000  -0.009   0.000  -0.009
   32       -0.000  -0.006   0.000  -0.006
   33       -0.000  -0.007   0.000  -0.008
   34        0.000  -0.001   0.000  -0.001
   35       -0.000  -0.007   0.000  -0.007
   36        0.001  -0.006   0.000  -0.005
   37        0.000  -0.008   0.000  -0.008
   38       -0.001  -0.012   0.000  -0.012
   39        0.000   0.000   0.000   0.000
   40       -0.000  -0.009   0.000  -0.009
   41       -0.000  -0.004   0.000  -0.004
   42        0.001   0.003   0.000   0.004
   43       -0.001  -0.019   0.000  -0.020
   44        0.000   0.001   0.000   0.001
   45       -0.000  -0.010   0.000  -0.011
   46        0.000  -0.001   0.000  -0.001
   47       -0.000  -0.007   0.000  -0.007
   48       -0.000  -0.003   0.000  -0.003
   49        0.000  -0.000   0.000  -0.000
   50        0.000  -0.004   0.000  -0.004
   51        0.001  -0.000   0.000   0.001
   52       -0.009  -0.067   0.000  -0.076
   53       -0.014  -0.073   0.000  -0.088
   54        0.003  -0.046   0.000  -0.043
   55       -0.004  -0.029   0.000  -0.034
   56        0.007  -0.014   0.000  -0.007
   57       -0.022  -0.035  -0.281  -0.338
   58        0.048   0.021   3.889   3.958
--------------------------------------------------
tot          0.005  -0.509   3.608   3.104
 

 total amount of memory used by VASP MPI-rank0   155548. kBytes
=======================================================================

   base      :      30000. kBytes
   nonl-proj :       4288. kBytes
   fftplans  :      11851. kBytes
   grid      :      31266. kBytes
   one-center:         62. kBytes
   HF        :         23. kBytes
   nonlr-proj:      15520. kBytes
   wavefun   :      62538. kBytes
 
  
  
 General timing and accounting informations for this job:
 ========================================================
  
                  Total CPU time used (sec):    27504.502
                            User time (sec):    27435.334
                          System time (sec):       69.169
                         Elapsed time (sec):    27603.184
  
                   Maximum memory used (kb):      396512.
                   Average memory used (kb):           0.
  
                          Minor page faults:      1975181
                          Major page faults:          182
                 Voluntary context switches:       313413
