 vasp.5.4.4.18Apr17-6-g9f103f2a35 (build Feb 25 2019 10:51:38) complex          
  
 executed on             LinuxIFC date 2021.08.06  10:54:58
 running on   32 total cores
 distrk:  each k-point on   32 cores,    1 groups
 distr:  one band on NCORES_PER_BAND=  32 cores,    1 groups


--------------------------------------------------------------------------------------------------------


 INCAR:
 POTCAR:    PAW_PBE C 08Apr2002                   
 POTCAR:    PAW_PBE N 08Apr2002                   
 POTCAR:    PAW_PBE Fe 06Sep2000                  
 POTCAR:    PAW_PBE Sc_sv 07Sep2000               

 ----------------------------------------------------------------------------- 
|                                                                             |
|           W    W    AA    RRRRR   N    N  II  N    N   GGGG   !!!           |
|           W    W   A  A   R    R  NN   N  II  NN   N  G    G  !!!           |
|           W    W  A    A  R    R  N N  N  II  N N  N  G       !!!           |
|           W WW W  AAAAAA  RRRRR   N  N N  II  N  N N  G  GGG   !            |
|           WW  WW  A    A  R   R   N   NN  II  N   NN  G    G                |
|           W    W  A    A  R    R  N    N  II  N    N   GGGG   !!!           |
|                                                                             |
|      For optimal performance we recommend to set                            |
|        NCORE= 4 - approx SQRT( number of cores)                             |
|      NCORE specifies how many cores store one orbital (NPAR=cpu/NCORE).     |
|      This setting can  greatly improve the performance of VASP for DFT.     |
|      The default,   NCORE=1            might be grossly inefficient         |
|      on modern multi-core architectures or massively parallel machines.     |
|      Do your own testing !!!!                                               |
|      Unfortunately you need to use the default for GW and RPA calculations. |
|      (for HF NCORE is supported but not extensively tested yet)             |
|                                                                             |
 ----------------------------------------------------------------------------- 

 POTCAR:    PAW_PBE C 08Apr2002                   
   VRHFIN =C: s2p2                                                              
   LEXCH  = PE                                                                  
   EATOM  =   147.1560 eV,   10.8157 Ry                                         
                                                                                
   TITEL  = PAW_PBE C 08Apr2002                                                 
   LULTRA =        F    use ultrasoft PP ?                                      
   IUNSCR =        1    unscreen: 0-lin 1-nonlin 2-no                           
   RPACOR =    1.200    partial core radius                                     
   POMASS =   12.011; ZVAL   =    4.000    mass and valenz                      
   RCORE  =    1.500    outmost cutoff radius                                   
   RWIGS  =    1.630; RWIGS  =    0.863    wigner-seitz radius (au A)           
   ENMAX  =  400.000; ENMIN  =  300.000 eV                                      
   ICORE  =        2    local potential                                         
   LCOR   =        T    correct aug charges                                     
   LPAW   =        T    paw PP                                                  
   EAUG   =  644.873                                                            
   DEXC   =    0.000                                                            
   RMAX   =    1.529    core radius for proj-oper                               
   RAUG   =    1.300    factor for augmentation sphere                          
   RDEP   =    1.501    radius for radial grids                                 
   RDEPT  =    1.300    core radius for aug-charge                              
                                                                                
   Atomic configuration                                                         
    4 entries                                                                   
     n  l   j            E        occ.                                          
     1  0  0.50      -273.3789   2.0000                                         
     2  0  0.50       -13.7508   2.0000                                         
     2  1  0.50        -5.2854   2.0000                                         
     3  2  1.50        -5.4423   0.0000                                         
   Description                                                                  
     l       E           TYP  RCUT    TYP  RCUT                                 
     0    -13.7508458     23  1.200                                             
     0     -8.2022199     23  1.200                                             
     1     -5.2854383     23  1.500                                             
     1     34.0145650     23  1.500                                             
     2     -5.4423304      7  1.500                                             
  local pseudopotential read in
  partial core-charges read in
  partial kinetic energy density read in
  atomic valenz-charges read in
  non local Contribution for L=           0  read in
    real space projection operators read in
  non local Contribution for L=           0  read in
    real space projection operators read in
  non local Contribution for L=           1  read in
    real space projection operators read in
  non local Contribution for L=           1  read in
    real space projection operators read in
    PAW grid and wavefunctions read in
 
   number of l-projection  operators is LMAX  =           4
   number of lm-projection operators is LMMAX =           8
 
 POTCAR:    PAW_PBE N 08Apr2002                   
   VRHFIN =N: s2p3                                                              
   LEXCH  = PE                                                                  
   EATOM  =   264.5486 eV,   19.4438 Ry                                         
                                                                                
   TITEL  = PAW_PBE N 08Apr2002                                                 
   LULTRA =        F    use ultrasoft PP ?                                      
   IUNSCR =        1    unscreen: 0-lin 1-nonlin 2-no                           
   RPACOR =    1.200    partial core radius                                     
   POMASS =   14.001; ZVAL   =    5.000    mass and valenz                      
   RCORE  =    1.500    outmost cutoff radius                                   
   RWIGS  =    1.400; RWIGS  =    0.741    wigner-seitz radius (au A)           
   ENMAX  =  400.000; ENMIN  =  300.000 eV                                      
   ICORE  =        2    local potential                                         
   LCOR   =        T    correct aug charges                                     
   LPAW   =        T    paw PP                                                  
   EAUG   =  627.112                                                            
   DEXC   =    0.000                                                            
   RMAX   =    1.529    core radius for proj-oper                               
   RAUG   =    1.300    factor for augmentation sphere                          
   RDEP   =    1.514    radius for radial grids                                 
   RDEPT  =    1.338    core radius for aug-charge                              
                                                                                
   Atomic configuration                                                         
    4 entries                                                                   
     n  l   j            E        occ.                                          
     1  0  0.50      -384.7179   2.0000                                         
     2  0  0.50       -18.5828   2.0000                                         
     2  1  0.50        -7.0898   3.0000                                         
     3  2  1.50        -6.8029   0.0000                                         
   Description                                                                  
     l       E           TYP  RCUT    TYP  RCUT                                 
     0    -18.5828119     23  1.200                                             
     0    -13.5018863     23  1.200                                             
     1     -7.0897853     23  1.500                                             
     1      9.5240782     23  1.500                                             
     2     -6.8029130      7  1.500                                             
  local pseudopotential read in
  partial core-charges read in
  partial kinetic energy density read in
  atomic valenz-charges read in
  non local Contribution for L=           0  read in
    real space projection operators read in
  non local Contribution for L=           0  read in
    real space projection operators read in
  non local Contribution for L=           1  read in
    real space projection operators read in
  non local Contribution for L=           1  read in
    real space projection operators read in
    PAW grid and wavefunctions read in
 
   number of l-projection  operators is LMAX  =           4
   number of lm-projection operators is LMMAX =           8
 
 POTCAR:    PAW_PBE Fe 06Sep2000                  
   VRHFIN =Fe:  d7 s1                                                           
   LEXCH  = PE                                                                  
   EATOM  =   594.3153 eV,   43.6809 Ry                                         
                                                                                
   TITEL  = PAW_PBE Fe 06Sep2000                                                
   LULTRA =        F    use ultrasoft PP ?                                      
   IUNSCR =        1    unscreen: 0-lin 1-nonlin 2-no                           
   RPACOR =    2.000    partial core radius                                     
   POMASS =   55.847; ZVAL   =    8.000    mass and valenz                      
   RCORE  =    2.300    outmost cutoff radius                                   
   RWIGS  =    2.460; RWIGS  =    1.302    wigner-seitz radius (au A)           
   ENMAX  =  267.882; ENMIN  =  200.911 eV                                      
   RCLOC  =    1.701    cutoff for local pot                                    
   LCOR   =        T    correct aug charges                                     
   LPAW   =        T    paw PP                                                  
   EAUG   =  511.368                                                            
   DEXC   =    0.000                                                            
   RMAX   =    2.356    core radius for proj-oper                               
   RAUG   =    1.300    factor for augmentation sphere                          
   RDEP   =    2.442    radius for radial grids                                 
   RDEPT  =    1.890    core radius for aug-charge                              
                                                                                
   Atomic configuration                                                         
    9 entries                                                                   
     n  l   j            E        occ.                                          
     1  0  0.50     -6993.8440   2.0000                                         
     2  0  0.50      -814.6047   2.0000                                         
     2  1  1.50      -693.3689   6.0000                                         
     3  0  0.50       -89.4732   2.0000                                         
     3  1  1.50       -55.6373   6.0000                                         
     3  2  2.50        -3.8151   7.0000                                         
     4  0  0.50        -4.2551   1.0000                                         
     4  1  1.50        -3.4015   0.0000                                         
     4  3  2.50        -1.3606   0.0000                                         
   Description                                                                  
     l       E           TYP  RCUT    TYP  RCUT                                 
     2     -3.8151135     23  2.300                                             
     2     -5.1756961     23  2.300                                             
     0     -4.2550963     23  2.300                                             
     0      7.2035603     23  2.300                                             
     1     -2.7211652     23  2.300                                             
     1     18.4316424     23  2.300                                             
  local pseudopotential read in
  partial core-charges read in
  partial kinetic energy density read in
  atomic valenz-charges read in
  non local Contribution for L=           2  read in
    real space projection operators read in
  non local Contribution for L=           2  read in
    real space projection operators read in
  non local Contribution for L=           0  read in
    real space projection operators read in
  non local Contribution for L=           0  read in
    real space projection operators read in
  non local Contribution for L=           1  read in
    real space projection operators read in
  non local Contribution for L=           1  read in
    real space projection operators read in
    PAW grid and wavefunctions read in
 
   number of l-projection  operators is LMAX  =           6
   number of lm-projection operators is LMMAX =          18
 
 POTCAR:    PAW_PBE Sc_sv 07Sep2000               
   VRHFIN =Sc: 3p4s3d                                                           
   LEXCH  = PE                                                                  
   EATOM  =  1273.2868 eV,   93.5839 Ry                                         
                                                                                
   TITEL  = PAW_PBE Sc_sv 07Sep2000                                             
   LULTRA =        F    use ultrasoft PP ?                                      
   IUNSCR =        1    unscreen: 0-lin 1-nonlin 2-no                           
   RPACOR =    2.200    partial core radius                                     
   POMASS =   44.956; ZVAL   =   11.000    mass and valenz                      
   RCORE  =    2.500    outmost cutoff radius                                   
   RWIGS  =    2.700; RWIGS  =    1.429    wigner-seitz radius (au A)           
   ENMAX  =  222.660; ENMIN  =  166.995 eV                                      
   RCLOC  =    1.805    cutoff for local pot                                    
   LCOR   =        T    correct aug charges                                     
   LPAW   =        T    paw PP                                                  
   EAUG   =  443.063                                                            
   RMAX   =    2.551    core radius for proj-oper                               
   RAUG   =    1.300    factor for augmentation sphere                          
   RDEP   =    2.650    radius for radial grids                                 
   RDEPT  =    2.038    core radius for aug-charge                              
                                                                                
   Atomic configuration                                                         
    8 entries                                                                   
     n  l   j            E        occ.                                          
     1  0  0.50     -4394.2533   2.0000                                         
     2  0  0.50      -471.0040   2.0000                                         
     2  1  1.50      -384.9788   6.0000                                         
     3  0  0.50       -52.1410   2.0000                                         
     4  0  0.50        -3.5584   1.0000                                         
     3  1  1.50       -30.8841   6.0000                                         
     3  2  2.50        -1.3655   2.0000                                         
     4  3  2.50        -1.3606   0.0000                                         
   Description                                                                  
     l       E           TYP  RCUT    TYP  RCUT                                 
     0    -52.1409870     23  1.800                                             
     0     -3.5583698     23  2.500                                             
     1    -30.8840697     23  2.300                                             
     1      4.0817478     23  2.300                                             
     2     -1.3655397     23  2.500                                             
     2      0.3564476     23  2.500                                             
  local pseudopotential read in
  partial core-charges read in
  partial kinetic energy density read in
  atomic valenz-charges read in
  non local Contribution for L=           0  read in
    real space projection operators read in
  non local Contribution for L=           0  read in
    real space projection operators read in
  non local Contribution for L=           1  read in
    real space projection operators read in
  non local Contribution for L=           1  read in
    real space projection operators read in
  non local Contribution for L=           2  read in
    real space projection operators read in
  non local Contribution for L=           2  read in
    real space projection operators read in
    PAW grid and wavefunctions read in
 
   number of l-projection  operators is LMAX  =           6
   number of lm-projection operators is LMMAX =          18
 

 ----------------------------------------------------------------------------- 
|                                                                             |
|  ADVICE TO THIS USER RUNNING 'VASP/VAMP'   (HEAR YOUR MASTER'S VOICE ...):  |
|                                                                             |
|      You have a (more or less) 'large supercell' and for larger cells       |
|      it might be more efficient to use real space projection opertators     |
|      So try LREAL= Auto  in the INCAR   file.                               |
|      Mind:          For very  accurate calculation you might also keep the  |
|      reciprocal projection scheme          (i.e. LREAL=.FALSE.)             |
|                                                                             |
 ----------------------------------------------------------------------------- 

  PAW_PBE C 08Apr2002                   :
 energy of atom  1       EATOM= -147.1560
 kinetic energy error for atom=    0.0076 (will be added to EATOM!!)
  PAW_PBE N 08Apr2002                   :
 energy of atom  2       EATOM= -264.5486
 kinetic energy error for atom=    0.0138 (will be added to EATOM!!)
  PAW_PBE Fe 06Sep2000                  :
 energy of atom  3       EATOM= -594.3153
 kinetic energy error for atom=    0.0026 (will be added to EATOM!!)
  PAW_PBE Sc_sv 07Sep2000               :
 energy of atom  4       EATOM=-1273.2868
 kinetic energy error for atom=    0.0031 (will be added to EATOM!!)
 
 
 POSCAR:  C  N Fe Sc                             
  positions in cartesian coordinates
  No initial velocities read in
 exchange correlation table for  LEXCH =        8
   RHO(1)=    0.500       N(1)  =     2000
   RHO(2)=  100.500       N(2)  =     4000

 VTST: version 3.2, (02/03/18)

 CHAIN: initializing optimizer
 
 OPT: Using VASP Conjugate-Gradient optimizer
 CHAIN: Read ICHAIN            0
 
 POSCAR:  C  N Fe Sc                             
  positions in cartesian coordinates
  No initial velocities read in
 


--------------------------------------------------------------------------------------------------------


 ion  position               nearest neighbor table
   1  0.220  0.001  0.506-   3 1.42  20 1.43   4 1.43
   2  0.055  0.101  0.506-  34 1.43   3 1.43   7 1.44
   3  0.110  0.000  0.505-   1 1.42   2 1.43  18 1.44
   4  0.277  0.100  0.507-  22 1.43   5 1.43   1 1.43
   5  0.224  0.201  0.506-   4 1.43   7 1.43   8 1.45
   6  0.056  0.300  0.505-  38 1.43   7 1.44  11 1.45
   7  0.112  0.200  0.506-   5 1.43   6 1.44   2 1.44
   8  0.283  0.300  0.505-  51 1.43   9 1.45   5 1.45
   9  0.225  0.400  0.500-  11 1.43  12 1.45   8 1.45
  10  0.057  0.500  0.501-  42 1.43  15 1.44  11 1.44
  11  0.113  0.400  0.502-   9 1.43  10 1.44   6 1.45
  12  0.281  0.500  0.490-  55 1.34   9 1.45  13 1.46
  13  0.224  0.601  0.493-  15 1.43  16 1.45  12 1.46
  14  0.055  0.700  0.501-  46 1.43  19 1.43  15 1.44
  15  0.113  0.600  0.498-  13 1.43  10 1.44  14 1.44
  16  0.278  0.704  0.494-  56 1.37  17 1.44  13 1.45
  17  0.221  0.802  0.500-  19 1.42  20 1.43  16 1.44
  18  0.054  0.900  0.504-  50 1.42  19 1.43   3 1.44
  19  0.109  0.800  0.502-  17 1.42  18 1.43  14 1.43
  20  0.276  0.901  0.503-  17 1.43  28 1.43   1 1.43
  21  0.555  0.998  0.504-  23 1.42  30 1.43  24 1.43
  22  0.388  0.098  0.507-  26 1.41   4 1.43  23 1.43
  23  0.444  0.999  0.505-  28 1.42  21 1.42  22 1.43
  24  0.611  0.098  0.506-  25 1.42  32 1.42  21 1.43
  25  0.556  0.196  0.506-  24 1.42  52 1.43  26 1.43
  26  0.444  0.196  0.508-  22 1.41  51 1.42  25 1.43
  27  0.554  0.799  0.495-  54 1.43  30 1.44  29 1.46
  28  0.387  0.902  0.502-  29 1.41  23 1.42  20 1.43
  29  0.440  0.803  0.495-  56 1.37  28 1.41  27 1.46
  30  0.610  0.899  0.500-  21 1.43  48 1.43  27 1.44
  31  0.888  1.000  0.504-  33 1.42  50 1.44  34 1.44
  32  0.722  0.099  0.505-  24 1.42  37 1.43  33 1.43
  33  0.777  0.999  0.504-  31 1.42  32 1.43  48 1.44
  34  0.944  0.100  0.505-   2 1.43  35 1.43  31 1.44
  35  0.888  0.200  0.505-  37 1.43  34 1.43  38 1.44
  36  0.718  0.299  0.503-  52 1.43  37 1.45  41 1.45
  37  0.776  0.199  0.505-  32 1.43  35 1.43  36 1.45
  38  0.945  0.300  0.504-   6 1.43  35 1.44  39 1.44
  39  0.888  0.399  0.502-  41 1.43  42 1.44  38 1.44
  40  0.721  0.498  0.497-  53 1.40  45 1.44  41 1.44
  41  0.777  0.398  0.501-  39 1.43  40 1.44  36 1.45
  42  0.945  0.499  0.501-  10 1.43  39 1.44  43 1.44
  43  0.887  0.599  0.500-  45 1.42  46 1.44  42 1.44
  44  0.719  0.700  0.497-  54 1.41  49 1.44  45 1.46
  45  0.776  0.599  0.498-  43 1.42  40 1.44  44 1.46
  46  0.944  0.699  0.501-  14 1.43  47 1.44  43 1.44
  47  0.888  0.799  0.502-  49 1.43  50 1.43  46 1.44
  48  0.721  0.899  0.502-  30 1.43  49 1.43  33 1.44
  49  0.776  0.799  0.501-  47 1.43  48 1.43  44 1.44
  50  0.943  0.899  0.504-  18 1.42  47 1.43  31 1.44
  51  0.394  0.298  0.506-  26 1.42   8 1.43  57 1.96
  52  0.607  0.298  0.503-  36 1.43  25 1.43  57 2.02
  53  0.612  0.488  0.492-  40 1.40  57 1.74  58 2.36
  54  0.610  0.700  0.491-  44 1.41  27 1.43  58 2.18
  55  0.384  0.499  0.478-  12 1.34  57 1.83  58 2.03
  56  0.385  0.709  0.488-  16 1.37  29 1.37  58 2.10
  57  0.497  0.413  0.492-  53 1.74  55 1.83  51 1.96  52 2.02  58 2.59
  58  0.491  0.604  0.441-  55 2.03  56 2.10  54 2.18  53 2.36  57 2.59
 
  LATTYP: Found a triclinic cell.
 ALAT       =    12.8060719468
 B/A-ratio  =     1.5536157676
 C/A-ratio  =     0.9736859706
 COS(alpha) =     0.0015802318
 COS(beta)  =     0.0043036550
 COS(gamma) =     0.0051832998
  
  Lattice vectors:
  
 A1 = (  12.8059955654,  -0.0276872400,   0.0344920553)
 A2 = (   0.0495133581,  -0.0116413253,  19.8956502811)
 A3 = (   0.0266709873, -12.4690579609,   0.0123418619)


Analysis of symmetry for initial positions (statically):
=====================================================================
 Subroutine PRICEL returns:
 Original cell was already a primitive cell.
 

 Routine SETGRP: Setting up the symmetry group for a 
 triclinic supercell.


 Subroutine GETGRP returns: Found  1 space group operations
 (whereof  1 operations were pure point group operations)
 out of a pool of  2 trial point group operations.


The static configuration has the point symmetry C_1 .


Analysis of symmetry for dynamics (positions and initial velocities):
=====================================================================
 Subroutine PRICEL returns:
 Original cell was already a primitive cell.
 

 Routine SETGRP: Setting up the symmetry group for a 
 triclinic supercell.


 Subroutine GETGRP returns: Found  1 space group operations
 (whereof  1 operations were pure point group operations)
 out of a pool of  2 trial point group operations.


The dynamic configuration has the point symmetry C_1 .


Analysis of structural, dynamic, and magnetic symmetry:
=====================================================================
 Subroutine PRICEL returns:
 Original cell was already a primitive cell.
 

 Routine SETGRP: Setting up the symmetry group for a 
 triclinic supercell.


 Subroutine GETGRP returns: Found  1 space group operations
 (whereof  1 operations were pure point group operations)
 out of a pool of  2 trial point group operations.


The magnetic configuration has the point symmetry C_1 .


 Subroutine INISYM returns: Found  1 space group operations
 (whereof  1 operations are pure point group operations),
 and found     1 'primitive' translations

 
 
 KPOINTS: KPOINTS created by Atomic Simulation Env

Automatic generation of k-mesh.
Space group operators:
 irot       det(A)        alpha          n_x          n_y          n_z        tau_x        tau_y        tau_z
    1     1.000000     0.000001     1.000000     0.000000     0.000000     0.000000     0.000000     0.000000
 
 Subroutine IBZKPT returns following result:
 ===========================================
 
 Found      2 irreducible k-points:
 
 Following reciprocal coordinates:
            Coordinates               Weight
  0.250000  0.250000  0.000000      2.000000
 -0.250000  0.250000 -0.000000      2.000000
 
 Following cartesian coordinates:
            Coordinates               Weight
  0.019566  0.020091 -0.000037      2.000000
 -0.019479  0.020008  0.000060      2.000000
 
 
 Subroutine IBZKPT_HF returns following result:
 ==============================================
 
 Found      4 k-points in 1st BZ
 the following      4 k-points will be used (e.g. in the exchange kernel)
 Following reciprocal coordinates:   # in IRBZ
  0.250000  0.250000  0.000000    0.25000000   1 t-inv F
 -0.250000  0.250000 -0.000000    0.25000000   2 t-inv F
 -0.250000 -0.250000 -0.000000    0.25000000   1 t-inv T
  0.250000 -0.250000  0.000000    0.25000000   2 t-inv T


--------------------------------------------------------------------------------------------------------




 Dimension of arrays:
   k-points           NKPTS =      2   k-points in BZ     NKDIM =      4   number of bands    NBANDS=    156
   number of dos      NEDOS =    301   number of ions     NIONS =     58
   non local maximal  LDIM  =      6   non local SUM 2l+1 LMDIM =     18
   total plane-waves  NPLWV = ******
   max r-space proj   IRMAX =      1   max aug-charges    IRDMAX=  19417
   dimension x,y,z NGX =    96 NGY =   96 NGZ =  150
   dimension x,y,z NGXF=   192 NGYF=  192 NGZF=  300
   support grid    NGXF=   192 NGYF=  192 NGZF=  300
   ions per type =              54   2   1   1
   NGX,Y,Z   is equivalent  to a cutoff of  12.46, 12.80, 12.53 a.u.
   NGXF,Y,Z  is equivalent  to a cutoff of  24.93, 25.60, 25.07 a.u.

 SYSTEM =  unknown system                          
 POSCAR =   C  N Fe Sc                             

 Startparameter for this run:
   NWRITE =      2    write-flag & timer
   PREC   = accura    normal or accurate (medium, high low for compatibility)
   ISTART =      1    job   : 0-new  1-cont  2-samecut
   ICHARG =      0    charge: 1-file 2-atom 10-const
   ISPIN  =      2    spin polarized calculation?
   LNONCOLLINEAR =      F non collinear calculations
   LSORBIT =      F    spin-orbit coupling
   INIWAV =      1    electr: 0-lowe 1-rand  2-diag
   LASPH  =      T    aspherical Exc in radial PAW
   METAGGA=      F    non-selfconsistent MetaGGA calc.

 Electronic Relaxation 1
   ENCUT  =  500.0 eV  36.75 Ry    6.06 a.u.  23.35 22.73 36.27*2*pi/ulx,y,z
   ENINI  =  500.0     initial cutoff
   ENAUG  =  644.9 eV  augmentation charge cutoff
   NELM   =    250;   NELMIN=  2; NELMDL=  0     # of ELM steps 
   EDIFF  = 0.1E-03   stopping-criterion for ELM
   LREAL  =      F    real-space projection
   NLSPLINE    = F    spline interpolate recip. space projectors
   LCOMPAT=      F    compatible to vasp.4.4
   GGA_COMPAT  = T    GGA compatible to vasp.4.4-vasp.4.6
   LMAXPAW     = -100 max onsite density
   LMAXMIX     =    2 max onsite mixed and CHGCAR
   VOSKOWN=      0    Vosko Wilk Nusair interpolation
   ROPT   =    0.00000   0.00000   0.00000   0.00000
 Ionic relaxation
   EDIFFG = -.3E-01   stopping-criterion for IOM
   NSW    =      0    number of steps for IOM
   NBLOCK =      1;   KBLOCK =      1    inner block; outer block 
   IBRION =     -1    ionic relax: 0-MD 1-quasi-New 2-CG
   NFREE  =      1    steps in history (QN), initial steepest desc. (CG)
   ISIF   =      2    stress and relaxation
   IWAVPR =     10    prediction:  0-non 1-charg 2-wave 3-comb
   ISYM   =      3    0-nonsym 1-usesym 2-fastsym
   LCORR  =      T    Harris-Foulkes like correction to forces

   POTIM  = 0.5000    time-step for ionic-motion
   TEIN   =    0.0    initial temperature
   TEBEG  =    0.0;   TEEND  =   0.0 temperature during run
   SMASS  =  -3.00    Nose mass-parameter (am)
   estimated Nose-frequenzy (Omega)   =  0.10E-29 period in steps =****** mass=  -0.375E-26a.u.
   SCALEE = 1.0000    scale energy and forces
   NPACO  =    256;   APACO  = 16.0  distance and # of slots for P.C.
   PSTRESS=    0.0 pullay stress

  Mass of Ions in am
   POMASS =  12.01 14.00 55.85 44.96
  Ionic Valenz
   ZVAL   =   4.00  5.00  8.00 11.00
  Atomic Wigner-Seitz radii
   RWIGS  =  -1.00 -1.00 -1.00 -1.00
  virtual crystal weights 
   VCA    =   1.00  1.00  1.00  1.00
   NELECT =     245.0000    total number of electrons
   NUPDOWN=      -1.0000    fix difference up-down

 DOS related values:
   EMIN   =  10.00;   EMAX   =-10.00  energy-range for DOS
   EFERMI =   0.00
   ISMEAR =     0;   SIGMA  =   0.10  broadening in eV -4-tet -1-fermi 0-gaus

 Electronic relaxation 2 (details)
   IALGO  =     53    algorithm
   LDIAG  =      T    sub-space diagonalisation (order eigenvalues)
   LSUBROT=      F    optimize rotation matrix (better conditioning)
   TURBO    =      0    0=normal 1=particle mesh
   IRESTART =      0    0=no restart 2=restart with 2 vectors
   NREBOOT  =      0    no. of reboots
   NMIN     =      0    reboot dimension
   EREF     =   0.00    reference energy to select bands
   IMIX   =      4    mixing-type and parameters
     AMIX     =   0.40;   BMIX     =  1.00
     AMIX_MAG =   1.60;   BMIX_MAG =  1.00
     AMIN     =   0.10
     WC   =   100.;   INIMIX=   1;  MIXPRE=   1;  MAXMIX= -45

 Intra band minimization:
   WEIMIN = 0.0000     energy-eigenvalue tresh-hold
   EBREAK =  0.16E-06  absolut break condition
   DEPER  =   0.30     relativ break condition  

   TIME   =   0.20     timestep for ELM

  volume/ion in A,a.u.               =      54.77       369.63
  Fermi-wavevector in a.u.,A,eV,Ry     =   0.696835  1.316828  6.606711  0.485580
  Thomas-Fermi vector in A             =   1.779996
 
 Write flags
   LWAVE        =      T    write WAVECAR
   LDOWNSAMPLE  =      F    k-point downsampling of WAVECAR
   LCHARG       =      T    write CHGCAR
   LVTOT        =      F    write LOCPOT, total local potential
   LVHAR        =      F    write LOCPOT, Hartree potential only
   LELF         =      F    write electronic localiz. function (ELF)
   LORBIT       =     11    0 simple, 1 ext, 2 COOP (PROOUT), +10 PAW based schemes


 Dipole corrections
   LMONO  =      F    monopole corrections only (constant potential shift)
   LDIPOL =      T    correct potential (dipole corrections)
   IDIPOL =      3    1-x, 2-y, 3-z, 4-all directions 
   EPSILON=  1.0000000 bulk dielectric constant

 Exchange correlation treatment:
   GGA     =    PE    GGA type
   LEXCH   =     8    internal setting for exchange type
   VOSKOWN=      0    Vosko Wilk Nusair interpolation
   EXXOEP  =     0    0=HF, 1=EXX-LHF (local Hartree Fock) 2=EXX OEP
   LHFCALC =     T    Hartree Fock is set to
   LSYMGRAD=     F    symmetrize gradient (conserves proper symmetry)
   PRECFOCK=normal    Normal, Fast or Accurate (Low or Medium for compatibility)
   LRHFCALC=     F    long range Hartree Fock
   LRSCOR  =     F    long range correlation only (use DFT for short range part)
   LTHOMAS =     F    Thomas Fermi screening in HF
   LMODELHF=     F    short range full HF, long range fraction AEXX
   ENCUT4O =  -1.0   cutoff for four orbital integrals eV
   LMAXFOCK=     4    L truncation for augmentation on plane wave grid
   LMAXFOCKAE=  -1    L truncation for all-electron charge restoration on plane wave grid
   NMAXFOCKAE=   1    number of basis functions for all-electron charge restoration
   LFOCKAEDFT=     F  apply the AE augmentation even for DFT
   NKREDX  =     1    reduce k-point grid by
   NKREDY  =     1    reduce k-point grid by
   NKREDZ  =     1    reduce k-point grid by
   SHIFTRED=     F    shift reduced grid of Gamma
   HFKIDENT=     F    idential grid for each k-point
   ODDONLY =     F    use only odd q-grid points
   EVENONLY=     F    use only even q-grid points
   HFALPHA =   -1.0000 decay constant for conv. correction
   MCALPHA =    0.0000 extent of test-charge in conv. correction in multipole expansion
   AEXX    =    0.2500 exact exchange contribution
   HFSCREEN=    0.2000 screening length (either q_TF or 0.3 A-1)
   HFSCREENC=   0.2000 screening length for correlation (either q_TF or 0.3 A-1)
   HFRCUT  =    0.0000 spherical cutoff for potential kernel
   ALDAX   =    0.7500 LDA exchange part
   AGGAX   =    0.7500 GGA exchange part
   ALDAC   =    1.0000 LDA correlation
   AGGAC   =    1.0000 GGA correlation
   ENCUTFOCK=  -1.0 apply spherical cutoff to Coloumb kernel
   NBANDSGWLOW=     1    first orbital included in HF term
   NBLOCK_FOCK=    64    blocking factor in FOCK_ACC
 Linear response parameters
   LEPSILON=     F    determine dielectric tensor
   LRPA    =     F    only Hartree local field effects (RPA)
   LNABLA  =     F    use nabla operator in PAW spheres
   LVEL    =     F    velocity operator in full k-point grid
   LINTERFAST=   F  fast interpolation
   KINTER  =     0    interpolate to denser k-point grid
   CSHIFT  =0.1000    complex shift for real part using Kramers Kronig
   OMEGAMAX=  -1.0    maximum frequency
   DEG_THRESHOLD= 0.2000000E-02 threshold for treating states as degnerate
   RTIME   =   -0.100 relaxation time in fs
  (WPLASMAI=    0.000 imaginary part of plasma frequency in eV, 0.658/RTIME)
   DFIELD  = 0.0000000 0.0000000 0.0000000 field for delta impulse in time
 
 Orbital magnetization related:
   ORBITALMAG=     F  switch on orbital magnetization
   LCHIMAG   =     F  perturbation theory with respect to B field
   DQ        =  0.001000  dq finite difference perturbation B field
   LLRAUG    =     F  two centre corrections for induced B field



--------------------------------------------------------------------------------------------------------


 Static calculation
 charge density and potential will be updated during run
 spin polarized calculation
 Conjugate gradient for all bands (Freysoldt, et al. PRB 79, 241103 (2009))
 perform sub-space diagonalisation
    before iterative eigenvector-optimisation
 modified Broyden-mixing scheme, WC =      100.0
 initial mixing is a Kerker type mixing with AMIX =  0.4000 and BMIX =      1.0000
 Hartree-type preconditioning will be used
 using additional bands           33
 reciprocal scheme for non local part
 use partial core corrections
 no Harris-corrections to forces 
 use gradient corrections 
 use of overlap-Matrix (Vanderbilt PP)
 Gauss-broadening in eV      SIGMA  =   0.10


--------------------------------------------------------------------------------------------------------


  energy-cutoff  :      500.00
  volume of cell :     3176.87
      direct lattice vectors                 reciprocal lattice vectors
    12.805995565 -0.027687240  0.034492055     0.078089307  0.000166839 -0.000194240
    -0.026670987 12.469057961 -0.012341862     0.000173269  0.080198937  0.000046495
     0.049513358 -0.011641325 19.895650281    -0.000135272  0.000049461  0.050262608

  length of vectors
    12.806071947 12.469092593 19.895715298     0.078089727  0.080199138  0.050262814


 
 old parameters found on file WAVECAR:
  energy-cutoff  :      500.00
  volume of cell :     3176.87
      direct lattice vectors                 reciprocal lattice vectors
    12.708200000  0.000000000  0.000000000     0.078689350 -0.000003708  0.000012361
     0.000588648 12.491499986  0.000000000     0.000000000  0.080054437 -0.000017605
    -0.003143556  0.004401127 20.012499269     0.000000000  0.000000000  0.049968771

  length of vectors

 
 k-points in units of 2pi/SCALE and weight: KPOINTS created by Atomic Simulation Env
   0.01956564  0.02009144 -0.00003694       0.500
  -0.01947901  0.02000802  0.00006018       0.500
 
 k-points in reciprocal lattice and weights: KPOINTS created by Atomic Simulation Env
   0.25000000  0.25000000  0.00000000       0.500
  -0.25000000  0.25000000 -0.00000000       0.500
 
 position of ions in fractional coordinates (direct lattice) 
   0.22044107  0.00080319  0.50569554
   0.05513584  0.10065360  0.50584483
   0.10960799  0.00034289  0.50540071
   0.27692963  0.10013493  0.50707268
   0.22382432  0.20066399  0.50649721
   0.05611232  0.30011378  0.50477790
   0.11184215  0.20041002  0.50592621
   0.28285232  0.30037141  0.50450209
   0.22466197  0.39977764  0.50045521
   0.05653002  0.50007188  0.50064546
   0.11321252  0.40031630  0.50248364
   0.28074269  0.49981114  0.49026373
   0.22416382  0.60122330  0.49273493
   0.05497424  0.69969485  0.50071476
   0.11258704  0.60036477  0.49827410
   0.27824877  0.70360613  0.49366352
   0.22064831  0.80165619  0.50043071
   0.05433896  0.89994848  0.50401998
   0.10946487  0.80027759  0.50204399
   0.27552278  0.90137956  0.50287654
   0.55487937  0.99836522  0.50403443
   0.38820641  0.09824167  0.50726918
   0.44394474  0.99945181  0.50483219
   0.61120125  0.09779585  0.50576946
   0.55606707  0.19613369  0.50618873
   0.44409321  0.19602596  0.50754953
   0.55403469  0.79884069  0.49516150
   0.38695372  0.90158933  0.50169100
   0.43995205  0.80302193  0.49521342
   0.60969241  0.89899985  0.50048430
   0.88822348  0.99955705  0.50447560
   0.72228605  0.09872261  0.50493692
   0.77736912  0.99907759  0.50398908
   0.94358579  0.10020862  0.50525806
   0.88804494  0.19980927  0.50489229
   0.71807737  0.29862169  0.50302715
   0.77621155  0.19938085  0.50468928
   0.94470312  0.29963151  0.50429176
   0.88827537  0.39932906  0.50244203
   0.72066770  0.49809736  0.49749796
   0.77694088  0.39822345  0.50122732
   0.94455869  0.49949434  0.50129439
   0.88745793  0.59894440  0.50023855
   0.71933587  0.69953041  0.49663549
   0.77633227  0.59869121  0.49777198
   0.94364459  0.69934130  0.50130877
   0.88803940  0.79932498  0.50239479
   0.72124214  0.89877943  0.50185361
   0.77641947  0.79917028  0.50097517
   0.94323729  0.89945165  0.50381120
   0.39434043  0.29752898  0.50589778
   0.60671912  0.29815072  0.50322914
   0.61192433  0.48848917  0.49209289
   0.60983824  0.69984766  0.49108865
   0.38375249  0.49883607  0.47800854
   0.38470127  0.70907421  0.48831262
   0.49705937  0.41306866  0.49232100
   0.49050517  0.60411982  0.44106051
 
 position of ions in cartesian coordinates  (Angst):
   2.84798457 -0.00197534 10.06873513
   0.72843084  1.24764032 10.06477142
   1.42865436 -0.00464280 10.05905216
   3.56879579  1.23501787 10.09685669
   2.88601976  2.48999759 10.08233495
   0.73556304  3.73470627 10.04111607
   1.45195500  2.48993786 10.06711508
   3.63917395  3.73164401 10.04344624
   2.89113700  4.97280427  9.95969687
   0.73537437  6.22803195  9.95644495
   1.46400185  4.98258306  9.99620305
   3.60613381  6.21869376  9.75763050
   2.87900265  7.48474559  9.80359344
   0.71013041  8.71718454  9.95530647
   1.45044810  7.47706535  9.90996094
   3.56892960  8.75985477  9.82267029
   2.82901833  9.98396267  9.95411114
   0.69681771 11.21413785 10.01857258
   1.40532036  9.96983236  9.98239042
   3.52920198 11.22587141 10.00343448
   7.10411185 12.42744305 10.03490996
   4.99386594  1.20832747 10.10462774
   5.68349389 12.44405406 10.04694208
   7.84947449  1.19661180 10.08248689
   7.14082449  2.42431367 10.08771312
   5.70695791  2.42605479 10.11092624
   7.09817704  9.93968686  9.86081070
   4.95612181 11.22541562  9.98368818
   5.63712636  9.99498101  9.85785705
   7.80852176 11.18697428  9.96739476
  11.37290507 12.43306961 10.05517042
   9.27196005  1.20510168 10.06974300
   9.95329335 12.43016610 10.04167305
  12.10589983  1.21749989 10.08374704
  11.39196942  2.46096822 10.07332485
   9.21263760  3.69779365 10.02913470
   9.95983286  2.45872492 10.06543387
  12.11484166  3.70409583 10.06209916
  11.38947751  4.94881425 10.02212091
   9.24021538  6.18506006  9.91675527
   9.96369790  4.93812501  9.99412697
  12.10751312  6.19623587  9.99999297
  11.37357643  7.43787774  9.97578948
   9.21774488  8.69678732  9.89706381
   9.95038624  7.43782616  9.92288558
  12.09047783  8.68816444  9.99778096
  11.37578513  9.93639362 10.01623625
   9.23710081 11.18112140  9.99848852
   9.94631454  9.93757162  9.98414391
  12.08004863 11.18333410 10.04508464
   5.06703515  3.69309856 10.07509483
   7.78660689  3.69500193 10.02931832
   7.84763694  6.06832867  9.80558565
   7.81523556  8.70383935  9.78292524
   4.92469600  6.20382614  9.51737061
   4.93174908  8.82515148  9.71981503
   6.37869957  5.13108359  9.80709299
   6.28713291  7.51408982  8.78464820
 


--------------------------------------------------------------------------------------------------------


 k-point  1 :   0.2500 0.2500 0.0000  plane waves:   80637
 k-point  2 :  -0.2500 0.2500-0.0000  plane waves:   80662

 maximum and minimum number of plane-waves per node :      2553     2483

 maximum number of plane-waves:     80662
 maximum index in each direction: 
   IXMAX=   23   IYMAX=   22   IZMAX=   36
   IXMIN=  -23   IYMIN=  -22   IZMIN=  -36


 parallel 3D FFT for wavefunctions:
    minimum data exchange during FFTs selected (reduces bandwidth)
 parallel 3D FFT for charge:
    minimum data exchange during FFTs selected (reduces bandwidth)


 FFT grid for exact exchange (Hartree Fock) 
  NGX = 72; NGY = 70; NGZ =112

 
 Radii for the augmentation spheres in the non-local exchange
 for species   1 augmentation radius   0.874 (default was   0.699)
       energy cutoff for augmentation   2000.0
 for species   2 augmentation radius   0.886 (default was   0.709)
       energy cutoff for augmentation   2000.0
 for species   3 augmentation radius   1.263 (default was   1.010)
       energy cutoff for augmentation   2000.0
 for species   4 augmentation radius   1.357 (default was   1.085)
       energy cutoff for augmentation   2000.0

 real space projection operators:
  total allocation   :       2587.27 KBytes
  max/ min on nodes  :        144.87         41.13

 Maximum index for augmentation-charges in exchange          149
  SETUP_FOCK is finished

 total amount of memory used by VASP MPI-rank0   166021. kBytes
=======================================================================

   base      :      30000. kBytes
   nonl-proj :       5326. kBytes
   fftplans  :      14253. kBytes
   grid      :      36827. kBytes
   one-center:         62. kBytes
   HF        :         23. kBytes
   nonlr-proj:       2046. kBytes
   wavefun   :      77484. kBytes
 
     INWAV:  cpu time    3.5620: real time    3.5629
 Broyden mixing: mesh for mixing (old mesh)
   NGX = 47   NGY = 45   NGZ = 73
  (NGX  =192   NGY  =192   NGZ  =300)
  gives a total of 154395 points

 charge density for first step will be calculated from the start-wavefunctions


--------------------------------------------------------------------------------------------------------


 Maximum index for augmentation-charges          846 (set IRDMAX)


--------------------------------------------------------------------------------------------------------


 initial charge from wavefunction
 First call to EWALD:  gamma=   0.121
 Maximum number of real-space cells 3x 3x 2
 Maximum number of reciprocal cells 2x 2x 4

    FEWALD:  cpu time    0.0037: real time    0.0037


--------------------------------------- Iteration      1(   1)  ---------------------------------------


    POTLOK:  cpu time    1.3978: real time    1.3984
    SETDIJ:  cpu time    2.1057: real time    2.1063
    TRIAL :  cpu time  530.7653: real time  530.9356
    CORREC:  cpu time    0.0015: real time    0.0018
    CHARGE:  cpu time    1.6803: real time    1.6805
    --------------------------------------------
      LOOP:  cpu time  535.9665: real time  536.1416

 eigenvalue-minimisations  :     0
 total energy-change (2. order) :-0.6041094E+03  (-0.4056736E+00)
 number of electron     244.9999996 magnetization       1.0002137
 augmentation part       12.5581312 magnetization       0.9851372

 DIPCOR: dipole corrections for dipol
 direction  3 min pos     1,
 dipolmoment           0.002100     -0.000494      0.843696 electrons x Angstroem
 Tr[quadrupol]     -6780.867193

 energy correction for charged system         0.000000 eV
 dipol+quadrupol energy correction            0.020356 eV
 added-field ion interaction          0.000000 eV  (added to PSCEN)


 Free energy of the ion-electron system (eV)
  ---------------------------------------------------
  alpha Z        PSCENC =       105.95135149
  Ewald energy   TEWEN  =     38496.55649075
  -Hartree energ DENC   =    -47304.90302124
  -exchange      EXHF   =       557.08420804
  -V(xc)+E(xc)   XCENC  =       640.79125373
  PAW double counting   =     26399.31975744   -26426.02039411
  entropy T*S    EENTRO =        -0.00005935
  eigenvalues    EBANDS =     -3307.20462116
  atomic energy  EATOM  =     10234.31575160
  ---------------------------------------------------
  free energy    TOTEN  =      -604.10943719 eV

  energy without entropy =     -604.10937785  energy(sigma->0) =     -604.10940752
  exchange ACFDT corr.  =        -0.00026362  see jH, gK, PRB 81, 115126


--------------------------------------------------------------------------------------------------------




--------------------------------------- Iteration      1(   2)  ---------------------------------------


    POTLOK:  cpu time    1.4096: real time    1.4100
    SETDIJ:  cpu time    2.0831: real time    2.0865
    TRIAL :  cpu time  531.5086: real time  531.6746
    CORREC:  cpu time    0.0015: real time    0.0015
    CHARGE:  cpu time    1.6784: real time    1.6790
    --------------------------------------------
      LOOP:  cpu time  536.6840: real time  536.8544

 eigenvalue-minimisations  :     0
 total energy-change (2. order) :-0.3191861E+00  (-0.3190432E+00)
 number of electron     244.9999996 magnetization       1.0000451
 augmentation part       12.5225360 magnetization       1.0155191

 DIPCOR: dipole corrections for dipol
 direction  3 min pos     1,
 dipolmoment           0.002173     -0.000511      0.873315 electrons x Angstroem
 Tr[quadrupol]     -6780.717788

 energy correction for charged system         0.000000 eV
 dipol+quadrupol energy correction            0.021811 eV
 added-field ion interaction          0.000000 eV  (added to PSCEN)


 Free energy of the ion-electron system (eV)
  ---------------------------------------------------
  alpha Z        PSCENC =       105.95280582
  Ewald energy   TEWEN  =     38496.55649075
  -Hartree energ DENC   =    -47287.75366193
  -exchange      EXHF   =       556.85905417
  -V(xc)+E(xc)   XCENC  =       640.29423095
  PAW double counting   =     26637.65324508   -26664.35842613
  entropy T*S    EENTRO =        -0.00001364
  eigenvalues    EBANDS =     -3323.94805427
  atomic energy  EATOM  =     10234.31575160
  ---------------------------------------------------
  free energy    TOTEN  =      -604.42862330 eV

  energy without entropy =     -604.42860966  energy(sigma->0) =     -604.42861648
  exchange ACFDT corr.  =        -0.00006916  see jH, gK, PRB 81, 115126


--------------------------------------------------------------------------------------------------------




--------------------------------------- Iteration      1(   3)  ---------------------------------------


    POTLOK:  cpu time    1.4127: real time    1.4132
    SETDIJ:  cpu time    2.0899: real time    2.0903
    TRIAL :  cpu time  528.9059: real time  529.1300
    CORREC:  cpu time    0.0014: real time    0.0017
    CHARGE:  cpu time    1.6767: real time    1.6773
    --------------------------------------------
      LOOP:  cpu time  534.0897: real time  534.3154

 eigenvalue-minimisations  :     0
 total energy-change (2. order) :-0.2406608E+00  (-0.1830423E+00)
 number of electron     244.9999996 magnetization       1.0000127
 augmentation part       12.5199887 magnetization       1.0449011

 DIPCOR: dipole corrections for dipol
 direction  3 min pos     1,
 dipolmoment           0.002215     -0.000521      0.889881 electrons x Angstroem
 Tr[quadrupol]     -6780.548383

 energy correction for charged system         0.000000 eV
 dipol+quadrupol energy correction            0.022646 eV
 added-field ion interaction          0.000000 eV  (added to PSCEN)


 Free energy of the ion-electron system (eV)
  ---------------------------------------------------
  alpha Z        PSCENC =       105.95364115
  Ewald energy   TEWEN  =     38496.55649075
  -Hartree energ DENC   =    -47270.39379250
  -exchange      EXHF   =       556.67973630
  -V(xc)+E(xc)   XCENC  =       639.82310460
  PAW double counting   =     26832.22674535   -26858.71829550
  entropy T*S    EENTRO =        -0.00000411
  eigenvalues    EBANDS =     -3341.11265225
  atomic energy  EATOM  =     10234.31575160
  ---------------------------------------------------
  free energy    TOTEN  =      -604.66928415 eV

  energy without entropy =     -604.66928004  energy(sigma->0) =     -604.66928210
  exchange ACFDT corr.  =        -0.00000730  see jH, gK, PRB 81, 115126


--------------------------------------------------------------------------------------------------------




--------------------------------------- Iteration      1(   4)  ---------------------------------------


    POTLOK:  cpu time    1.4107: real time    1.4117
    SETDIJ:  cpu time    2.0811: real time    2.0817
    TRIAL :  cpu time  529.3637: real time  529.5859
    CORREC:  cpu time    0.0013: real time    0.0015
    CHARGE:  cpu time    1.6802: real time    1.6805
    --------------------------------------------
      LOOP:  cpu time  534.5393: real time  534.7660

 eigenvalue-minimisations  :     0
 total energy-change (2. order) :-0.1378819E+00  (-0.9772820E-01)
 number of electron     244.9999996 magnetization       1.0000047
 augmentation part       12.5273941 magnetization       1.0708749

 DIPCOR: dipole corrections for dipol
 direction  3 min pos     1,
 dipolmoment           0.002218     -0.000521      0.891207 electrons x Angstroem
 Tr[quadrupol]     -6780.474189

 energy correction for charged system         0.000000 eV
 dipol+quadrupol energy correction            0.022713 eV
 added-field ion interaction          0.000000 eV  (added to PSCEN)


 Free energy of the ion-electron system (eV)
  ---------------------------------------------------
  alpha Z        PSCENC =       105.95370865
  Ewald energy   TEWEN  =     38496.55649075
  -Hartree energ DENC   =    -47262.86892317
  -exchange      EXHF   =       556.70776476
  -V(xc)+E(xc)   XCENC  =       639.63467486
  PAW double counting   =     26898.25285917   -26924.61617260
  entropy T*S    EENTRO =        -0.00000159
  eigenvalues    EBANDS =     -3348.74331600
  atomic energy  EATOM  =     10234.31575160
  ---------------------------------------------------
  free energy    TOTEN  =      -604.80716609 eV

  energy without entropy =     -604.80716450  energy(sigma->0) =     -604.80716530
  exchange ACFDT corr.  =        -0.00000145  see jH, gK, PRB 81, 115126


--------------------------------------------------------------------------------------------------------




--------------------------------------- Iteration      1(   5)  ---------------------------------------


    POTLOK:  cpu time    1.4094: real time    1.4100
    SETDIJ:  cpu time    2.1148: real time    2.1153
    TRIAL :  cpu time  530.6344: real time  530.7473
    CORREC:  cpu time    0.0013: real time    0.0016
    CHARGE:  cpu time    1.6710: real time    1.6711
    --------------------------------------------
      LOOP:  cpu time  535.8335: real time  535.9507

 eigenvalue-minimisations  :     0
 total energy-change (2. order) :-0.7647671E-01  (-0.6226984E-01)
 number of electron     244.9999995 magnetization       1.0000020
 augmentation part       12.5279556 magnetization       1.0935895

 DIPCOR: dipole corrections for dipol
 direction  3 min pos     1,
 dipolmoment           0.002221     -0.000522      0.892574 electrons x Angstroem
 Tr[quadrupol]     -6780.497339

 energy correction for charged system         0.000000 eV
 dipol+quadrupol energy correction            0.022783 eV
 added-field ion interaction          0.000000 eV  (added to PSCEN)


 Free energy of the ion-electron system (eV)
  ---------------------------------------------------
  alpha Z        PSCENC =       105.95377842
  Ewald energy   TEWEN  =     38496.55649075
  -Hartree energ DENC   =    -47263.27058569
  -exchange      EXHF   =       556.89352181
  -V(xc)+E(xc)   XCENC  =       639.65561132
  PAW double counting   =     26941.81098521   -26968.23554092
  entropy T*S    EENTRO =        -0.00000073
  eigenvalues    EBANDS =     -3348.56365372
  atomic energy  EATOM  =     10234.31575160
  ---------------------------------------------------
  free energy    TOTEN  =      -604.88364280 eV

  energy without entropy =     -604.88364207  energy(sigma->0) =     -604.88364244
  exchange ACFDT corr.  =        -0.00000048  see jH, gK, PRB 81, 115126


--------------------------------------------------------------------------------------------------------




--------------------------------------- Iteration      1(   6)  ---------------------------------------


    POTLOK:  cpu time    1.4091: real time    1.4103
    SETDIJ:  cpu time    2.0757: real time    2.0822
    TRIAL :  cpu time  529.2081: real time  529.2771
    CORREC:  cpu time    0.0013: real time    0.0015
    CHARGE:  cpu time    1.6774: real time    1.6775
    --------------------------------------------
      LOOP:  cpu time  534.3746: real time  534.4515

 eigenvalue-minimisations  :     0
 total energy-change (2. order) :-0.5168824E-01  (-0.4343590E-01)
 number of electron     244.9999995 magnetization       1.0000010
 augmentation part       12.5265162 magnetization       1.1139036

 DIPCOR: dipole corrections for dipol
 direction  3 min pos     1,
 dipolmoment           0.002236     -0.000526      0.898585 electrons x Angstroem
 Tr[quadrupol]     -6780.559517

 energy correction for charged system         0.000000 eV
 dipol+quadrupol energy correction            0.023091 eV
 added-field ion interaction          0.000000 eV  (added to PSCEN)


 Free energy of the ion-electron system (eV)
  ---------------------------------------------------
  alpha Z        PSCENC =       105.95408628
  Ewald energy   TEWEN  =     38496.55649075
  -Hartree energ DENC   =    -47266.35784601
  -exchange      EXHF   =       557.12108135
  -V(xc)+E(xc)   XCENC  =       639.74818372
  PAW double counting   =     26997.84057200   -27024.37209453
  entropy T*S    EENTRO =        -0.00000039
  eigenvalues    EBANDS =     -3345.74155547
  atomic energy  EATOM  =     10234.31575160
  ---------------------------------------------------
  free energy    TOTEN  =      -604.93533105 eV

  energy without entropy =     -604.93533066  energy(sigma->0) =     -604.93533085
  exchange ACFDT corr.  =        -0.00000020  see jH, gK, PRB 81, 115126


--------------------------------------------------------------------------------------------------------




--------------------------------------- Iteration      1(   7)  ---------------------------------------


    POTLOK:  cpu time    1.4085: real time    1.4086
    SETDIJ:  cpu time    2.1259: real time    2.1259
    TRIAL :  cpu time  530.0737: real time  530.1616
    CORREC:  cpu time    0.0012: real time    0.0014
    CHARGE:  cpu time    1.6726: real time    1.6728
    --------------------------------------------
      LOOP:  cpu time  535.2844: real time  535.3729

 eigenvalue-minimisations  :     0
 total energy-change (2. order) :-0.3685231E-01  (-0.3081869E-01)
 number of electron     244.9999995 magnetization       1.0000005
 augmentation part       12.5289713 magnetization       1.1327172

 DIPCOR: dipole corrections for dipol
 direction  3 min pos     1,
 dipolmoment           0.002253     -0.000530      0.905167 electrons x Angstroem
 Tr[quadrupol]     -6780.615696

 energy correction for charged system         0.000000 eV
 dipol+quadrupol energy correction            0.023431 eV
 added-field ion interaction          0.000000 eV  (added to PSCEN)


 Free energy of the ion-electron system (eV)
  ---------------------------------------------------
  alpha Z        PSCENC =       105.95442580
  Ewald energy   TEWEN  =     38496.55649075
  -Hartree energ DENC   =    -47269.37212145
  -exchange      EXHF   =       557.32087124
  -V(xc)+E(xc)   XCENC  =       639.84542097
  PAW double counting   =     27048.24491572   -27074.84648876
  entropy T*S    EENTRO =        -0.00000024
  eigenvalues    EBANDS =     -3342.99144884
  atomic energy  EATOM  =     10234.31575160
  ---------------------------------------------------
  free energy    TOTEN  =      -604.97218336 eV

  energy without entropy =     -604.97218312  energy(sigma->0) =     -604.97218324
  exchange ACFDT corr.  =        -0.00000010  see jH, gK, PRB 81, 115126


--------------------------------------------------------------------------------------------------------




--------------------------------------- Iteration      1(   8)  ---------------------------------------


    POTLOK:  cpu time    1.4087: real time    1.4087
    SETDIJ:  cpu time    2.0871: real time    2.0871
    TRIAL :  cpu time  531.2286: real time  531.3335
    CORREC:  cpu time    0.0012: real time    0.0014
    CHARGE:  cpu time    1.6699: real time    1.6699
    --------------------------------------------
      LOOP:  cpu time  536.3982: real time  536.5054

 eigenvalue-minimisations  :     0
 total energy-change (2. order) :-0.2720798E-01  (-0.2378564E-01)
 number of electron     244.9999995 magnetization       1.0000003
 augmentation part       12.5341538 magnetization       1.1506256

 DIPCOR: dipole corrections for dipol
 direction  3 min pos     1,
 dipolmoment           0.002262     -0.000532      0.908935 electrons x Angstroem
 Tr[quadrupol]     -6780.649533

 energy correction for charged system         0.000000 eV
 dipol+quadrupol energy correction            0.023626 eV
 added-field ion interaction          0.000000 eV  (added to PSCEN)


 Free energy of the ion-electron system (eV)
  ---------------------------------------------------
  alpha Z        PSCENC =       105.95462130
  Ewald energy   TEWEN  =     38496.55649075
  -Hartree energ DENC   =    -47271.51456198
  -exchange      EXHF   =       557.46886786
  -V(xc)+E(xc)   XCENC  =       639.92516712
  PAW double counting   =     27077.57603255   -27104.22252475
  entropy T*S    EENTRO =        -0.00000016
  eigenvalues    EBANDS =     -3341.05923555
  atomic energy  EATOM  =     10234.31575160
  ---------------------------------------------------
  free energy    TOTEN  =      -604.99939134 eV

  energy without entropy =     -604.99939118  energy(sigma->0) =     -604.99939126
  exchange ACFDT corr.  =        -0.00000006  see jH, gK, PRB 81, 115126


--------------------------------------------------------------------------------------------------------




--------------------------------------- Iteration      1(   9)  ---------------------------------------


    POTLOK:  cpu time    1.4050: real time    1.4050
    SETDIJ:  cpu time    2.1144: real time    2.1146
    TRIAL :  cpu time  530.5668: real time  530.6928
    CORREC:  cpu time    0.0012: real time    0.0014
    CHARGE:  cpu time    1.6730: real time    1.6760
    --------------------------------------------
      LOOP:  cpu time  535.7634: real time  535.8929

 eigenvalue-minimisations  :     0
 total energy-change (2. order) :-0.2171421E-01  (-0.1936059E-01)
 number of electron     244.9999995 magnetization       1.0000002
 augmentation part       12.5386329 magnetization       1.1678730

 DIPCOR: dipole corrections for dipol
 direction  3 min pos     1,
 dipolmoment           0.002264     -0.000532      0.909704 electrons x Angstroem
 Tr[quadrupol]     -6780.662979

 energy correction for charged system         0.000000 eV
 dipol+quadrupol energy correction            0.023666 eV
 added-field ion interaction          0.000000 eV  (added to PSCEN)


 Free energy of the ion-electron system (eV)
  ---------------------------------------------------
  alpha Z        PSCENC =       105.95466127
  Ewald energy   TEWEN  =     38496.55649075
  -Hartree energ DENC   =    -47272.69108654
  -exchange      EXHF   =       557.56647128
  -V(xc)+E(xc)   XCENC  =       639.98059219
  PAW double counting   =     27087.99921763   -27114.68472760
  entropy T*S    EENTRO =        -0.00000012
  eigenvalues    EBANDS =     -3340.01847597
  atomic energy  EATOM  =     10234.31575160
  ---------------------------------------------------
  free energy    TOTEN  =      -605.02110555 eV

  energy without entropy =     -605.02110542  energy(sigma->0) =     -605.02110549
  exchange ACFDT corr.  =        -0.00000004  see jH, gK, PRB 81, 115126


--------------------------------------------------------------------------------------------------------




--------------------------------------- Iteration      1(  10)  ---------------------------------------


    POTLOK:  cpu time    1.4028: real time    1.4028
    SETDIJ:  cpu time    2.0850: real time    2.0852
    TRIAL :  cpu time  531.4701: real time  531.5799
    CORREC:  cpu time    0.0011: real time    0.0013
    CHARGE:  cpu time    1.6752: real time    1.6753
    --------------------------------------------
      LOOP:  cpu time  536.6369: real time  536.7471

 eigenvalue-minimisations  :     0
 total energy-change (2. order) :-0.1803189E-01  (-0.1626171E-01)
 number of electron     244.9999995 magnetization       1.0000002
 augmentation part       12.5407792 magnetization       1.1845327

 DIPCOR: dipole corrections for dipol
 direction  3 min pos     1,
 dipolmoment           0.002262     -0.000532      0.908908 electrons x Angstroem
 Tr[quadrupol]     -6780.664519

 energy correction for charged system         0.000000 eV
 dipol+quadrupol energy correction            0.023625 eV
 added-field ion interaction          0.000000 eV  (added to PSCEN)


 Free energy of the ion-electron system (eV)
  ---------------------------------------------------
  alpha Z        PSCENC =       105.95461988
  Ewald energy   TEWEN  =     38496.55649075
  -Hartree energ DENC   =    -47273.11059605
  -exchange      EXHF   =       557.62798492
  -V(xc)+E(xc)   XCENC  =       640.01441650
  PAW double counting   =     27089.21999247   -27115.93812383
  entropy T*S    EENTRO =        -0.00000010
  eigenvalues    EBANDS =     -3339.67967357
  atomic energy  EATOM  =     10234.31575160
  ---------------------------------------------------
  free energy    TOTEN  =      -605.03913744 eV

  energy without entropy =     -605.03913734  energy(sigma->0) =     -605.03913739
  exchange ACFDT corr.  =        -0.00000003  see jH, gK, PRB 81, 115126


--------------------------------------------------------------------------------------------------------




--------------------------------------- Iteration      1(  11)  ---------------------------------------


    POTLOK:  cpu time    1.3990: real time    1.3991
    SETDIJ:  cpu time    2.0908: real time    2.0907
    TRIAL :  cpu time  530.1730: real time  530.2774
    CORREC:  cpu time    0.0011: real time    0.0014
    CHARGE:  cpu time    1.6707: real time    1.6708
    --------------------------------------------
      LOOP:  cpu time  535.3376: real time  535.4425

 eigenvalue-minimisations  :     0
 total energy-change (2. order) :-0.1535065E-01  (-0.1402713E-01)
 number of electron     244.9999995 magnetization       1.0000001
 augmentation part       12.5414097 magnetization       1.2006305

 DIPCOR: dipole corrections for dipol
 direction  3 min pos     1,
 dipolmoment           0.002260     -0.000531      0.907983 electrons x Angstroem
 Tr[quadrupol]     -6780.661964

 energy correction for charged system         0.000000 eV
 dipol+quadrupol energy correction            0.023577 eV
 added-field ion interaction          0.000000 eV  (added to PSCEN)


 Free energy of the ion-electron system (eV)
  ---------------------------------------------------
  alpha Z        PSCENC =       105.95457182
  Ewald energy   TEWEN  =     38496.55649075
  -Hartree energ DENC   =    -47273.10370341
  -exchange      EXHF   =       557.66967549
  -V(xc)+E(xc)   XCENC  =       640.03439975
  PAW double counting   =     27088.77186544   -27115.51263354
  entropy T*S    EENTRO =        -0.00000008
  eigenvalues    EBANDS =     -3339.74090589
  atomic energy  EATOM  =     10234.31575160
  ---------------------------------------------------
  free energy    TOTEN  =      -605.05448808 eV

  energy without entropy =     -605.05448800  energy(sigma->0) =     -605.05448804
  exchange ACFDT corr.  =        -0.00000002  see jH, gK, PRB 81, 115126


--------------------------------------------------------------------------------------------------------




--------------------------------------- Iteration      1(  12)  ---------------------------------------


    POTLOK:  cpu time    1.4006: real time    1.4007
    SETDIJ:  cpu time    2.0815: real time    2.0815
    TRIAL :  cpu time  531.2515: real time  531.3645
    CORREC:  cpu time    0.0012: real time    0.0014
    CHARGE:  cpu time    1.6706: real time    1.6725
    --------------------------------------------
      LOOP:  cpu time  536.4080: real time  536.5231

 eigenvalue-minimisations  :     0
 total energy-change (2. order) :-0.1334163E-01  (-0.1231137E-01)
 number of electron     244.9999995 magnetization       1.0000001
 augmentation part       12.5419875 magnetization       1.2161332

 DIPCOR: dipole corrections for dipol
 direction  3 min pos     1,
 dipolmoment           0.002259     -0.000531      0.907607 electrons x Angstroem
 Tr[quadrupol]     -6780.659680

 energy correction for charged system         0.000000 eV
 dipol+quadrupol energy correction            0.023557 eV
 added-field ion interaction          0.000000 eV  (added to PSCEN)


 Free energy of the ion-electron system (eV)
  ---------------------------------------------------
  alpha Z        PSCENC =       105.95455232
  Ewald energy   TEWEN  =     38496.55649075
  -Hartree energ DENC   =    -47272.97733917
  -exchange      EXHF   =       557.70344883
  -V(xc)+E(xc)   XCENC  =       640.04879843
  PAW double counting   =     27089.37375638   -27116.13036242
  entropy T*S    EENTRO =        -0.00000008
  eigenvalues    EBANDS =     -3339.91292635
  atomic energy  EATOM  =     10234.31575160
  ---------------------------------------------------
  free energy    TOTEN  =      -605.06782971 eV

  energy without entropy =     -605.06782963  energy(sigma->0) =     -605.06782967
  exchange ACFDT corr.  =        -0.00000002  see jH, gK, PRB 81, 115126


--------------------------------------------------------------------------------------------------------




--------------------------------------- Iteration      1(  13)  ---------------------------------------


    POTLOK:  cpu time    1.4001: real time    1.4001
    SETDIJ:  cpu time    2.0839: real time    2.0839
    TRIAL :  cpu time  530.4542: real time  530.5701
    CORREC:  cpu time    0.0012: real time    0.0015
    CHARGE:  cpu time    1.6785: real time    1.6785
    --------------------------------------------
      LOOP:  cpu time  535.6208: real time  535.7371

 eigenvalue-minimisations  :     0
 total energy-change (2. order) :-0.1177222E-01  (-0.1094075E-01)
 number of electron     244.9999995 magnetization       1.0000001
 augmentation part       12.5429897 magnetization       1.2309719

 DIPCOR: dipole corrections for dipol
 direction  3 min pos     1,
 dipolmoment           0.002259     -0.000531      0.907687 electrons x Angstroem
 Tr[quadrupol]     -6780.658706

 energy correction for charged system         0.000000 eV
 dipol+quadrupol energy correction            0.023561 eV
 added-field ion interaction          0.000000 eV  (added to PSCEN)


 Free energy of the ion-electron system (eV)
  ---------------------------------------------------
  alpha Z        PSCENC =       105.95455644
  Ewald energy   TEWEN  =     38496.55649075
  -Hartree energ DENC   =    -47272.90161191
  -exchange      EXHF   =       557.73501077
  -V(xc)+E(xc)   XCENC  =       640.06279950
  PAW double counting   =     27090.76847709   -27117.54052129
  entropy T*S    EENTRO =        -0.00000007
  eigenvalues    EBANDS =     -3340.03055481
  atomic energy  EATOM  =     10234.31575160
  ---------------------------------------------------
  free energy    TOTEN  =      -605.07960193 eV

  energy without entropy =     -605.07960185  energy(sigma->0) =     -605.07960189
  exchange ACFDT corr.  =        -0.00000002  see jH, gK, PRB 81, 115126


--------------------------------------------------------------------------------------------------------




--------------------------------------- Iteration      1(  14)  ---------------------------------------


    POTLOK:  cpu time    1.3974: real time    1.3976
    SETDIJ:  cpu time    2.0773: real time    2.0775
    TRIAL :  cpu time  531.0951: real time  531.1931
    CORREC:  cpu time    0.0012: real time    0.0014
    CHARGE:  cpu time    1.6710: real time    1.6710
    --------------------------------------------
      LOOP:  cpu time  536.2449: real time  536.3434

 eigenvalue-minimisations  :     0
 total energy-change (2. order) :-0.1051117E-01  (-0.9802605E-02)
 number of electron     244.9999995 magnetization       1.0000001
 augmentation part       12.5441021 magnetization       1.2451018

 DIPCOR: dipole corrections for dipol
 direction  3 min pos     1,
 dipolmoment           0.002259     -0.000531      0.907819 electrons x Angstroem
 Tr[quadrupol]     -6780.658568

 energy correction for charged system         0.000000 eV
 dipol+quadrupol energy correction            0.023568 eV
 added-field ion interaction          0.000000 eV  (added to PSCEN)


 Free energy of the ion-electron system (eV)
  ---------------------------------------------------
  alpha Z        PSCENC =       105.95456333
  Ewald energy   TEWEN  =     38496.55649075
  -Hartree energ DENC   =    -47272.90206894
  -exchange      EXHF   =       557.76556067
  -V(xc)+E(xc)   XCENC  =       640.07768051
  PAW double counting   =     27092.15530171   -27118.94472667
  entropy T*S    EENTRO =        -0.00000007
  eigenvalues    EBANDS =     -3340.06866598
  atomic energy  EATOM  =     10234.31575160
  ---------------------------------------------------
  free energy    TOTEN  =      -605.09011310 eV

  energy without entropy =     -605.09011303  energy(sigma->0) =     -605.09011306
  exchange ACFDT corr.  =        -0.00000002  see jH, gK, PRB 81, 115126


--------------------------------------------------------------------------------------------------------




--------------------------------------- Iteration      1(  15)  ---------------------------------------


    POTLOK:  cpu time    1.3953: real time    1.3954
    SETDIJ:  cpu time    2.1078: real time    2.1078
    TRIAL :  cpu time  530.4003: real time  530.4951
    CORREC:  cpu time    0.0010: real time    0.0013
    CHARGE:  cpu time    1.6705: real time    1.6706
    --------------------------------------------
      LOOP:  cpu time  535.5777: real time  535.6730

 eigenvalue-minimisations  :     0
 total energy-change (2. order) :-0.9456644E-02  (-0.8826132E-02)
 number of electron     244.9999995 magnetization       1.0000001
 augmentation part       12.5449894 magnetization       1.2585098

 DIPCOR: dipole corrections for dipol
 direction  3 min pos     1,
 dipolmoment           0.002259     -0.000531      0.907787 electrons x Angstroem
 Tr[quadrupol]     -6780.658645

 energy correction for charged system         0.000000 eV
 dipol+quadrupol energy correction            0.023566 eV
 added-field ion interaction          0.000000 eV  (added to PSCEN)


 Free energy of the ion-electron system (eV)
  ---------------------------------------------------
  alpha Z        PSCENC =       105.95456163
  Ewald energy   TEWEN  =     38496.55649075
  -Hartree energ DENC   =    -47272.93313920
  -exchange      EXHF   =       557.79459159
  -V(xc)+E(xc)   XCENC  =       640.09255095
  PAW double counting   =     27093.57933849   -27120.38638468
  entropy T*S    EENTRO =        -0.00000007
  eigenvalues    EBANDS =     -3340.07333079
  atomic energy  EATOM  =     10234.31575160
  ---------------------------------------------------
  free energy    TOTEN  =      -605.09956974 eV

  energy without entropy =     -605.09956968  energy(sigma->0) =     -605.09956971
  exchange ACFDT corr.  =        -0.00000002  see jH, gK, PRB 81, 115126


--------------------------------------------------------------------------------------------------------




--------------------------------------- Iteration      1(  16)  ---------------------------------------


    POTLOK:  cpu time    1.3955: real time    1.3957
    SETDIJ:  cpu time    2.1092: real time    2.1093
    TRIAL :  cpu time  529.4955: real time  529.5353
    CORREC:  cpu time    0.0012: real time    0.0014
    CHARGE:  cpu time    1.6691: real time    1.6691
    --------------------------------------------
      LOOP:  cpu time  534.6736: real time  534.7137

 eigenvalue-minimisations  :     0
 total energy-change (2. order) :-0.8539238E-02  (-0.7969551E-02)
 number of electron     244.9999995 magnetization       1.0000001
 augmentation part       12.5456050 magnetization       1.2712245

 DIPCOR: dipole corrections for dipol
 direction  3 min pos     1,
 dipolmoment           0.002259     -0.000531      0.907628 electrons x Angstroem
 Tr[quadrupol]     -6780.658741

 energy correction for charged system         0.000000 eV
 dipol+quadrupol energy correction            0.023558 eV
 added-field ion interaction          0.000000 eV  (added to PSCEN)


 Free energy of the ion-electron system (eV)
  ---------------------------------------------------
  alpha Z        PSCENC =       105.95455340
  Ewald energy   TEWEN  =     38496.55649075
  -Hartree energ DENC   =    -47272.96040647
  -exchange      EXHF   =       557.82170117
  -V(xc)+E(xc)   XCENC  =       640.10656309
  PAW double counting   =     27095.26025945   -27122.08309776
  entropy T*S    EENTRO =        -0.00000006
  eigenvalues    EBANDS =     -3340.07992415
  atomic energy  EATOM  =     10234.31575160
  ---------------------------------------------------
  free energy    TOTEN  =      -605.10810898 eV

  energy without entropy =     -605.10810891  energy(sigma->0) =     -605.10810895
  exchange ACFDT corr.  =        -0.00000002  see jH, gK, PRB 81, 115126


--------------------------------------------------------------------------------------------------------




--------------------------------------- Iteration      1(  17)  ---------------------------------------


    POTLOK:  cpu time    1.3922: real time    1.3923
    SETDIJ:  cpu time    2.0777: real time    2.0776
    TRIAL :  cpu time  529.4030: real time  529.4339
    CORREC:  cpu time    0.0012: real time    0.0015
    CHARGE:  cpu time    1.6752: real time    1.6752
    --------------------------------------------
      LOOP:  cpu time  534.5521: real time  534.5856

 eigenvalue-minimisations  :     0
 total energy-change (2. order) :-0.7722898E-02  (-0.7204765E-02)
 number of electron     244.9999995 magnetization       1.0000001
 augmentation part       12.5460800 magnetization       1.2832894

 DIPCOR: dipole corrections for dipol
 direction  3 min pos     1,
 dipolmoment           0.002258     -0.000531      0.907441 electrons x Angstroem
 Tr[quadrupol]     -6780.658807

 energy correction for charged system         0.000000 eV
 dipol+quadrupol energy correction            0.023548 eV
 added-field ion interaction          0.000000 eV  (added to PSCEN)


 Free energy of the ion-electron system (eV)
  ---------------------------------------------------
  alpha Z        PSCENC =       105.95454369
  Ewald energy   TEWEN  =     38496.55649075
  -Hartree energ DENC   =    -47272.97527490
  -exchange      EXHF   =       557.84691232
  -V(xc)+E(xc)   XCENC  =       640.11956422
  PAW double counting   =     27097.07853673   -27123.91490288
  entropy T*S    EENTRO =        -0.00000006
  eigenvalues    EBANDS =     -3340.09745335
  atomic energy  EATOM  =     10234.31575160
  ---------------------------------------------------
  free energy    TOTEN  =      -605.11583188 eV

  energy without entropy =     -605.11583181  energy(sigma->0) =     -605.11583184
  exchange ACFDT corr.  =        -0.00000002  see jH, gK, PRB 81, 115126


--------------------------------------------------------------------------------------------------------




--------------------------------------- Iteration      1(  18)  ---------------------------------------


    POTLOK:  cpu time    1.3929: real time    1.3931
    SETDIJ:  cpu time    2.1090: real time    2.1090
    TRIAL :  cpu time  529.7117: real time  529.7596
    CORREC:  cpu time    0.0011: real time    0.0014
    CHARGE:  cpu time    1.6717: real time    1.6717
    --------------------------------------------
      LOOP:  cpu time  534.8893: real time  534.9378

 eigenvalue-minimisations  :     0
 total energy-change (2. order) :-0.6987110E-02  (-0.6512484E-02)
 number of electron     244.9999995 magnetization       1.0000001
 augmentation part       12.5465072 magnetization       1.2947351

 DIPCOR: dipole corrections for dipol
 direction  3 min pos     1,
 dipolmoment           0.002258     -0.000531      0.907280 electrons x Angstroem
 Tr[quadrupol]     -6780.658812

 energy correction for charged system         0.000000 eV
 dipol+quadrupol energy correction            0.023540 eV
 added-field ion interaction          0.000000 eV  (added to PSCEN)


 Free energy of the ion-electron system (eV)
  ---------------------------------------------------
  alpha Z        PSCENC =       105.95453531
  Ewald energy   TEWEN  =     38496.55649075
  -Hartree energ DENC   =    -47272.98277294
  -exchange      EXHF   =       557.87046010
  -V(xc)+E(xc)   XCENC  =       640.13178472
  PAW double counting   =     27098.81451078   -27125.66289733
  entropy T*S    EENTRO =        -0.00000006
  eigenvalues    EBANDS =     -3340.12068192
  atomic energy  EATOM  =     10234.31575160
  ---------------------------------------------------
[...]
  augment    39.76553    42.17625    43.03107    -0.20468    -1.38158    -0.14161
  Kinetic  3585.75136  3628.27381  4056.87485    -3.92578    -4.73732     3.27487
  Fock     -334.72146  -335.74144  -312.18922     0.00103     0.14483     0.45268
  -------------------------------------------------------------------------------------
  Total     -44.51691   -40.25884    -1.03332    -0.28685    -0.38837     0.41915
  in kB     -22.45100   -20.30355    -0.52113    -0.14467    -0.19586     0.21139
  external pressure =      -14.43 kB  Pullay stress =        0.00 kB


 VOLUME and BASIS-vectors are now :
 -----------------------------------------------------------------------------
  energy-cutoff  :      500.00
  volume of cell :     3176.87
      direct lattice vectors                 reciprocal lattice vectors
    12.805995565 -0.027687240  0.034492055     0.078089307  0.000166839 -0.000194240
    -0.026670987 12.469057961 -0.012341862     0.000173269  0.080198937  0.000046495
     0.049513358 -0.011641325 19.895650281    -0.000135272  0.000049461  0.050262608

  length of vectors
    12.806071947 12.469092593 19.895715298     0.078089727  0.080199138  0.050262814


 FORCES acting on ions:
    Electron-Ion                     Ewald-Force                    Non-Local-Force
 -----------------------------------------------------------------------------------------------
   0.397E+01 -.553E+01 -.222E+02   -.419E+01 0.611E+01 0.223E+02   0.126E+00 -.617E+00 -.851E-01
   0.117E+01 -.306E+01 -.167E+02   -.126E+01 0.334E+01 0.168E+02   0.451E-01 -.227E+00 -.319E-01
   0.898E+01 -.303E+01 -.169E+02   -.902E+01 0.316E+01 0.169E+02   0.130E+00 -.155E+00 0.274E-02
   0.729E+01 -.281E+01 -.271E+02   -.714E+01 0.340E+01 0.271E+02   -.834E-01 -.492E+00 0.413E-02
   0.469E+01 -.556E+01 -.254E+02   -.414E+01 0.630E+01 0.255E+02   -.498E+00 -.768E+00 -.396E-01
   0.667E+00 -.137E+01 -.185E+02   -.755E+00 0.134E+01 0.186E+02   -.217E-01 -.182E-01 -.909E-01
   0.389E+01 -.122E+01 -.189E+02   -.360E+01 0.133E+01 0.189E+02   -.300E+00 -.113E+00 0.311E-01
   0.826E+01 0.171E+01 -.281E+02   -.623E+01 -.168E+01 0.279E+02   -.172E+01 -.183E+00 0.172E+00
   0.976E+01 0.110E+02 -.208E+02   -.910E+01 -.116E+02 0.211E+02   -.780E+00 0.636E+00 -.269E+00
   0.518E+01 0.320E+01 -.782E+01   -.519E+01 -.329E+01 0.776E+01   0.365E-02 0.154E+00 0.470E-01
   0.939E+01 0.338E+01 -.170E+02   -.891E+01 -.331E+01 0.171E+02   -.319E+00 -.325E-01 -.155E+00
   0.594E+02 0.924E+01 0.880E+01   -.620E+02 -.997E+01 -.810E+01   0.268E+01 0.611E+00 -.709E+00
   0.202E+02 0.414E+01 0.141E+02   -.202E+02 -.517E+01 -.144E+02   0.151E-01 0.964E+00 0.266E+00
   0.472E+01 0.402E+01 -.881E+01   -.494E+01 -.420E+01 0.884E+01   0.132E+00 0.199E+00 -.404E-01
   0.122E+02 0.170E+01 -.298E+01   -.122E+02 -.199E+01 0.310E+01   -.166E-01 0.223E+00 -.119E+00
   0.526E+02 0.510E+01 -.201E+01   -.567E+02 -.575E+01 0.256E+01   0.413E+01 0.639E+00 -.545E+00
   0.178E+02 -.495E+01 -.171E+02   -.184E+02 0.520E+01 0.173E+02   0.593E+00 -.208E+00 -.196E+00
   0.237E+01 -.273E+01 -.144E+02   -.252E+01 0.278E+01 0.144E+02   0.131E+00 -.764E-01 -.389E-01
   0.113E+02 -.888E+00 -.137E+02   -.118E+02 0.804E+00 0.137E+02   0.499E+00 0.931E-01 -.545E-01
   0.112E+02 -.123E+02 -.192E+02   -.115E+02 0.127E+02 0.192E+02   0.252E+00 -.413E+00 0.925E-02
   -.734E+01 -.401E+01 -.196E+02   0.757E+01 0.433E+01 0.196E+02   -.231E+00 -.301E+00 -.207E-01
   0.398E+01 0.913E+00 -.313E+02   -.378E+01 -.116E+00 0.314E+02   -.229E+00 -.780E+00 -.922E-01
   -.137E+01 -.733E+01 -.242E+02   0.173E+01 0.808E+01 0.242E+02   -.304E+00 -.677E+00 -.404E-01
   -.513E+01 0.109E+01 -.244E+02   0.500E+01 -.437E+00 0.245E+02   0.173E+00 -.629E+00 -.150E+00
   -.729E+01 0.267E+00 -.308E+02   0.752E+01 0.126E+01 0.308E+02   -.361E-01 -.131E+01 -.628E-01
   0.632E+00 0.191E+01 -.397E+02   -.107E+01 -.249E-01 0.399E+02   0.181E+00 -.166E+01 -.247E+00
   -.159E+02 -.137E+02 -.112E+02   0.178E+02 0.130E+02 0.121E+02   -.164E+01 0.721E+00 -.873E+00
   0.287E+01 -.195E+02 -.216E+02   -.264E+01 0.203E+02 0.217E+02   -.142E+00 -.800E+00 -.185E+00
   -.265E+02 -.423E+02 -.171E+02   0.286E+02 0.460E+02 0.182E+02   -.217E+01 -.345E+01 -.103E+01
   -.800E+01 -.467E+01 -.108E+02   0.787E+01 0.471E+01 0.108E+02   0.914E-01 -.271E-01 -.445E-01
   -.508E+01 -.200E+01 -.125E+02   0.495E+01 0.210E+01 0.125E+02   0.361E-01 -.103E+00 -.114E-01
   -.756E+01 -.131E+01 -.162E+02   0.747E+01 0.170E+01 0.161E+02   0.347E-01 -.296E+00 0.423E-01
   -.560E+00 0.962E-01 -.130E+02   0.611E+00 0.817E-01 0.131E+02   0.514E-01 -.205E+00 -.376E-01
   0.200E+01 -.110E+01 -.139E+02   -.206E+01 0.130E+01 0.139E+02   0.879E-01 -.149E+00 -.267E-01
   -.136E+01 -.271E+01 -.139E+02   0.109E+01 0.277E+01 0.139E+02   0.295E+00 -.684E-01 -.120E-01
   -.566E+01 -.350E+01 -.151E+02   0.382E+01 0.333E+01 0.151E+02   0.165E+01 0.671E-01 0.615E-01
   -.276E+01 -.579E+01 -.160E+02   0.234E+01 0.630E+01 0.161E+02   0.381E+00 -.532E+00 -.594E-01
   0.275E+01 -.884E+00 -.144E+02   -.263E+01 0.775E+00 0.144E+02   -.256E-01 0.368E-01 -.201E-01
   -.267E+01 0.106E+01 -.115E+02   0.245E+01 -.111E+01 0.115E+02   0.549E-01 0.723E-01 -.512E-01
   -.736E+01 -.543E+01 -.115E+02   0.738E+01 0.566E+01 0.117E+02   -.225E+00 -.290E+00 -.267E+00
   -.799E+00 0.312E+01 -.120E+02   0.534E+00 -.402E+01 0.122E+02   0.429E+00 0.852E+00 -.211E+00
   0.196E+01 0.102E+01 -.910E+01   -.185E+01 -.108E+01 0.913E+01   -.905E-01 0.574E-01 -.340E-01
   -.288E+01 0.180E+01 -.744E+01   0.263E+01 -.193E+01 0.748E+01   0.168E+00 0.950E-01 -.365E-01
   -.131E+02 0.958E+01 -.693E+01   0.120E+02 -.952E+01 0.699E+01   0.973E+00 0.380E-01 -.677E-01
   0.272E+01 -.390E-01 -.400E+01   -.304E+01 0.722E+00 0.389E+01   0.390E+00 -.598E+00 0.108E+00
   0.480E+01 0.216E+01 -.990E+01   -.483E+01 -.221E+01 0.992E+01   0.971E-01 0.716E-01 -.332E-01
   -.177E+01 0.204E+01 -.134E+02   0.168E+01 -.202E+01 0.134E+02   0.757E-01 0.635E-02 -.878E-01
   -.813E+01 -.342E+01 -.115E+02   0.817E+01 0.333E+01 0.114E+02   -.275E-01 0.673E-01 0.418E-01
   -.505E+01 0.224E+01 -.145E+02   0.484E+01 -.264E+01 0.147E+02   0.204E+00 0.400E+00 -.202E+00
   0.385E+01 -.154E+01 -.129E+02   -.399E+01 0.153E+01 0.129E+02   0.148E+00 -.239E-01 -.213E-01
   -.157E-01 -.188E+02 -.505E+02   0.425E+01 0.254E+02 0.508E+02   -.442E+01 -.674E+01 -.343E+00
   -.558E+00 -.288E+02 -.259E+02   -.289E+01 0.339E+02 0.261E+02   0.372E+01 -.532E+01 -.248E+00
   -.350E+02 -.196E+02 -.127E+02   0.280E+02 0.195E+02 0.122E+02   0.753E+01 0.324E+00 0.463E+00
   -.154E+02 0.356E+02 -.152E+02   0.118E+02 -.440E+02 0.145E+02   0.360E+01 0.835E+01 0.624E+00
   0.370E+02 0.340E+02 0.855E+02   -.220E+02 -.315E+02 -.893E+02   -.142E+02 -.182E+01 0.328E+01
   0.890E+01 0.184E+02 -.380E+01   0.161E+01 -.376E+02 0.253E+01   -.986E+01 0.181E+02 0.113E+01
   -.302E+02 0.905E+02 -.171E+02   0.275E+02 -.975E+02 0.201E+02   0.157E+01 0.533E+01 -.233E+01
   -.102E+03 -.317E+02 0.800E+03   0.101E+03 0.302E+02 -.787E+03   0.443E+00 0.142E+01 -.115E+02
 -----------------------------------------------------------------------------------------------
   0.690E+01 -.121E+02 0.157E+02   0.114E-12 0.000E+00 0.114E-12   -.619E+01 0.104E+02 -.144E+02
 
 
 POSITION                                       TOTAL-FORCE (eV/Angst)
 -----------------------------------------------------------------------------------
      2.84798     -0.00198     10.06874        -0.088132     -0.069800     -0.019101
      0.72843      1.24764     10.06477        -0.040086      0.037255     -0.004676
      1.42865     -0.00464     10.05905         0.109565     -0.024311     -0.001648
      3.56880      1.23502     10.09686         0.059746      0.078263     -0.021302
      2.88602      2.49000     10.08233         0.025914     -0.062822     -0.012938
      0.73556      3.73471     10.04112        -0.114462     -0.047531     -0.016085
      1.45195      2.48994     10.06712        -0.020691     -0.008209     -0.007845
      3.63917      3.73164     10.04345         0.225244     -0.160993     -0.025367
      2.89114      4.97280      9.95970        -0.166750      0.153291     -0.024426
      0.73537      6.22803      9.95644        -0.013067      0.070765     -0.009350
      1.46400      4.98258      9.99620         0.150585      0.037757     -0.022006
      3.60613      6.21869      9.75763         0.286863     -0.082616     -0.046127
      2.87900      7.48475      9.80359        -0.055328     -0.018049      0.043990
      0.71013      8.71718      9.95531        -0.086822      0.030434     -0.011514
      1.45045      7.47707      9.90996        -0.017073     -0.054411     -0.008890
      3.56893      8.75985      9.82267         0.277450      0.028275     -0.026933
      2.82902      9.98396      9.95411         0.003083      0.036629     -0.022088
      0.69682     11.21414     10.01857        -0.020871     -0.036301      0.001224
      1.40532      9.96983      9.98239         0.006700      0.014299     -0.005334
      3.52920     11.22587     10.00343        -0.036619     -0.024323     -0.016916
      7.10411     12.42744     10.03491        -0.016029      0.009468      0.002647
      4.99387      1.20833     10.10463        -0.042927     -0.014754     -0.002456
      5.68349     12.44405     10.04694         0.043392      0.031357     -0.001097
      7.84947      1.19661     10.08249         0.053331     -0.006902     -0.011427
      7.14082      2.42431     10.08771         0.188749      0.159462     -0.040912
      5.70696      2.42605     10.11093        -0.243092      0.143269     -0.072929
      7.09818      9.93969      9.86081         0.151577      0.122845      0.005846
      4.95612     11.22542      9.98369         0.080846     -0.088958     -0.024629
      5.63713      9.99498      9.85786        -0.223047     -0.040046     -0.003252
      7.80852     11.18697      9.96739        -0.034438      0.010184      0.012523
     11.37291     12.43307     10.05517        -0.107563     -0.009292      0.008014
      9.27196      1.20510     10.06974        -0.060885      0.082365     -0.003491
      9.95329     12.43017     10.04167         0.111686     -0.035116      0.002323
     12.10590      1.21750     10.08375         0.033092      0.046682      0.003558
     11.39197      2.46097     10.07332         0.032524     -0.009724     -0.000427
      9.21264      3.69779     10.02913        -0.118794     -0.093043      0.004548
      9.95983      2.45872     10.06543        -0.017047     -0.057153     -0.000049
     12.11484      3.70410     10.06210         0.100686     -0.070432     -0.003677
     11.38948      4.94881     10.02212        -0.164597      0.022332     -0.004227
      9.24022      6.18506      9.91676        -0.231899     -0.074006     -0.044665
      9.96370      4.93813      9.99413         0.186796      0.000461     -0.001555
     12.10751      6.19624      9.99999         0.007741      0.004396     -0.007600
     11.37358      7.43788      9.97579        -0.081061     -0.023875     -0.004119
      9.21774      8.69679      9.89706        -0.042404      0.106065     -0.012294
      9.95039      7.43783      9.92289         0.101821      0.052611      0.004529
     12.09048      8.68816      9.99778         0.081215      0.022924     -0.008883
     11.37579      9.93639     10.01624        -0.011776      0.033199     -0.006752
      9.23710     11.18112      9.99849         0.001644     -0.019551     -0.000047
      9.94631      9.93757      9.98414         0.004965      0.026265     -0.004020
     12.08005     11.18333     10.04508         0.021263     -0.038722     -0.000519
      5.06704      3.69310     10.07509        -0.408944     -0.531782     -0.076145
      7.78661      3.69500     10.02932         0.458311     -0.561808     -0.056954
      7.84764      6.06833      9.80559         0.974743      0.225864     -0.090765
      7.81524      8.70384      9.78293         0.115217      0.296659     -0.054101
      4.92470      6.20383      9.51737        -0.433609      0.454314     -0.218203
      4.93175      8.82515      9.71982        -0.208490      0.450778     -0.032151
      6.37870      5.13108      9.80709        -0.347216     -0.584404      0.394227
      6.28713      7.51409      8.78465        -0.441032      0.060462      0.606469
 -----------------------------------------------------------------------------------
    total drift:                               -0.017639     -0.004358     -0.004639


--------------------------------------------------------------------------------------------------------



  FREE ENERGIE OF THE ION-ELECTRON SYSTEM (eV)
  ---------------------------------------------------
  free  energy   TOTEN  =      -605.19164089 eV

  energy  without entropy=     -605.19164087  energy(sigma->0) =     -605.19164088
 


--------------------------------------------------------------------------------------------------------


    POTLOK:  cpu time    3.4618: real time    3.4620


--------------------------------------------------------------------------------------------------------


 stress matrix after NEB project (eV)
    -44.51691     -0.28686      0.41915
     -0.28685    -40.25884     -0.39525
      0.41934     -0.38837     -1.03332
  FORCES: max atom, RMS     1.004678    0.290545
  FORCE total and by dimension    2.212721    0.974743
  Stress total and by dimension   60.036831   44.516914
 writing wavefunctions
     LOOP+:  cpu time39728.7973: real time39734.0641
    4ORBIT:  cpu time    0.0000: real time    0.0000
 


 total charge     
 
# of ion       s       p       d       tot
------------------------------------------
    1        0.866   1.775   0.000   2.641
    2        0.863   1.760   0.000   2.623
    3        0.866   1.763   0.000   2.629
    4        0.866   1.768   0.000   2.634
    5        0.863   1.747   0.000   2.610
    6        0.862   1.756   0.000   2.617
    7        0.864   1.749   0.000   2.613
    8        0.859   1.728   0.000   2.587
    9        0.862   1.747   0.000   2.609
   10        0.858   1.755   0.000   2.613
   11        0.863   1.739   0.000   2.602
   12        0.860   1.711   0.000   2.572
   13        0.855   1.752   0.000   2.607
   14        0.862   1.759   0.000   2.621
   15        0.861   1.740   0.000   2.601
   16        0.859   1.716   0.000   2.575
   17        0.866   1.776   0.000   2.642
   18        0.865   1.766   0.000   2.631
   19        0.865   1.765   0.000   2.630
   20        0.869   1.761   0.000   2.630
   21        0.866   1.774   0.000   2.641
   22        0.872   1.785   0.000   2.657
   23        0.870   1.778   0.000   2.647
   24        0.871   1.776   0.000   2.646
   25        0.877   1.763   0.000   2.640
   26        0.881   1.766   0.000   2.647
   27        0.860   1.741   0.000   2.601
   28        0.871   1.795   0.000   2.666
   29        0.864   1.735   0.000   2.599
   30        0.866   1.757   0.000   2.624
   31        0.864   1.765   0.000   2.629
   32        0.866   1.771   0.000   2.638
   33        0.866   1.762   0.000   2.628
   34        0.864   1.756   0.000   2.620
   35        0.863   1.757   0.000   2.620
   36        0.861   1.741   0.000   2.602
   37        0.864   1.750   0.000   2.613
   38        0.863   1.752   0.000   2.615
   39        0.862   1.757   0.000   2.619
   40        0.865   1.770   0.000   2.635
   41        0.867   1.732   0.000   2.599
   42        0.862   1.742   0.000   2.605
   43        0.862   1.757   0.000   2.618
   44        0.863   1.746   0.000   2.609
   45        0.864   1.734   0.000   2.599
   46        0.864   1.751   0.000   2.615
   47        0.863   1.761   0.000   2.624
   48        0.864   1.759   0.000   2.623
   49        0.866   1.752   0.000   2.618
   50        0.866   1.763   0.000   2.628
   51        0.873   1.656   0.000   2.529
   52        0.866   1.630   0.000   2.496
   53        0.928   1.489   0.000   2.417
   54        0.875   1.673   0.000   2.548
   55        1.252   2.608   0.000   3.859
   56        1.239   2.697   0.000   3.936
   57        0.560   0.815   6.335   7.710
   58        2.224   6.195   1.199   9.618
--------------------------------------------------
tot         52.049 106.542   7.534 166.125
 


 magnetization (x)
 
# of ion       s       p       d       tot
------------------------------------------
    1        0.000   0.005   0.000   0.006
    2        0.000   0.006   0.000   0.007
    3       -0.000  -0.004   0.000  -0.005
    4       -0.000  -0.002   0.000  -0.003
    5       -0.000   0.002   0.000   0.002
    6        0.001   0.010   0.000   0.011
    7       -0.001  -0.006   0.000  -0.007
    8        0.000   0.000   0.000   0.000
    9        0.000  -0.001   0.000  -0.000
   10        0.001   0.009   0.000   0.010
   11       -0.001  -0.011   0.000  -0.011
   12        0.000  -0.007   0.000  -0.007
   13       -0.000  -0.000   0.000  -0.001
   14        0.001   0.009   0.000   0.010
   15       -0.001  -0.018   0.000  -0.019
   16       -0.000  -0.002   0.000  -0.002
   17        0.000   0.004   0.000   0.004
   18        0.001   0.007   0.000   0.007
   19       -0.001  -0.006   0.000  -0.007
   20       -0.000  -0.005   0.000  -0.006
   21        0.001   0.008   0.000   0.009
   22       -0.000   0.001   0.000   0.001
   23       -0.001  -0.018   0.000  -0.019
   24       -0.002  -0.014   0.000  -0.016
   25       -0.000   0.014   0.000   0.014
   26       -0.001  -0.008   0.000  -0.009
   27        0.000   0.005   0.000   0.005
   28        0.001   0.006   0.000   0.007
   29       -0.001  -0.018   0.000  -0.020
   30       -0.001  -0.011   0.000  -0.012
   31        0.001   0.009   0.000   0.010
   32        0.001   0.010   0.000   0.011
   33       -0.001  -0.010   0.000  -0.011
   34       -0.001  -0.009   0.000  -0.009
   35        0.001   0.010   0.000   0.011
   36        0.002   0.021   0.000   0.023
   37       -0.001  -0.011   0.000  -0.012
   38       -0.001  -0.011   0.000  -0.012
   39        0.002   0.023   0.000   0.025
   40        0.006   0.053   0.000   0.058
   41       -0.005  -0.063   0.000  -0.068
   42       -0.003  -0.042   0.000  -0.045
   43        0.002   0.020   0.000   0.022
   44        0.002   0.020   0.000   0.022
   45       -0.005  -0.063   0.000  -0.068
   46       -0.001  -0.013   0.000  -0.014
   47        0.001   0.011   0.000   0.012
   48        0.001   0.008   0.000   0.009
   49       -0.001  -0.010   0.000  -0.011
   50       -0.001  -0.009   0.000  -0.010
   51       -0.012  -0.047   0.000  -0.060
   52       -0.011  -0.064   0.000  -0.076
   53       -0.022  -0.264   0.000  -0.286
   54       -0.005  -0.039   0.000  -0.044
   55       -0.005  -0.060   0.000  -0.065
   56       -0.000   0.002   0.000   0.002
   57        0.038   0.010   1.986   2.033
   58       -0.002  -0.005  -0.045  -0.053
--------------------------------------------------
tot         -0.026  -0.572   1.940   1.343
 

 total amount of memory used by VASP MPI-rank0   183031. kBytes
=======================================================================

   base      :      30000. kBytes
   nonl-proj :       5326. kBytes
   fftplans  :      14253. kBytes
   grid      :      36827. kBytes
   one-center:         62. kBytes
   HF        :         23. kBytes
   nonlr-proj:      19056. kBytes
   wavefun   :      77484. kBytes
 
  
  
 General timing and accounting informations for this job:
 ========================================================
  
                  Total CPU time used (sec):    39821.840
                            User time (sec):    39762.111
                          System time (sec):       59.729
                         Elapsed time (sec):    39829.448
  
                   Maximum memory used (kb):      430184.
                   Average memory used (kb):           0.
  
                          Minor page faults:       286925
                          Major page faults:            0
                 Voluntary context switches:         1166
