 vasp.5.4.4.18Apr17-6-g9f103f2a35 (build Feb 25 2019 10:51:38) complex          
  
 executed on             LinuxIFC date 2021.08.09  10:29:02
 running on   32 total cores
 distrk:  each k-point on   32 cores,    1 groups
 distr:  one band on NCORES_PER_BAND=  32 cores,    1 groups


--------------------------------------------------------------------------------------------------------


 INCAR:
 POTCAR:    PAW_PBE C 08Apr2002                   
 POTCAR:    PAW_PBE N 08Apr2002                   
 POTCAR:    PAW_PBE Fe 06Sep2000                  
 POTCAR:    PAW_PBE Mn 06Sep2000                  

 ----------------------------------------------------------------------------- 
|                                                                             |
|           W    W    AA    RRRRR   N    N  II  N    N   GGGG   !!!           |
|           W    W   A  A   R    R  NN   N  II  NN   N  G    G  !!!           |
|           W    W  A    A  R    R  N N  N  II  N N  N  G       !!!           |
|           W WW W  AAAAAA  RRRRR   N  N N  II  N  N N  G  GGG   !            |
|           WW  WW  A    A  R   R   N   NN  II  N   NN  G    G                |
|           W    W  A    A  R    R  N    N  II  N    N   GGGG   !!!           |
|                                                                             |
|      For optimal performance we recommend to set                            |
|        NCORE= 4 - approx SQRT( number of cores)                             |
|      NCORE specifies how many cores store one orbital (NPAR=cpu/NCORE).     |
|      This setting can  greatly improve the performance of VASP for DFT.     |
|      The default,   NCORE=1            might be grossly inefficient         |
|      on modern multi-core architectures or massively parallel machines.     |
|      Do your own testing !!!!                                               |
|      Unfortunately you need to use the default for GW and RPA calculations. |
|      (for HF NCORE is supported but not extensively tested yet)             |
|                                                                             |
 ----------------------------------------------------------------------------- 

 POTCAR:    PAW_PBE C 08Apr2002                   
   VRHFIN =C: s2p2                                                              
   LEXCH  = PE                                                                  
   EATOM  =   147.1560 eV,   10.8157 Ry                                         
                                                                                
   TITEL  = PAW_PBE C 08Apr2002                                                 
   LULTRA =        F    use ultrasoft PP ?                                      
   IUNSCR =        1    unscreen: 0-lin 1-nonlin 2-no                           
   RPACOR =    1.200    partial core radius                                     
   POMASS =   12.011; ZVAL   =    4.000    mass and valenz                      
   RCORE  =    1.500    outmost cutoff radius                                   
   RWIGS  =    1.630; RWIGS  =    0.863    wigner-seitz radius (au A)           
   ENMAX  =  400.000; ENMIN  =  300.000 eV                                      
   ICORE  =        2    local potential                                         
   LCOR   =        T    correct aug charges                                     
   LPAW   =        T    paw PP                                                  
   EAUG   =  644.873                                                            
   DEXC   =    0.000                                                            
   RMAX   =    1.529    core radius for proj-oper                               
   RAUG   =    1.300    factor for augmentation sphere                          
   RDEP   =    1.501    radius for radial grids                                 
   RDEPT  =    1.300    core radius for aug-charge                              
                                                                                
   Atomic configuration                                                         
    4 entries                                                                   
     n  l   j            E        occ.                                          
     1  0  0.50      -273.3789   2.0000                                         
     2  0  0.50       -13.7508   2.0000                                         
     2  1  0.50        -5.2854   2.0000                                         
     3  2  1.50        -5.4423   0.0000                                         
   Description                                                                  
     l       E           TYP  RCUT    TYP  RCUT                                 
     0    -13.7508458     23  1.200                                             
     0     -8.2022199     23  1.200                                             
     1     -5.2854383     23  1.500                                             
     1     34.0145650     23  1.500                                             
     2     -5.4423304      7  1.500                                             
  local pseudopotential read in
  partial core-charges read in
  partial kinetic energy density read in
  atomic valenz-charges read in
  non local Contribution for L=           0  read in
    real space projection operators read in
  non local Contribution for L=           0  read in
    real space projection operators read in
  non local Contribution for L=           1  read in
    real space projection operators read in
  non local Contribution for L=           1  read in
    real space projection operators read in
    PAW grid and wavefunctions read in
 
   number of l-projection  operators is LMAX  =           4
   number of lm-projection operators is LMMAX =           8
 
 POTCAR:    PAW_PBE N 08Apr2002                   
   VRHFIN =N: s2p3                                                              
   LEXCH  = PE                                                                  
   EATOM  =   264.5486 eV,   19.4438 Ry                                         
                                                                                
   TITEL  = PAW_PBE N 08Apr2002                                                 
   LULTRA =        F    use ultrasoft PP ?                                      
   IUNSCR =        1    unscreen: 0-lin 1-nonlin 2-no                           
   RPACOR =    1.200    partial core radius                                     
   POMASS =   14.001; ZVAL   =    5.000    mass and valenz                      
   RCORE  =    1.500    outmost cutoff radius                                   
   RWIGS  =    1.400; RWIGS  =    0.741    wigner-seitz radius (au A)           
   ENMAX  =  400.000; ENMIN  =  300.000 eV                                      
   ICORE  =        2    local potential                                         
   LCOR   =        T    correct aug charges                                     
   LPAW   =        T    paw PP                                                  
   EAUG   =  627.112                                                            
   DEXC   =    0.000                                                            
   RMAX   =    1.529    core radius for proj-oper                               
   RAUG   =    1.300    factor for augmentation sphere                          
   RDEP   =    1.514    radius for radial grids                                 
   RDEPT  =    1.338    core radius for aug-charge                              
                                                                                
   Atomic configuration                                                         
    4 entries                                                                   
     n  l   j            E        occ.                                          
     1  0  0.50      -384.7179   2.0000                                         
     2  0  0.50       -18.5828   2.0000                                         
     2  1  0.50        -7.0898   3.0000                                         
     3  2  1.50        -6.8029   0.0000                                         
   Description                                                                  
     l       E           TYP  RCUT    TYP  RCUT                                 
     0    -18.5828119     23  1.200                                             
     0    -13.5018863     23  1.200                                             
     1     -7.0897853     23  1.500                                             
     1      9.5240782     23  1.500                                             
     2     -6.8029130      7  1.500                                             
  local pseudopotential read in
  partial core-charges read in
  partial kinetic energy density read in
  atomic valenz-charges read in
  non local Contribution for L=           0  read in
    real space projection operators read in
  non local Contribution for L=           0  read in
    real space projection operators read in
  non local Contribution for L=           1  read in
    real space projection operators read in
  non local Contribution for L=           1  read in
    real space projection operators read in
    PAW grid and wavefunctions read in
 
   number of l-projection  operators is LMAX  =           4
   number of lm-projection operators is LMMAX =           8
 
 POTCAR:    PAW_PBE Fe 06Sep2000                  
   VRHFIN =Fe:  d7 s1                                                           
   LEXCH  = PE                                                                  
   EATOM  =   594.3153 eV,   43.6809 Ry                                         
                                                                                
   TITEL  = PAW_PBE Fe 06Sep2000                                                
   LULTRA =        F    use ultrasoft PP ?                                      
   IUNSCR =        1    unscreen: 0-lin 1-nonlin 2-no                           
   RPACOR =    2.000    partial core radius                                     
   POMASS =   55.847; ZVAL   =    8.000    mass and valenz                      
   RCORE  =    2.300    outmost cutoff radius                                   
   RWIGS  =    2.460; RWIGS  =    1.302    wigner-seitz radius (au A)           
   ENMAX  =  267.882; ENMIN  =  200.911 eV                                      
   RCLOC  =    1.701    cutoff for local pot                                    
   LCOR   =        T    correct aug charges                                     
   LPAW   =        T    paw PP                                                  
   EAUG   =  511.368                                                            
   DEXC   =    0.000                                                            
   RMAX   =    2.356    core radius for proj-oper                               
   RAUG   =    1.300    factor for augmentation sphere                          
   RDEP   =    2.442    radius for radial grids                                 
   RDEPT  =    1.890    core radius for aug-charge                              
                                                                                
   Atomic configuration                                                         
    9 entries                                                                   
     n  l   j            E        occ.                                          
     1  0  0.50     -6993.8440   2.0000                                         
     2  0  0.50      -814.6047   2.0000                                         
     2  1  1.50      -693.3689   6.0000                                         
     3  0  0.50       -89.4732   2.0000                                         
     3  1  1.50       -55.6373   6.0000                                         
     3  2  2.50        -3.8151   7.0000                                         
     4  0  0.50        -4.2551   1.0000                                         
     4  1  1.50        -3.4015   0.0000                                         
     4  3  2.50        -1.3606   0.0000                                         
   Description                                                                  
     l       E           TYP  RCUT    TYP  RCUT                                 
     2     -3.8151135     23  2.300                                             
     2     -5.1756961     23  2.300                                             
     0     -4.2550963     23  2.300                                             
     0      7.2035603     23  2.300                                             
     1     -2.7211652     23  2.300                                             
     1     18.4316424     23  2.300                                             
  local pseudopotential read in
  partial core-charges read in
  partial kinetic energy density read in
  atomic valenz-charges read in
  non local Contribution for L=           2  read in
    real space projection operators read in
  non local Contribution for L=           2  read in
    real space projection operators read in
  non local Contribution for L=           0  read in
    real space projection operators read in
  non local Contribution for L=           0  read in
    real space projection operators read in
  non local Contribution for L=           1  read in
    real space projection operators read in
  non local Contribution for L=           1  read in
    real space projection operators read in
    PAW grid and wavefunctions read in
 
   number of l-projection  operators is LMAX  =           6
   number of lm-projection operators is LMMAX =          18
 
 POTCAR:    PAW_PBE Mn 06Sep2000                  
   VRHFIN =Mn: d6 s1                                                            
   LEXCH  = PE                                                                  
   EATOM  =   416.7541 eV,   30.6306 Ry                                         
                                                                                
   TITEL  = PAW_PBE Mn 06Sep2000                                                
   LULTRA =        F    use ultrasoft PP ?                                      
   IUNSCR =        1    unscreen: 0-lin 1-nonlin 2-no                           
   RPACOR =    2.000    partial core radius                                     
   POMASS =   54.938; ZVAL   =    7.000    mass and valenz                      
   RCORE  =    2.300    outmost cutoff radius                                   
   RWIGS  =    2.500; RWIGS  =    1.323    wigner-seitz radius (au A)           
   ENMAX  =  269.864; ENMIN  =  202.398 eV                                      
   RCLOC  =    1.725    cutoff for local pot                                    
   LCOR   =        T    correct aug charges                                     
   LPAW   =        T    paw PP                                                  
   EAUG   =  500.711                                                            
   DEXC   =    0.000                                                            
   RMAX   =    2.343    core radius for proj-oper                               
   RAUG   =    1.300    factor for augmentation sphere                          
   RDEP   =    2.338    radius for radial grids                                 
   RDEPT  =    1.911    core radius for aug-charge                              
                                                                                
   Atomic configuration                                                         
    9 entries                                                                   
     n  l   j            E        occ.                                          
     1  0  0.50     -6424.8288   2.0000                                         
     2  0  0.50      -739.1154   2.0000                                         
     2  1  1.50      -625.3949   6.0000                                         
     3  0  0.50       -81.6100   2.0000                                         
     3  1  1.50       -50.4667   6.0000                                         
     3  2  2.50        -3.3745   6.0000                                         
     4  0  0.50        -4.1331   1.0000                                         
     4  1  0.50        -4.0817   0.0000                                         
     4  3  2.50        -1.3606   0.0000                                         
   Description                                                                  
     l       E           TYP  RCUT    TYP  RCUT                                 
     2     -3.3744664     23  2.300                                             
     2     -4.7350490     23  2.300                                             
     0     -4.1331408     23  2.300                                             
     0      7.6656614     23  2.300                                             
     1     -2.7211652     23  2.300                                             
     1     20.4087390     23  2.300                                             
  local pseudopotential read in
  partial core-charges read in
  partial kinetic energy density read in
  atomic valenz-charges read in
  non local Contribution for L=           2  read in
    real space projection operators read in
  non local Contribution for L=           2  read in
    real space projection operators read in
  non local Contribution for L=           0  read in
    real space projection operators read in
  non local Contribution for L=           0  read in
    real space projection operators read in
  non local Contribution for L=           1  read in
    real space projection operators read in
  non local Contribution for L=           1  read in
    real space projection operators read in
    PAW grid and wavefunctions read in
 
   number of l-projection  operators is LMAX  =           6
   number of lm-projection operators is LMMAX =          18
 

 ----------------------------------------------------------------------------- 
|                                                                             |
|  ADVICE TO THIS USER RUNNING 'VASP/VAMP'   (HEAR YOUR MASTER'S VOICE ...):  |
|                                                                             |
|      You have a (more or less) 'large supercell' and for larger cells       |
|      it might be more efficient to use real space projection opertators     |
|      So try LREAL= Auto  in the INCAR   file.                               |
|      Mind:          For very  accurate calculation you might also keep the  |
|      reciprocal projection scheme          (i.e. LREAL=.FALSE.)             |
|                                                                             |
 ----------------------------------------------------------------------------- 

  PAW_PBE C 08Apr2002                   :
 energy of atom  1       EATOM= -147.1560
 kinetic energy error for atom=    0.0076 (will be added to EATOM!!)
  PAW_PBE N 08Apr2002                   :
 energy of atom  2       EATOM= -264.5486
 kinetic energy error for atom=    0.0138 (will be added to EATOM!!)
  PAW_PBE Fe 06Sep2000                  :
 energy of atom  3       EATOM= -594.3153
 kinetic energy error for atom=    0.0026 (will be added to EATOM!!)
  PAW_PBE Mn 06Sep2000                  :
 energy of atom  4       EATOM= -416.7541
 kinetic energy error for atom=    0.0024 (will be added to EATOM!!)
 
 
 POSCAR:  C  N Fe Mn                             
  positions in cartesian coordinates
  No initial velocities read in
 exchange correlation table for  LEXCH =        8
   RHO(1)=    0.500       N(1)  =     2000
   RHO(2)=  100.500       N(2)  =     4000

 VTST: version 3.2, (02/03/18)

 CHAIN: initializing optimizer
 
 OPT: Using VASP Conjugate-Gradient optimizer
 CHAIN: Read ICHAIN            0
 
 POSCAR:  C  N Fe Mn                             
  positions in cartesian coordinates
  No initial velocities read in
 


--------------------------------------------------------------------------------------------------------


 ion  position               nearest neighbor table
   1  0.225  0.000  0.500-  18 1.45   4 1.45   3 1.47
   2  0.056  0.099  0.500-   3 1.43   7 1.43  33 1.45
   3  0.113  0.000  0.500-   2 1.43  16 1.43   1 1.47
   4  0.280  0.102  0.500-   1 1.45   5 1.45  20 1.47
   5  0.222  0.202  0.500-  50 1.43   4 1.45   7 1.46
   6  0.051  0.298  0.500-  10 1.41  37 1.43   7 1.44
   7  0.111  0.200  0.500-   2 1.43   6 1.44   5 1.46
   8  0.209  0.398  0.500-  10 1.40  50 1.41  11 1.43
   9  0.048  0.500  0.500-  41 1.41  14 1.43  10 1.43
  10  0.102  0.399  0.500-   8 1.40   6 1.41   9 1.43
  11  0.262  0.499  0.499-  56 1.32   8 1.43  12 1.44
  12  0.209  0.602  0.500-  51 1.40  14 1.41  11 1.44
  13  0.051  0.702  0.500-  14 1.41  45 1.43  17 1.44
  14  0.101  0.601  0.500-  12 1.41  13 1.41   9 1.43
  15  0.220  0.799  0.500-  51 1.42  17 1.45  18 1.46
  16  0.056  0.901  0.500-  17 1.43   3 1.43  49 1.45
  17  0.109  0.800  0.500-  16 1.43  13 1.44  15 1.45
  18  0.280  0.899  0.500-   1 1.45  15 1.46  28 1.48
  19  0.557  0.001  0.500-  22 1.44  29 1.44  21 1.45
  20  0.392  0.103  0.500-  52 1.43  21 1.45   4 1.47
  21  0.446  0.001  0.500-  20 1.45  28 1.45  19 1.45
  22  0.614  0.100  0.500-  23 1.43  19 1.44  31 1.44
  23  0.559  0.200  0.500-  22 1.43  52 1.43  24 1.47
  24  0.617  0.302  0.500-  55 1.37  35 1.42  23 1.47
  25  0.614  0.498  0.500-  55 1.41  53 1.43  39 1.44
  26  0.616  0.698  0.500-  53 1.42  43 1.43  27 1.48
  27  0.560  0.802  0.500-  54 1.42  29 1.42  26 1.48
  28  0.392  0.898  0.500-  54 1.43  21 1.45  18 1.48
  29  0.614  0.902  0.500-  27 1.42  19 1.44  47 1.44
  30  0.890  0.000  0.500-  49 1.42  33 1.43  32 1.45
  31  0.724  0.099  0.500-  36 1.43  32 1.43  22 1.44
  32  0.780  0.000  0.500-  47 1.42  31 1.43  30 1.45
  33  0.946  0.099  0.500-  30 1.43  34 1.44   2 1.45
  34  0.889  0.198  0.500-  37 1.42  36 1.43  33 1.44
  35  0.726  0.299  0.500-  40 1.42  24 1.42  36 1.43
  36  0.779  0.199  0.500-  31 1.43  35 1.43  34 1.43
  37  0.942  0.298  0.500-  34 1.42   6 1.43  38 1.43
  38  0.888  0.399  0.500-  40 1.42  41 1.43  37 1.43
  39  0.724  0.499  0.500-  40 1.43  44 1.44  25 1.44
  40  0.779  0.399  0.500-  35 1.42  38 1.42  39 1.43
  41  0.941  0.500  0.500-   9 1.41  38 1.43  42 1.43
  42  0.887  0.601  0.500-  44 1.43  41 1.43  45 1.43
  43  0.725  0.700  0.500-  44 1.42  26 1.43  48 1.43
  44  0.778  0.600  0.500-  43 1.42  42 1.43  39 1.44
  45  0.942  0.701  0.500-  46 1.42  13 1.43  42 1.43
  46  0.888  0.802  0.500-  45 1.42  48 1.43  49 1.44
  47  0.724  0.901  0.500-  32 1.42  48 1.43  29 1.44
  48  0.779  0.801  0.500-  46 1.43  43 1.43  47 1.43
  49  0.945  0.901  0.500-  30 1.42  46 1.44  16 1.45
  50  0.271  0.305  0.499-   8 1.41   5 1.43  57 1.96
  51  0.268  0.696  0.500-  12 1.40  15 1.42  58 2.00
  52  0.450  0.201  0.499-  23 1.43  20 1.43  57 1.93
  53  0.561  0.599  0.500-  26 1.42  25 1.43  58 2.02
  54  0.452  0.801  0.500-  27 1.42  28 1.43  58 1.98
  55  0.564  0.397  0.499-  24 1.37  25 1.41  57 2.04
  56  0.362  0.495  0.498-  11 1.32  57 1.89  58 1.98
  57  0.414  0.352  0.499-  56 1.89  52 1.93  50 1.96  55 2.04
  58  0.413  0.646  0.499-  54 1.98  56 1.98  51 2.00  53 2.02
 
  LATTYP: Found a triclinic cell.
 ALAT       =    18.0186132994
 B/A-ratio  =     0.6857213409
 C/A-ratio  =     1.8176469013
 COS(alpha) =     0.0000152007
 COS(beta)  =     0.5829060986
 COS(gamma) =     0.6858610408
  
  Lattice vectors:
  
 A1 = ( -13.1233587813,  12.3469785384,   0.0007079843)
 A2 = (  -0.0106304576,  12.3557430854,   0.0005938730)
 A3 = ( -26.2332809843,  -0.0211299191, -19.6080020316)


Analysis of symmetry for initial positions (statically):
=====================================================================
 Subroutine PRICEL returns:
 Original cell was already a primitive cell.
 

 Routine SETGRP: Setting up the symmetry group for a 
 triclinic supercell.


 Subroutine GETGRP returns: Found  1 space group operations
 (whereof  1 operations were pure point group operations)
 out of a pool of  2 trial point group operations.


The static configuration has the point symmetry C_1 .


Analysis of symmetry for dynamics (positions and initial velocities):
=====================================================================
 Subroutine PRICEL returns:
 Original cell was already a primitive cell.
 

 Routine SETGRP: Setting up the symmetry group for a 
 triclinic supercell.


 Subroutine GETGRP returns: Found  1 space group operations
 (whereof  1 operations were pure point group operations)
 out of a pool of  2 trial point group operations.


The dynamic configuration has the point symmetry C_1 .


Analysis of structural, dynamic, and magnetic symmetry:
=====================================================================
 Subroutine PRICEL returns:
 Original cell was already a primitive cell.
 

 Routine SETGRP: Setting up the symmetry group for a 
 triclinic supercell.


 Subroutine GETGRP returns: Found  1 space group operations
 (whereof  1 operations were pure point group operations)
 out of a pool of  2 trial point group operations.


The magnetic configuration has the point symmetry C_1 .


 Subroutine INISYM returns: Found  1 space group operations
 (whereof  1 operations are pure point group operations),
 and found     1 'primitive' translations

 
 
 KPOINTS: KPOINTS created by Atomic Simulation Env

Automatic generation of k-mesh.
Space group operators:
 irot       det(A)        alpha          n_x          n_y          n_z        tau_x        tau_y        tau_z
    1     1.000000     0.000000     1.000000     0.000000     0.000000     0.000000     0.000000     0.000000
 
 Subroutine IBZKPT returns following result:
 ===========================================
 
 Found      2 irreducible k-points:
 
 Following reciprocal coordinates:
            Coordinates               Weight
  0.250000  0.250000 -0.000000      2.000000
 -0.250000  0.250000  0.000000      2.000000
 
 Following cartesian coordinates:
            Coordinates               Weight
  0.019052  0.020250 -0.000011      2.000000
 -0.019079  0.020217  0.000004      2.000000
 
 
 Subroutine IBZKPT_HF returns following result:
 ==============================================
 
 Found      4 k-points in 1st BZ
 the following      4 k-points will be used (e.g. in the exchange kernel)
 Following reciprocal coordinates:   # in IRBZ
  0.250000  0.250000 -0.000000    0.25000000   1 t-inv F
 -0.250000  0.250000  0.000000    0.25000000   2 t-inv F
 -0.250000 -0.250000  0.000000    0.25000000   1 t-inv T
  0.250000 -0.250000 -0.000000    0.25000000   2 t-inv T


--------------------------------------------------------------------------------------------------------




 Dimension of arrays:
   k-points           NKPTS =      2   k-points in BZ     NKDIM =      4   number of bands    NBANDS=    154
   number of dos      NEDOS =    301   number of ions     NIONS =     58
   non local maximal  LDIM  =      6   non local SUM 2l+1 LMDIM =     18
   total plane-waves  NPLWV = ******
   max r-space proj   IRMAX =      1   max aug-charges    IRDMAX=  14596
   dimension x,y,z NGX =    96 NGY =   90 NGZ =  144
   dimension x,y,z NGXF=   192 NGYF=  180 NGZF=  288
   support grid    NGXF=   192 NGYF=  180 NGZF=  288
   ions per type =              54   2   1   1
   NGX,Y,Z   is equivalent  to a cutoff of  12.17, 12.11, 12.21 a.u.
   NGXF,Y,Z  is equivalent  to a cutoff of  24.34, 24.22, 24.42 a.u.

 SYSTEM =  unknown system                          
 POSCAR =   C  N Fe Mn                             

 Startparameter for this run:
   NWRITE =      2    write-flag & timer
   PREC   = accura    normal or accurate (medium, high low for compatibility)
   ISTART =      1    job   : 0-new  1-cont  2-samecut
   ICHARG =      0    charge: 1-file 2-atom 10-const
   ISPIN  =      2    spin polarized calculation?
   LNONCOLLINEAR =      F non collinear calculations
   LSORBIT =      F    spin-orbit coupling
   INIWAV =      1    electr: 0-lowe 1-rand  2-diag
   LASPH  =      T    aspherical Exc in radial PAW
   METAGGA=      F    non-selfconsistent MetaGGA calc.

 Electronic Relaxation 1
   ENCUT  =  500.0 eV  36.75 Ry    6.06 a.u.  23.91 22.53 35.75*2*pi/ulx,y,z
   ENINI  =  500.0     initial cutoff
   ENAUG  =  644.9 eV  augmentation charge cutoff
   NELM   =    250;   NELMIN=  2; NELMDL=  0     # of ELM steps 
   EDIFF  = 0.1E-03   stopping-criterion for ELM
   LREAL  =      F    real-space projection
   NLSPLINE    = F    spline interpolate recip. space projectors
   LCOMPAT=      F    compatible to vasp.4.4
   GGA_COMPAT  = T    GGA compatible to vasp.4.4-vasp.4.6
   LMAXPAW     = -100 max onsite density
   LMAXMIX     =    2 max onsite mixed and CHGCAR
   VOSKOWN=      0    Vosko Wilk Nusair interpolation
   ROPT   =    0.00000   0.00000   0.00000   0.00000
 Ionic relaxation
   EDIFFG = -.3E-01   stopping-criterion for IOM
   NSW    =      0    number of steps for IOM
   NBLOCK =      1;   KBLOCK =      1    inner block; outer block 
   IBRION =     -1    ionic relax: 0-MD 1-quasi-New 2-CG
   NFREE  =      1    steps in history (QN), initial steepest desc. (CG)
   ISIF   =      2    stress and relaxation
   IWAVPR =     10    prediction:  0-non 1-charg 2-wave 3-comb
   ISYM   =      3    0-nonsym 1-usesym 2-fastsym
   LCORR  =      T    Harris-Foulkes like correction to forces

   POTIM  = 0.5000    time-step for ionic-motion
   TEIN   =    0.0    initial temperature
   TEBEG  =    0.0;   TEEND  =   0.0 temperature during run
   SMASS  =  -3.00    Nose mass-parameter (am)
   estimated Nose-frequenzy (Omega)   =  0.10E-29 period in steps =****** mass=  -0.393E-26a.u.
   SCALEE = 1.0000    scale energy and forces
   NPACO  =    256;   APACO  = 16.0  distance and # of slots for P.C.
   PSTRESS=    0.0 pullay stress

  Mass of Ions in am
   POMASS =  12.01 14.00 55.85 54.94
  Ionic Valenz
   ZVAL   =   4.00  5.00  8.00  7.00
  Atomic Wigner-Seitz radii
   RWIGS  =  -1.00 -1.00 -1.00 -1.00
  virtual crystal weights 
   VCA    =   1.00  1.00  1.00  1.00
   NELECT =     241.0000    total number of electrons
   NUPDOWN=      -1.0000    fix difference up-down

 DOS related values:
   EMIN   =  10.00;   EMAX   =-10.00  energy-range for DOS
   EFERMI =   0.00
   ISMEAR =     0;   SIGMA  =   0.10  broadening in eV -4-tet -1-fermi 0-gaus

 Electronic relaxation 2 (details)
   IALGO  =     53    algorithm
   LDIAG  =      T    sub-space diagonalisation (order eigenvalues)
   LSUBROT=      F    optimize rotation matrix (better conditioning)
   TURBO    =      0    0=normal 1=particle mesh
   IRESTART =      0    0=no restart 2=restart with 2 vectors
   NREBOOT  =      0    no. of reboots
   NMIN     =      0    reboot dimension
   EREF     =   0.00    reference energy to select bands
   IMIX   =      4    mixing-type and parameters
     AMIX     =   0.40;   BMIX     =  1.00
     AMIX_MAG =   1.60;   BMIX_MAG =  1.00
     AMIN     =   0.10
     WC   =   100.;   INIMIX=   1;  MIXPRE=   1;  MAXMIX= -45

 Intra band minimization:
   WEIMIN = 0.0000     energy-eigenvalue tresh-hold
   EBREAK =  0.16E-06  absolut break condition
   DEPER  =   0.30     relativ break condition  

   TIME   =   0.20     timestep for ELM

  volume/ion in A,a.u.               =      54.77       369.63
  Fermi-wavevector in a.u.,A,eV,Ry     =   0.693022  1.309622  6.534598  0.480279
  Thomas-Fermi vector in A             =   1.775119
 
 Write flags
   LWAVE        =      T    write WAVECAR
   LDOWNSAMPLE  =      F    k-point downsampling of WAVECAR
   LCHARG       =      T    write CHGCAR
   LVTOT        =      F    write LOCPOT, total local potential
   LVHAR        =      F    write LOCPOT, Hartree potential only
   LELF         =      F    write electronic localiz. function (ELF)
   LORBIT       =     11    0 simple, 1 ext, 2 COOP (PROOUT), +10 PAW based schemes


 Dipole corrections
   LMONO  =      F    monopole corrections only (constant potential shift)
   LDIPOL =      T    correct potential (dipole corrections)
   IDIPOL =      3    1-x, 2-y, 3-z, 4-all directions 
   EPSILON=  1.0000000 bulk dielectric constant

 Exchange correlation treatment:
   GGA     =    PE    GGA type
   LEXCH   =     8    internal setting for exchange type
   VOSKOWN=      0    Vosko Wilk Nusair interpolation
   EXXOEP  =     0    0=HF, 1=EXX-LHF (local Hartree Fock) 2=EXX OEP
   LHFCALC =     T    Hartree Fock is set to
   LSYMGRAD=     F    symmetrize gradient (conserves proper symmetry)
   PRECFOCK=normal    Normal, Fast or Accurate (Low or Medium for compatibility)
   LRHFCALC=     F    long range Hartree Fock
   LRSCOR  =     F    long range correlation only (use DFT for short range part)
   LTHOMAS =     F    Thomas Fermi screening in HF
   LMODELHF=     F    short range full HF, long range fraction AEXX
   ENCUT4O =  -1.0   cutoff for four orbital integrals eV
   LMAXFOCK=     4    L truncation for augmentation on plane wave grid
   LMAXFOCKAE=  -1    L truncation for all-electron charge restoration on plane wave grid
   NMAXFOCKAE=   1    number of basis functions for all-electron charge restoration
   LFOCKAEDFT=     F  apply the AE augmentation even for DFT
   NKREDX  =     1    reduce k-point grid by
   NKREDY  =     1    reduce k-point grid by
   NKREDZ  =     1    reduce k-point grid by
   SHIFTRED=     F    shift reduced grid of Gamma
   HFKIDENT=     F    idential grid for each k-point
   ODDONLY =     F    use only odd q-grid points
   EVENONLY=     F    use only even q-grid points
   HFALPHA =   -1.0000 decay constant for conv. correction
   MCALPHA =    0.0000 extent of test-charge in conv. correction in multipole expansion
   AEXX    =    0.2500 exact exchange contribution
   HFSCREEN=    0.2000 screening length (either q_TF or 0.3 A-1)
   HFSCREENC=   0.2000 screening length for correlation (either q_TF or 0.3 A-1)
   HFRCUT  =    0.0000 spherical cutoff for potential kernel
   ALDAX   =    0.7500 LDA exchange part
   AGGAX   =    0.7500 GGA exchange part
   ALDAC   =    1.0000 LDA correlation
   AGGAC   =    1.0000 GGA correlation
   ENCUTFOCK=  -1.0 apply spherical cutoff to Coloumb kernel
   NBANDSGWLOW=     1    first orbital included in HF term
   NBLOCK_FOCK=    64    blocking factor in FOCK_ACC
 Linear response parameters
   LEPSILON=     F    determine dielectric tensor
   LRPA    =     F    only Hartree local field effects (RPA)
   LNABLA  =     F    use nabla operator in PAW spheres
   LVEL    =     F    velocity operator in full k-point grid
   LINTERFAST=   F  fast interpolation
   KINTER  =     0    interpolate to denser k-point grid
   CSHIFT  =0.1000    complex shift for real part using Kramers Kronig
   OMEGAMAX=  -1.0    maximum frequency
   DEG_THRESHOLD= 0.2000000E-02 threshold for treating states as degnerate
   RTIME   =   -0.100 relaxation time in fs
  (WPLASMAI=    0.000 imaginary part of plasma frequency in eV, 0.658/RTIME)
   DFIELD  = 0.0000000 0.0000000 0.0000000 field for delta impulse in time
 
 Orbital magnetization related:
   ORBITALMAG=     F  switch on orbital magnetization
   LCHIMAG   =     F  perturbation theory with respect to B field
   DQ        =  0.001000  dq finite difference perturbation B field
   LLRAUG    =     F  two centre corrections for induced B field



--------------------------------------------------------------------------------------------------------


 Static calculation
 charge density and potential will be updated during run
 spin polarized calculation
 Conjugate gradient for all bands (Freysoldt, et al. PRB 79, 241103 (2009))
 perform sub-space diagonalisation
    before iterative eigenvector-optimisation
 modified Broyden-mixing scheme, WC =      100.0
 initial mixing is a Kerker type mixing with AMIX =  0.4000 and BMIX =      1.0000
 Hartree-type preconditioning will be used
 using additional bands           33
 reciprocal scheme for non local part
 use partial core corrections
 no Harris-corrections to forces 
 use gradient corrections 
 use of overlap-Matrix (Vanderbilt PP)
 Gauss-broadening in eV      SIGMA  =   0.10


--------------------------------------------------------------------------------------------------------


  energy-cutoff  :      500.00
  volume of cell :     3176.88
      direct lattice vectors                 reciprocal lattice vectors
    13.112728324  0.008764547 -0.000114111     0.076261736  0.000065614 -0.000030443
    -0.010630458 12.355743085  0.000593873    -0.000054096  0.080933978 -0.000014841
     0.007824337  0.003600825 19.608230254     0.000000445 -0.000002451  0.050998993

  length of vectors
    13.112731253 12.355747673 19.608232146     0.076261770  0.080933997  0.050998993


 
 old parameters found on file WAVECAR:
  energy-cutoff  :      500.00
  volume of cell :     3176.88
      direct lattice vectors                 reciprocal lattice vectors
    13.010700000  0.000000000  0.000000000     0.076859815  0.000118048 -0.000030601
    -0.018832612 12.261685538  0.000000000     0.000000000  0.081554856 -0.000010725
     0.007924320  0.002618858 19.913598251     0.000000000  0.000000000  0.050216942

  length of vectors

 
 k-points in units of 2pi/SCALE and weight: KPOINTS created by Atomic Simulation Env
   0.01905191  0.02024990 -0.00001132       0.500
  -0.01907896  0.02021709  0.00000390       0.500
 
 k-points in reciprocal lattice and weights: KPOINTS created by Atomic Simulation Env
   0.25000000  0.25000000 -0.00000000       0.500
  -0.25000000  0.25000000  0.00000000       0.500
 
 position of ions in fractional coordinates (direct lattice) 
   0.22499493  0.00003863  0.49980185
   0.05633807  0.09936467  0.49996401
   0.11272316  0.00010095  0.49991203
   0.27982077  0.10170445  0.49960138
   0.22174636  0.20199178  0.49955213
   0.05136044  0.29796479  0.50008250
   0.11072668  0.19991552  0.49987156
   0.20866110  0.39840549  0.49961972
   0.04794038  0.49995291  0.50027315
   0.10159850  0.39901303  0.50009164
   0.26169677  0.49937431  0.49925800
   0.20873835  0.60157600  0.49983275
   0.05093314  0.70168165  0.50019906
   0.10139744  0.60050548  0.50021760
   0.22007804  0.79852699  0.49990798
   0.05560540  0.90103650  0.50002221
   0.10943649  0.80049675  0.50006421
   0.27967880  0.89851187  0.49983958
   0.55731190  0.00073708  0.49995443
   0.39200615  0.10260115  0.49958788
   0.44648110  0.00050065  0.49982564
   0.61405201  0.10011431  0.49990600
   0.55916902  0.20011224  0.49960157
   0.61686335  0.30203378  0.49958139
   0.61434843  0.49802275  0.49953210
   0.61635223  0.69811010  0.49982400
   0.55996384  0.80183368  0.49991439
   0.39229344  0.89793483  0.49983556
   0.61447289  0.90161384  0.50005117
   0.89018573  0.00019716  0.50011519
   0.72391881  0.09936095  0.50006881
   0.77977945  0.00021864  0.50013685
   0.94577145  0.09934306  0.50009645
   0.88865568  0.19842668  0.50014285
   0.72550120  0.29941020  0.49991114
   0.77941318  0.19875368  0.50007415
   0.94227259  0.29847021  0.50017911
   0.88786979  0.39888355  0.50018758
   0.72423574  0.49906125  0.49985787
   0.77931742  0.39942525  0.49999397
   0.94067817  0.49992738  0.50025833
   0.88724426  0.60071095  0.50017008
   0.72524410  0.70049032  0.49996607
   0.77842670  0.60003221  0.49999900
   0.94176610  0.70110557  0.50017183
   0.88848468  0.80150645  0.50010375
   0.72419010  0.90121389  0.50010596
   0.77942573  0.80107784  0.50006964
   0.94534933  0.90086354  0.50008424
   0.27104506  0.30528847  0.49921649
   0.26831808  0.69575975  0.49962435
   0.45010007  0.20092437  0.49939258
   0.56122871  0.59938213  0.49952660
   0.45180177  0.80063590  0.49977461
   0.56392310  0.39736700  0.49927565
   0.36201916  0.49514446  0.49827298
   0.41417113  0.35232383  0.49870483
   0.41329348  0.64583910  0.49876357
 
 position of ions in cartesian coordinates  (Angst):
   2.95420754  0.00424895  9.80020418
   0.74160143  1.23001844  9.80346199
   1.48201861  0.00403536  9.80237746
   3.67204160  1.26088555  9.79632731
   2.90946119  2.49950089  9.79542775
   0.67422084  3.68382729  9.80590386
   1.45371487  2.47287528  9.80170280
   2.73579023  4.92622375  9.79687122
   0.62722879  6.17951126  9.80976249
   1.33190468  4.93279371  9.80613730
   3.43015649  6.17423205  9.78983253
   2.73464517  7.43654783  9.80116906
   0.66432700  8.67204570  9.80842933
   1.32712734  7.42238129  9.80872686
   2.88124632  9.87012332  9.80275995
   0.72347248 11.13526341  9.80507937
   1.43041396  9.89349198  9.80583714
   3.66171149 11.10603293  9.80147123
   7.31178345  0.01579197  9.80315844
   5.14308840  1.27294818  9.79605036
   5.85849090  0.01189893  9.80064558
   8.05474435  1.24416866  9.80226126
   7.33401324  2.47923527  9.79635767
   8.08945962  3.73905721  9.79601587
   8.05439841  6.16062433  9.79516604
   8.07854889  8.63287089  9.80100841
   7.33804139  9.91395886  9.80284880
   5.13840267 11.09989017  9.80137921
   8.05174412 11.14729509  9.80558384
  11.67667455  0.01203902  9.80627243
   9.49540709  1.23582382  9.80544076
  10.22894697  0.01133678  9.80670957
  12.40450099  1.23754741  9.80595738
  11.65450446  2.46129868  9.80693267
   9.51402875  3.70759435  9.80246785
  10.22203317  2.46438131  9.80559810
  12.35650523  3.69788089  9.80769687
  11.64206869  4.93808549  9.80792884
   9.49531234  6.17442014  9.80154202
  10.21864363  4.94382658  9.80414514
  12.33345700  6.18702021  9.80937000
  11.63172065  7.43180743  9.80770565
   9.50639428  8.66323510  9.80378305
  10.20483139  7.42246679  9.80436307
  12.34558343  8.67273548  9.80779331
  11.64585083  9.91279578  9.80652399
   9.49044071 11.14331529  9.80664535
  10.21579474  9.90654401  9.80586740
  12.39044520 11.14092476  9.80619413
   3.55480094  3.77623906  9.78890221
   3.51489511  8.60077944  9.79713185
   5.90381147  2.48831304  9.79227268
   7.35677633  7.41252924  9.79512448
   5.91975321  9.89821095  9.80011958
   7.39425268  4.91650492  9.79008347
   4.74569398  6.12284482  9.77050398
   5.43107018  4.35864855  9.77888114
   5.41644208  7.98524028  9.78020726
 


--------------------------------------------------------------------------------------------------------


 k-point  1 :   0.2500 0.2500-0.0000  plane waves:   80644
 k-point  2 :  -0.2500 0.2500 0.0000  plane waves:   80646

 maximum and minimum number of plane-waves per node :      2546     2486

 maximum number of plane-waves:     80646
 maximum index in each direction: 
   IXMAX=   24   IYMAX=   22   IZMAX=   35
   IXMIN=  -24   IYMIN=  -22   IZMIN=  -35


 parallel 3D FFT for wavefunctions:
    minimum data exchange during FFTs selected (reduces bandwidth)
 parallel 3D FFT for charge:
    minimum data exchange during FFTs selected (reduces bandwidth)


 FFT grid for exact exchange (Hartree Fock) 
  NGX = 72; NGY = 70; NGZ =108

 
 Radii for the augmentation spheres in the non-local exchange
 for species   1 augmentation radius   0.874 (default was   0.699)
       energy cutoff for augmentation   2000.0
 for species   2 augmentation radius   0.886 (default was   0.709)
       energy cutoff for augmentation   2000.0
 for species   3 augmentation radius   1.263 (default was   1.010)
       energy cutoff for augmentation   2000.0
 for species   4 augmentation radius   1.276 (default was   1.021)
       energy cutoff for augmentation   2000.0

 real space projection operators:
  total allocation   :       2433.02 KBytes
  max/ min on nodes  :        124.38         44.86

 Maximum index for augmentation-charges in exchange          143
  SETUP_FOCK is finished

 total amount of memory used by VASP MPI-rank0   159463. kBytes
=======================================================================

   base      :      30000. kBytes
   nonl-proj :       5312. kBytes
   fftplans  :      12934. kBytes
   grid      :      33177. kBytes
   one-center:         62. kBytes
   HF        :         23. kBytes
   nonlr-proj:       1671. kBytes
   wavefun   :      76284. kBytes
 
     INWAV:  cpu time    3.5724: real time    3.5731
 Broyden mixing: mesh for mixing (old mesh)
   NGX = 47   NGY = 45   NGZ = 71
  (NGX  =192   NGY  =180   NGZ  =288)
  gives a total of 150165 points

 charge density for first step will be calculated from the start-wavefunctions


--------------------------------------------------------------------------------------------------------


 Maximum index for augmentation-charges          242 (set IRDMAX)


--------------------------------------------------------------------------------------------------------


 initial charge from wavefunction
 First call to EWALD:  gamma=   0.121
 Maximum number of real-space cells 3x 3x 2
 Maximum number of reciprocal cells 3x 2x 4

    FEWALD:  cpu time    0.0027: real time    0.0027


--------------------------------------- Iteration      1(   1)  ---------------------------------------


    POTLOK:  cpu time    1.2368: real time    1.2403
    SETDIJ:  cpu time    2.0880: real time    2.0890
    TRIAL :  cpu time  507.2947: real time  507.3770
    CORREC:  cpu time    0.0021: real time    0.0021
    CHARGE:  cpu time    1.5956: real time    1.5960
    --------------------------------------------
      LOOP:  cpu time  512.2325: real time  512.3234

 eigenvalue-minimisations  :     0
 total energy-change (2. order) :-0.6080014E+03  (-0.4403543E+00)
 number of electron     241.0000032 magnetization       6.9919274
 augmentation part       12.6457445 magnetization       4.5760025

 DIPCOR: dipole corrections for dipol
 direction  3 min pos     1,
 dipolmoment           0.000002      0.000001      0.004815 electrons x Angstroem
 Tr[quadrupol]     -6462.764900

 energy correction for charged system         0.000000 eV
 dipol+quadrupol energy correction            0.000001 eV
 added-field ion interaction          0.000000 eV  (added to PSCEN)


 Free energy of the ion-electron system (eV)
  ---------------------------------------------------
  alpha Z        PSCENC =        99.93416731
  Ewald energy   TEWEN  =     36539.12048449
  -Hartree energ DENC   =    -44648.85815387
  -exchange      EXHF   =       539.06636769
  -V(xc)+E(xc)   XCENC  =       593.19634758
  PAW double counting   =     25426.76502818   -25453.31986852
  entropy T*S    EENTRO =        -0.00163470
  eigenvalues    EBANDS =     -3078.22853526
  atomic energy  EATOM  =      9374.32688621
  ---------------------------------------------------
  free energy    TOTEN  =      -608.00139582 eV

  energy without entropy =     -607.99976112  energy(sigma->0) =     -608.00057847
  exchange ACFDT corr.  =        -0.00432011  see jH, gK, PRB 81, 115126


--------------------------------------------------------------------------------------------------------




--------------------------------------- Iteration      1(   2)  ---------------------------------------


    POTLOK:  cpu time    1.2556: real time    1.2558
    SETDIJ:  cpu time    2.1153: real time    2.1154
    TRIAL :  cpu time  506.6431: real time  506.7201
    CORREC:  cpu time    0.0019: real time    0.0022
    CHARGE:  cpu time    1.5806: real time    1.5808
    --------------------------------------------
      LOOP:  cpu time  511.6009: real time  511.6822

 eigenvalue-minimisations  :     0
 total energy-change (2. order) :-0.3706578E+00  (-0.4005322E+00)
 number of electron     241.0000032 magnetization       6.9981759
 augmentation part       12.6267203 magnetization       4.6513354

 DIPCOR: dipole corrections for dipol
 direction  3 min pos     1,
 dipolmoment           0.000002      0.000001      0.005151 electrons x Angstroem
 Tr[quadrupol]     -6462.577307

 energy correction for charged system         0.000000 eV
 dipol+quadrupol energy correction            0.000001 eV
 added-field ion interaction          0.000000 eV  (added to PSCEN)


 Free energy of the ion-electron system (eV)
  ---------------------------------------------------
  alpha Z        PSCENC =        99.93416741
  Ewald energy   TEWEN  =     36539.12048449
  -Hartree energ DENC   =    -44633.15959669
  -exchange      EXHF   =       538.95898145
  -V(xc)+E(xc)   XCENC  =       592.87110114
  PAW double counting   =     25554.61473416   -25580.89423747
  entropy T*S    EENTRO =        -0.00042406
  eigenvalues    EBANDS =     -3094.14293965
  atomic energy  EATOM  =      9374.32688621
  ---------------------------------------------------
  free energy    TOTEN  =      -608.37205367 eV

  energy without entropy =     -608.37162961  energy(sigma->0) =     -608.37184164
  exchange ACFDT corr.  =        -0.00132270  see jH, gK, PRB 81, 115126


--------------------------------------------------------------------------------------------------------




--------------------------------------- Iteration      1(   3)  ---------------------------------------


    POTLOK:  cpu time    1.2688: real time    1.2692
    SETDIJ:  cpu time    2.0834: real time    2.0836
    TRIAL :  cpu time  505.9955: real time  506.0799
    CORREC:  cpu time    0.0020: real time    0.0023
    CHARGE:  cpu time    1.5847: real time    1.5849
    --------------------------------------------
      LOOP:  cpu time  510.9387: real time  511.0284

 eigenvalue-minimisations  :     0
 total energy-change (2. order) :-0.3119098E+00  (-0.2320623E+00)
 number of electron     241.0000031 magnetization       6.9996013
 augmentation part       12.6195008 magnetization       4.7131667

 DIPCOR: dipole corrections for dipol
 direction  3 min pos     1,
 dipolmoment           0.000002      0.000001      0.005414 electrons x Angstroem
 Tr[quadrupol]     -6462.388045

 energy correction for charged system         0.000000 eV
 dipol+quadrupol energy correction            0.000001 eV
 added-field ion interaction          0.000000 eV  (added to PSCEN)


 Free energy of the ion-electron system (eV)
  ---------------------------------------------------
  alpha Z        PSCENC =        99.93416748
  Ewald energy   TEWEN  =     36539.12048449
  -Hartree energ DENC   =    -44617.55241781
  -exchange      EXHF   =       538.91819641
  -V(xc)+E(xc)   XCENC  =       592.55809579
  PAW double counting   =     25721.31524268   -25747.49474056
  entropy T*S    EENTRO =        -0.00010318
  eigenvalues    EBANDS =     -3109.80945412
  atomic energy  EATOM  =      9374.32688621
  ---------------------------------------------------
  free energy    TOTEN  =      -608.68396350 eV

  energy without entropy =     -608.68386032  energy(sigma->0) =     -608.68391191
  exchange ACFDT corr.  =        -0.00019616  see jH, gK, PRB 81, 115126


--------------------------------------------------------------------------------------------------------




--------------------------------------- Iteration      1(   4)  ---------------------------------------


    POTLOK:  cpu time    1.2673: real time    1.2673
    SETDIJ:  cpu time    2.0787: real time    2.0792
    TRIAL :  cpu time  506.8548: real time  506.9199
    CORREC:  cpu time    0.0018: real time    0.0021
    CHARGE:  cpu time    1.5775: real time    1.5776
    --------------------------------------------
      LOOP:  cpu time  511.7827: real time  511.8815

 eigenvalue-minimisations  :     0
 total energy-change (2. order) :-0.1796450E+00  (-0.1342536E+00)
 number of electron     241.0000031 magnetization       6.9999014
 augmentation part       12.6180272 magnetization       4.7553087

 DIPCOR: dipole corrections for dipol
 direction  3 min pos     1,
 dipolmoment           0.000002      0.000001      0.005630 electrons x Angstroem
 Tr[quadrupol]     -6462.301922

 energy correction for charged system         0.000000 eV
 dipol+quadrupol energy correction            0.000001 eV
 added-field ion interaction          0.000000 eV  (added to PSCEN)


 Free energy of the ion-electron system (eV)
  ---------------------------------------------------
  alpha Z        PSCENC =        99.93416755
  Ewald energy   TEWEN  =     36539.12048449
  -Hartree energ DENC   =    -44609.91153050
  -exchange      EXHF   =       539.04796603
  -V(xc)+E(xc)   XCENC  =       592.43875475
  PAW double counting   =     25865.94819106   -25892.16381155
  entropy T*S    EENTRO =        -0.00002793
  eigenvalues    EBANDS =     -3117.60461339
  atomic energy  EATOM  =      9374.32688621
  ---------------------------------------------------
  free energy    TOTEN  =      -608.86360853 eV

  energy without entropy =     -608.86358060  energy(sigma->0) =     -608.86359457
  exchange ACFDT corr.  =        -0.00003143  see jH, gK, PRB 81, 115126


--------------------------------------------------------------------------------------------------------




--------------------------------------- Iteration      1(   5)  ---------------------------------------


    POTLOK:  cpu time    1.2670: real time    1.2670
    SETDIJ:  cpu time    2.0830: real time    2.0831
    TRIAL :  cpu time  507.2369: real time  507.3112
    CORREC:  cpu time    0.0018: real time    0.0020
    CHARGE:  cpu time    1.5873: real time    1.5873
    --------------------------------------------
      LOOP:  cpu time  512.1784: real time  512.2531

 eigenvalue-minimisations  :     0
 total energy-change (2. order) :-0.1086000E+00  (-0.8659278E-01)
 number of electron     241.0000031 magnetization       6.9999715
 augmentation part       12.6189303 magnetization       4.7826636

 DIPCOR: dipole corrections for dipol
 direction  3 min pos     1,
 dipolmoment           0.000002      0.000001      0.005833 electrons x Angstroem
 Tr[quadrupol]     -6462.313513

 energy correction for charged system         0.000000 eV
 dipol+quadrupol energy correction            0.000001 eV
 added-field ion interaction          0.000000 eV  (added to PSCEN)


 Free energy of the ion-electron system (eV)
  ---------------------------------------------------
  alpha Z        PSCENC =        99.93416762
  Ewald energy   TEWEN  =     36539.12048449
  -Hartree energ DENC   =    -44609.74819844
  -exchange      EXHF   =       539.30468411
  -V(xc)+E(xc)   XCENC  =       592.49831670
  PAW double counting   =     25970.02413012   -25996.28741689
  entropy T*S    EENTRO =        -0.00000879
  eigenvalues    EBANDS =     -3118.14523452
  atomic energy  EATOM  =      9374.32688621
  ---------------------------------------------------
  free energy    TOTEN  =      -608.97220855 eV

  energy without entropy =     -608.97219976  energy(sigma->0) =     -608.97220415
  exchange ACFDT corr.  =        -0.00000703  see jH, gK, PRB 81, 115126


--------------------------------------------------------------------------------------------------------




--------------------------------------- Iteration      1(   6)  ---------------------------------------


    POTLOK:  cpu time    1.2656: real time    1.2661
    SETDIJ:  cpu time    2.1129: real time    2.1131
    TRIAL :  cpu time  506.9906: real time  507.0857
    CORREC:  cpu time    0.0017: real time    0.0020
    CHARGE:  cpu time    1.5790: real time    1.5793
    --------------------------------------------
      LOOP:  cpu time  511.9519: real time  512.0482

 eigenvalue-minimisations  :     0
 total energy-change (2. order) :-0.7224360E-01  (-0.5691994E-01)
 number of electron     241.0000031 magnetization       6.9999904
 augmentation part       12.6213779 magnetization       4.8020151

 DIPCOR: dipole corrections for dipol
 direction  3 min pos     1,
 dipolmoment           0.000002      0.000001      0.005998 electrons x Angstroem
 Tr[quadrupol]     -6462.365274

 energy correction for charged system         0.000000 eV
 dipol+quadrupol energy correction            0.000001 eV
 added-field ion interaction          0.000000 eV  (added to PSCEN)


 Free energy of the ion-electron system (eV)
  ---------------------------------------------------
  alpha Z        PSCENC =        99.93416768
  Ewald energy   TEWEN  =     36539.12048449
  -Hartree energ DENC   =    -44612.93159186
  -exchange      EXHF   =       539.58466501
  -V(xc)+E(xc)   XCENC  =       592.63480514
  PAW double counting   =     26037.36988058   -26063.66570404
  entropy T*S    EENTRO =        -0.00000327
  eigenvalues    EBANDS =     -3115.41803656
  atomic energy  EATOM  =      9374.32688621
  ---------------------------------------------------
  free energy    TOTEN  =      -609.04445214 eV

  energy without entropy =     -609.04444887  energy(sigma->0) =     -609.04445051
  exchange ACFDT corr.  =        -0.00000200  see jH, gK, PRB 81, 115126


--------------------------------------------------------------------------------------------------------




--------------------------------------- Iteration      1(   7)  ---------------------------------------


    POTLOK:  cpu time    1.2631: real time    1.2633
    SETDIJ:  cpu time    2.0819: real time    2.0820
    TRIAL :  cpu time  506.6462: real time  506.7513
    CORREC:  cpu time    0.0016: real time    0.0018
    CHARGE:  cpu time    1.5766: real time    1.5767
    --------------------------------------------
      LOOP:  cpu time  511.5716: real time  511.6774

 eigenvalue-minimisations  :     0
 total energy-change (2. order) :-0.4841087E-01  (-0.3764449E-01)
 number of electron     241.0000031 magnetization       6.9999963
 augmentation part       12.6248482 magnetization       4.8178389

 DIPCOR: dipole corrections for dipol
 direction  3 min pos     1,
 dipolmoment           0.000002      0.000001      0.006098 electrons x Angstroem
 Tr[quadrupol]     -6462.414033

 energy correction for charged system         0.000000 eV
 dipol+quadrupol energy correction            0.000001 eV
 added-field ion interaction          0.000000 eV  (added to PSCEN)


 Free energy of the ion-electron system (eV)
  ---------------------------------------------------
  alpha Z        PSCENC =        99.93416771
  Ewald energy   TEWEN  =     36539.12048449
  -Hartree energ DENC   =    -44616.29342729
  -exchange      EXHF   =       539.81888801
  -V(xc)+E(xc)   XCENC  =       592.76974583
  PAW double counting   =     26078.31136862   -26104.64302190
  entropy T*S    EENTRO =        -0.00000144
  eigenvalues    EBANDS =     -3112.43795142
  atomic energy  EATOM  =      9374.32688621
  ---------------------------------------------------
  free energy    TOTEN  =      -609.09286302 eV

  energy without entropy =     -609.09286158  energy(sigma->0) =     -609.09286230
  exchange ACFDT corr.  =        -0.00000069  see jH, gK, PRB 81, 115126


--------------------------------------------------------------------------------------------------------




--------------------------------------- Iteration      1(   8)  ---------------------------------------


    POTLOK:  cpu time    1.2601: real time    1.2603
    SETDIJ:  cpu time    2.0806: real time    2.0810
    TRIAL :  cpu time  507.1022: real time  507.2045
    CORREC:  cpu time    0.0017: real time    0.0019
    CHARGE:  cpu time    1.5785: real time    1.5786
    --------------------------------------------
      LOOP:  cpu time  512.0255: real time  512.1287

 eigenvalue-minimisations  :     0
 total energy-change (2. order) :-0.3265892E-01  (-0.2562017E-01)
 number of electron     241.0000031 magnetization       6.9999985
 augmentation part       12.6284743 magnetization       4.8318518

 DIPCOR: dipole corrections for dipol
 direction  3 min pos     1,
 dipolmoment           0.000002      0.000001      0.006137 electrons x Angstroem
 Tr[quadrupol]     -6462.443530

 energy correction for charged system         0.000000 eV
 dipol+quadrupol energy correction            0.000001 eV
 added-field ion interaction          0.000000 eV  (added to PSCEN)


 Free energy of the ion-electron system (eV)
  ---------------------------------------------------
  alpha Z        PSCENC =        99.93416772
  Ewald energy   TEWEN  =     36539.12048449
  -Hartree energ DENC   =    -44618.51658803
  -exchange      EXHF   =       539.98642970
  -V(xc)+E(xc)   XCENC  =       592.87030261
  PAW double counting   =     26101.93309128   -26128.31366708
  entropy T*S    EENTRO =        -0.00000073
  eigenvalues    EBANDS =     -3110.46662740
  atomic energy  EATOM  =      9374.32688621
  ---------------------------------------------------
  free energy    TOTEN  =      -609.12552194 eV

  energy without entropy =     -609.12552120  energy(sigma->0) =     -609.12552157
  exchange ACFDT corr.  =        -0.00000029  see jH, gK, PRB 81, 115126


--------------------------------------------------------------------------------------------------------




--------------------------------------- Iteration      1(   9)  ---------------------------------------


    POTLOK:  cpu time    1.2562: real time    1.2563
    SETDIJ:  cpu time    2.0747: real time    2.0748
    TRIAL :  cpu time  507.3113: real time  507.3987
    CORREC:  cpu time    0.0016: real time    0.0019
    CHARGE:  cpu time    1.5755: real time    1.5756
    --------------------------------------------
      LOOP:  cpu time  512.2216: real time  512.3136

 eigenvalue-minimisations  :     0
 total energy-change (2. order) :-0.2261679E-01  (-0.1792746E-01)
 number of electron     241.0000031 magnetization       6.9999995
 augmentation part       12.6314272 magnetization       4.8442963

 DIPCOR: dipole corrections for dipol
 direction  3 min pos     1,
 dipolmoment           0.000002      0.000001      0.006142 electrons x Angstroem
 Tr[quadrupol]     -6462.455332

 energy correction for charged system         0.000000 eV
 dipol+quadrupol energy correction            0.000001 eV
 added-field ion interaction          0.000000 eV  (added to PSCEN)


 Free energy of the ion-electron system (eV)
  ---------------------------------------------------
  alpha Z        PSCENC =        99.93416773
  Ewald energy   TEWEN  =     36539.12048449
  -Hartree energ DENC   =    -44619.54596632
  -exchange      EXHF   =       540.09583305
  -V(xc)+E(xc)   XCENC  =       592.93458856
  PAW double counting   =     26114.91778611   -26141.35278833
  entropy T*S    EENTRO =        -0.00000043
  eigenvalues    EBANDS =     -3109.57912948
  atomic energy  EATOM  =      9374.32688621
  ---------------------------------------------------
  free energy    TOTEN  =      -609.14813873 eV

  energy without entropy =     -609.14813830  energy(sigma->0) =     -609.14813851
  exchange ACFDT corr.  =        -0.00000014  see jH, gK, PRB 81, 115126


--------------------------------------------------------------------------------------------------------




--------------------------------------- Iteration      1(  10)  ---------------------------------------


    POTLOK:  cpu time    1.2562: real time    1.2563
    SETDIJ:  cpu time    2.0829: real time    2.0831
    TRIAL :  cpu time  508.3750: real time  508.4515
    CORREC:  cpu time    0.0016: real time    0.0018
    CHARGE:  cpu time    1.5781: real time    1.5783
    --------------------------------------------
      LOOP:  cpu time  513.2963: real time  513.3735

 eigenvalue-minimisations  :     0
 total energy-change (2. order) :-0.1602659E-01  (-0.1278421E-01)
 number of electron     241.0000031 magnetization       6.9999999
 augmentation part       12.6334154 magnetization       4.8550998

 DIPCOR: dipole corrections for dipol
 direction  3 min pos     1,
 dipolmoment           0.000002      0.000001      0.006141 electrons x Angstroem
 Tr[quadrupol]     -6462.456892

 energy correction for charged system         0.000000 eV
 dipol+quadrupol energy correction            0.000001 eV
 added-field ion interaction          0.000000 eV  (added to PSCEN)


 Free energy of the ion-electron system (eV)
  ---------------------------------------------------
  alpha Z        PSCENC =        99.93416772
  Ewald energy   TEWEN  =     36539.12048449
  -Hartree energ DENC   =    -44619.81265952
  -exchange      EXHF   =       540.16571048
  -V(xc)+E(xc)   XCENC  =       592.97325894
  PAW double counting   =     26121.64254539   -26148.12563122
  entropy T*S    EENTRO =        -0.00000028
  eigenvalues    EBANDS =     -3109.38892737
  atomic energy  EATOM  =      9374.32688621
  ---------------------------------------------------
  free energy    TOTEN  =      -609.16416532 eV

  energy without entropy =     -609.16416504  energy(sigma->0) =     -609.16416518
  exchange ACFDT corr.  =        -0.00000008  see jH, gK, PRB 81, 115126


--------------------------------------------------------------------------------------------------------




--------------------------------------- Iteration      1(  11)  ---------------------------------------


    POTLOK:  cpu time    1.2481: real time    1.2483
    SETDIJ:  cpu time    2.0787: real time    2.0787
    TRIAL :  cpu time  507.4367: real time  507.5165
    CORREC:  cpu time    0.0016: real time    0.0019
    CHARGE:  cpu time    1.5780: real time    1.5789
    --------------------------------------------
      LOOP:  cpu time  512.3456: real time  512.4269

 eigenvalue-minimisations  :     0
 total energy-change (2. order) :-0.1154423E-01  (-0.9275885E-02)
 number of electron     241.0000031 magnetization       7.0000001
 augmentation part       12.6346684 magnetization       4.8643445

 DIPCOR: dipole corrections for dipol
 direction  3 min pos     1,
 dipolmoment           0.000002      0.000001      0.006146 electrons x Angstroem
 Tr[quadrupol]     -6462.454832

 energy correction for charged system         0.000000 eV
 dipol+quadrupol energy correction            0.000001 eV
 added-field ion interaction          0.000000 eV  (added to PSCEN)


 Free energy of the ion-electron system (eV)
  ---------------------------------------------------
  alpha Z        PSCENC =        99.93416773
  Ewald energy   TEWEN  =     36539.12048449
  -Hartree energ DENC   =    -44619.76150937
  -exchange      EXHF   =       540.21318171
  -V(xc)+E(xc)   XCENC  =       592.99799748
  PAW double counting   =     26124.89797479   -26151.41720727
  entropy T*S    EENTRO =        -0.00000020
  eigenvalues    EBANDS =     -3109.48768503
  atomic energy  EATOM  =      9374.32688621
  ---------------------------------------------------
  free energy    TOTEN  =      -609.17570955 eV

  energy without entropy =     -609.17570935  energy(sigma->0) =     -609.17570945
  exchange ACFDT corr.  =        -0.00000005  see jH, gK, PRB 81, 115126


--------------------------------------------------------------------------------------------------------




--------------------------------------- Iteration      1(  12)  ---------------------------------------


    POTLOK:  cpu time    1.2462: real time    1.2462
    SETDIJ:  cpu time    2.0737: real time    2.0739
    TRIAL :  cpu time  505.3742: real time  505.4556
    CORREC:  cpu time    0.0016: real time    0.0018
    CHARGE:  cpu time    1.5771: real time    1.5772
    --------------------------------------------
      LOOP:  cpu time  510.2753: real time  510.3573

 eigenvalue-minimisations  :     0
 total energy-change (2. order) :-0.8451105E-02  (-0.6845719E-02)
 number of electron     241.0000031 magnetization       7.0000003
 augmentation part       12.6355852 magnetization       4.8722731

 DIPCOR: dipole corrections for dipol
 direction  3 min pos     1,
 dipolmoment           0.000002      0.000001      0.006160 electrons x Angstroem
 Tr[quadrupol]     -6462.452840

 energy correction for charged system         0.000000 eV
 dipol+quadrupol energy correction            0.000001 eV
 added-field ion interaction          0.000000 eV  (added to PSCEN)


 Free energy of the ion-electron system (eV)
  ---------------------------------------------------
  alpha Z        PSCENC =        99.93416773
  Ewald energy   TEWEN  =     36539.12048449
  -Hartree energ DENC   =    -44619.66886489
  -exchange      EXHF   =       540.24944154
  -V(xc)+E(xc)   XCENC  =       593.01674619
  PAW double counting   =     26126.53625118   -26153.08127240
  entropy T*S    EENTRO =        -0.00000015
  eigenvalues    EBANDS =     -3109.61800050
  atomic energy  EATOM  =      9374.32688621
  ---------------------------------------------------
  free energy    TOTEN  =      -609.18416065 eV

  energy without entropy =     -609.18416050  energy(sigma->0) =     -609.18416058
  exchange ACFDT corr.  =        -0.00000004  see jH, gK, PRB 81, 115126


--------------------------------------------------------------------------------------------------------




--------------------------------------- Iteration      1(  13)  ---------------------------------------


    POTLOK:  cpu time    1.2418: real time    1.2420
    SETDIJ:  cpu time    2.0776: real time    2.0779
    TRIAL :  cpu time  506.2814: real time  506.3554
    CORREC:  cpu time    0.0015: real time    0.0018
    CHARGE:  cpu time    1.5762: real time    1.5764
    --------------------------------------------
      LOOP:  cpu time  511.1808: real time  511.2557

 eigenvalue-minimisations  :     0
 total energy-change (2. order) :-0.6288834E-02  (-0.5132077E-02)
 number of electron     241.0000031 magnetization       7.0000004
 augmentation part       12.6364292 magnetization       4.8791741

 DIPCOR: dipole corrections for dipol
 direction  3 min pos     1,
 dipolmoment           0.000002      0.000001      0.006178 electrons x Angstroem
 Tr[quadrupol]     -6462.452058

 energy correction for charged system         0.000000 eV
 dipol+quadrupol energy correction            0.000001 eV
 added-field ion interaction          0.000000 eV  (added to PSCEN)


 Free energy of the ion-electron system (eV)
  ---------------------------------------------------
  alpha Z        PSCENC =        99.93416774
  Ewald energy   TEWEN  =     36539.12048449
  -Hartree energ DENC   =    -44619.63610512
  -exchange      EXHF   =       540.27999107
  -V(xc)+E(xc)   XCENC  =       593.03321362
  PAW double counting   =     26127.86167641   -26154.42656358
  entropy T*S    EENTRO =        -0.00000012
  eigenvalues    EBANDS =     -3109.68420017
  atomic energy  EATOM  =      9374.32688621
  ---------------------------------------------------
  free energy    TOTEN  =      -609.19044949 eV

  energy without entropy =     -609.19044937  energy(sigma->0) =     -609.19044943
  exchange ACFDT corr.  =        -0.00000003  see jH, gK, PRB 81, 115126


--------------------------------------------------------------------------------------------------------




--------------------------------------- Iteration      1(  14)  ---------------------------------------


    POTLOK:  cpu time    1.2461: real time    1.2462
    SETDIJ:  cpu time    2.1095: real time    2.1096
    TRIAL :  cpu time  506.0700: real time  506.1325
    CORREC:  cpu time    0.0014: real time    0.0017
    CHARGE:  cpu time    1.5882: real time    1.5884
    --------------------------------------------
      LOOP:  cpu time  511.0173: real time  511.0805

 eigenvalue-minimisations  :     0
 total energy-change (2. order) :-0.4749484E-02  (-0.3904206E-02)
 number of electron     241.0000031 magnetization       7.0000004
 augmentation part       12.6372527 magnetization       4.8852509

 DIPCOR: dipole corrections for dipol
 direction  3 min pos     1,
 dipolmoment           0.000002      0.000001      0.006197 electrons x Angstroem
 Tr[quadrupol]     -6462.452417

 energy correction for charged system         0.000000 eV
 dipol+quadrupol energy correction            0.000001 eV
 added-field ion interaction          0.000000 eV  (added to PSCEN)


 Free energy of the ion-electron system (eV)
  ---------------------------------------------------
  alpha Z        PSCENC =        99.93416774
  Ewald energy   TEWEN  =     36539.12048449
  -Hartree energ DENC   =    -44619.66950036
  -exchange      EXHF   =       540.30681388
  -V(xc)+E(xc)   XCENC  =       593.04842701
  PAW double counting   =     26129.36884010   -26155.95122703
  entropy T*S    EENTRO =        -0.00000010
  eigenvalues    EBANDS =     -3109.68009090
  atomic energy  EATOM  =      9374.32688621
  ---------------------------------------------------
  free energy    TOTEN  =      -609.19519897 eV

  energy without entropy =     -609.19519887  energy(sigma->0) =     -609.19519892
  exchange ACFDT corr.  =        -0.00000002  see jH, gK, PRB 81, 115126


--------------------------------------------------------------------------------------------------------




--------------------------------------- Iteration      1(  15)  ---------------------------------------


    POTLOK:  cpu time    1.2344: real time    1.2345
    SETDIJ:  cpu time    2.0797: real time    2.0797
    TRIAL :  cpu time  506.3420: real time  506.4150
    CORREC:  cpu time    0.0015: real time    0.0018
    CHARGE:  cpu time    1.5762: real time    1.5764
    --------------------------------------------
      LOOP:  cpu time  511.2359: real time  511.3094

 eigenvalue-minimisations  :     0
 total energy-change (2. order) :-0.3636039E-02  (-0.3012931E-02)
 number of electron     241.0000031 magnetization       7.0000004
 augmentation part       12.6379906 magnetization       4.8906068

 DIPCOR: dipole corrections for dipol
 direction  3 min pos     1,
 dipolmoment           0.000002      0.000001      0.006211 electrons x Angstroem
 Tr[quadrupol]     -6462.453329

 energy correction for charged system         0.000000 eV
 dipol+quadrupol energy correction            0.000001 eV
 added-field ion interaction          0.000000 eV  (added to PSCEN)


 Free energy of the ion-electron system (eV)
  ---------------------------------------------------
  alpha Z        PSCENC =        99.93416775
  Ewald energy   TEWEN  =     36539.12048449
  -Hartree energ DENC   =    -44619.73481985
  -exchange      EXHF   =       540.33035880
  -V(xc)+E(xc)   XCENC  =       593.06223553
  PAW double counting   =     26131.11873362   -26157.71725902
  entropy T*S    EENTRO =        -0.00000009
  eigenvalues    EBANDS =     -3109.63962243
  atomic energy  EATOM  =      9374.32688621
  ---------------------------------------------------
  free energy    TOTEN  =      -609.19883501 eV

  energy without entropy =     -609.19883492  energy(sigma->0) =     -609.19883497
  exchange ACFDT corr.  =        -0.00000002  see jH, gK, PRB 81, 115126


--------------------------------------------------------------------------------------------------------




--------------------------------------- Iteration      1(  16)  ---------------------------------------


    POTLOK:  cpu time    1.2317: real time    1.2317
    SETDIJ:  cpu time    2.1098: real time    2.1100
    TRIAL :  cpu time  505.4293: real time  505.4924
    CORREC:  cpu time    0.0014: real time    0.0017
    CHARGE:  cpu time    1.5896: real time    1.5935
    --------------------------------------------
      LOOP:  cpu time  510.3640: real time  510.4316

 eigenvalue-minimisations  :     0
 total energy-change (2. order) :-0.2821345E-02  (-0.2362059E-02)
 number of electron     241.0000031 magnetization       7.0000005
 augmentation part       12.6385861 magnetization       4.8953138

 DIPCOR: dipole corrections for dipol
 direction  3 min pos     1,
 dipolmoment           0.000002      0.000001      0.006220 electrons x Angstroem
 Tr[quadrupol]     -6462.454261

 energy correction for charged system         0.000000 eV
 dipol+quadrupol energy correction            0.000001 eV
 added-field ion interaction          0.000000 eV  (added to PSCEN)


 Free energy of the ion-electron system (eV)
  ---------------------------------------------------
  alpha Z        PSCENC =        99.93416775
  Ewald energy   TEWEN  =     36539.12048449
  -Hartree energ DENC   =    -44619.79993840
  -exchange      EXHF   =       540.35078185
  -V(xc)+E(xc)   XCENC  =       593.07437361
  PAW double counting   =     26132.98037515   -26159.59310447
  entropy T*S    EENTRO =        -0.00000008
  eigenvalues    EBANDS =     -3109.59568244
  atomic energy  EATOM  =      9374.32688621
  ---------------------------------------------------
  free energy    TOTEN  =      -609.20165636 eV

  energy without entropy =     -609.20165627  energy(sigma->0) =     -609.20165632
  exchange ACFDT corr.  =        -0.00000002  see jH, gK, PRB 81, 115126


--------------------------------------------------------------------------------------------------------




--------------------------------------- Iteration      1(  17)  ---------------------------------------


    POTLOK:  cpu time    1.2317: real time    1.2318
    SETDIJ:  cpu time    2.0723: real time    2.0725
    TRIAL :  cpu time  505.8373: real time  505.8968
    CORREC:  cpu time    0.0015: real time    0.0018
    CHARGE:  cpu time    1.5746: real time    1.5747
    --------------------------------------------
      LOOP:  cpu time  510.7195: real time  510.7796

 eigenvalue-minimisations  :     0
 total energy-change (2. order) :-0.2222650E-02  (-0.1879416E-02)
 number of electron     241.0000031 magnetization       7.0000005
 augmentation part       12.6390429 magnetization       4.8994556

 DIPCOR: dipole corrections for dipol
 direction  3 min pos     1,
 dipolmoment           0.000002      0.000001      0.006225 electrons x Angstroem
 Tr[quadrupol]     -6462.454939

 energy correction for charged system         0.000000 eV
 dipol+quadrupol energy correction            0.000001 eV
 added-field ion interaction          0.000000 eV  (added to PSCEN)


 Free energy of the ion-electron system (eV)
  ---------------------------------------------------
  alpha Z        PSCENC =        99.93416775
  Ewald energy   TEWEN  =     36539.12048449
  -Hartree energ DENC   =    -44619.84936095
  -exchange      EXHF   =       540.36837493
  -V(xc)+E(xc)   XCENC  =       593.08484149
  PAW double counting   =     26134.79281266   -26161.41728739
  entropy T*S    EENTRO =        -0.00000008
  eigenvalues    EBANDS =     -3109.56479811
  atomic energy  EATOM  =      9374.32688621
  ---------------------------------------------------
  free energy    TOTEN  =      -609.20387901 eV

  energy without entropy =     -609.20387893  energy(sigma->0) =     -609.20387897
  exchange ACFDT corr.  =        -0.00000001  see jH, gK, PRB 81, 115126


--------------------------------------------------------------------------------------------------------




--------------------------------------- Iteration      1(  18)  ---------------------------------------


    POTLOK:  cpu time    1.2289: real time    1.2289
    SETDIJ:  cpu time    2.0761: real time    2.0764
    TRIAL :  cpu time  505.3356: real time  505.4175
    CORREC:  cpu time    0.0015: real time    0.0015
    CHARGE:  cpu time    1.5724: real time    1.5725
    --------------------------------------------
      LOOP:  cpu time  510.2170: real time  510.2993

 eigenvalue-minimisations  :     0
 total energy-change (2. order) :-0.1776382E-02  (-0.1516147E-02)
 number of electron     241.0000031 magnetization       7.0000005
 augmentation part       12.6394016 magnetization       4.9031262

 DIPCOR: dipole corrections for dipol
 direction  3 min pos     1,
 dipolmoment           0.000002      0.000001      0.006229 electrons x Angstroem
 Tr[quadrupol]     -6462.455311

 energy correction for charged system         0.000000 eV
 dipol+quadrupol energy correction            0.000001 eV
 added-field ion interaction          0.000000 eV  (added to PSCEN)


 Free energy of the ion-electron system (eV)
  ---------------------------------------------------
  alpha Z        PSCENC =        99.93416776
  Ewald energy   TEWEN  =     36539.12048449
  -Hartree energ DENC   =    -44619.88129026
  -exchange      EXHF   =       540.38351770
  -V(xc)+E(xc)   XCENC  =       593.09383903
  PAW double counting   =     26136.44409484   -26163.07809037
  entropy T*S    EENTRO =        -0.00000007
[...]
  augment    46.48895    41.68501    46.56424    -1.71649     0.02095     0.01913
  Kinetic  3544.43744  3522.38457  3970.95443     0.71053     0.04917     0.12200
  Fock     -317.05445  -312.45154  -296.00500     1.35131    -0.00413     0.01368
  -------------------------------------------------------------------------------------
  Total     -42.86695   -42.65109    -0.32587     0.39484    -0.00614     0.02509
  in kB     -21.61885   -21.50999    -0.16435     0.19913    -0.00310     0.01266
  external pressure =      -14.43 kB  Pullay stress =        0.00 kB


 VOLUME and BASIS-vectors are now :
 -----------------------------------------------------------------------------
  energy-cutoff  :      500.00
  volume of cell :     3176.88
      direct lattice vectors                 reciprocal lattice vectors
    13.112728324  0.008764547 -0.000114111     0.076261736  0.000065614 -0.000030443
    -0.010630458 12.355743085  0.000593873    -0.000054096  0.080933978 -0.000014841
     0.007824337  0.003600825 19.608230254     0.000000445 -0.000002451  0.050998993

  length of vectors
    13.112731253 12.355747673 19.608232146     0.076261770  0.080933997  0.050998993


 FORCES acting on ions:
    Electron-Ion                     Ewald-Force                    Non-Local-Force
 -----------------------------------------------------------------------------------------------
   -.360E+01 0.227E+01 -.825E-01   0.421E+01 -.242E+01 0.882E-01   -.496E+00 0.189E+00 -.551E-02
   -.348E+01 0.405E+01 -.339E+00   0.365E+01 -.412E+01 0.338E+00   -.181E+00 0.245E-01 0.805E-03
   -.173E+02 0.175E+01 -.881E-01   0.174E+02 -.182E+01 0.835E-01   -.256E+00 0.582E-01 0.546E-02
   -.102E+02 -.105E+01 0.699E+00   0.107E+02 0.146E+01 -.708E+00   -.457E+00 -.479E+00 0.117E-01
   -.133E+02 0.129E+02 0.783E+00   0.139E+02 -.124E+02 -.779E+00   -.618E+00 -.418E+00 -.251E-02
   -.120E+01 0.138E+02 -.118E+01   0.151E+01 -.140E+02 0.118E+01   -.160E+00 0.258E+00 0.114E-02
   -.117E+02 0.653E+01 -.232E+00   0.123E+02 -.656E+01 0.234E+00   -.590E+00 0.907E-01 -.210E-02
   0.488E+01 0.108E+02 -.481E+00   -.413E+01 -.121E+02 0.475E+00   -.594E+00 0.747E+00 0.343E-02
   -.518E+01 -.539E+00 -.228E+01   0.511E+01 0.713E+00 0.228E+01   -.255E-01 -.201E+00 -.251E-02
   0.456E+01 -.302E+00 -.189E+01   -.457E+01 0.245E+00 0.190E+01   -.826E-01 -.432E-01 -.109E-01
   0.372E+02 -.153E+02 0.626E+00   -.389E+02 0.156E+02 -.635E+00   0.253E+01 -.380E+00 -.926E-02
   -.660E+01 -.121E+02 -.140E+01   0.719E+01 0.141E+02 0.139E+01   -.628E+00 -.159E+01 -.116E-02
   -.305E+01 -.136E+02 -.152E+01   0.331E+01 0.137E+02 0.152E+01   -.168E+00 -.199E+00 0.476E-03
   0.170E+01 -.330E+01 -.237E+01   -.132E+01 0.347E+01 0.238E+01   -.336E+00 -.666E-01 -.889E-02
   -.211E+02 -.121E+02 -.795E+00   0.219E+02 0.112E+02 0.803E+00   -.836E+00 0.850E+00 -.112E-01
   -.469E+01 -.356E+01 -.424E+00   0.481E+01 0.350E+01 0.425E+00   -.144E+00 0.992E-01 0.660E-03
   -.125E+02 -.441E+01 -.911E+00   0.134E+02 0.441E+01 0.914E+00   -.762E+00 -.419E-01 -.146E-02
   -.148E+02 0.102E+02 -.308E+00   0.154E+02 -.110E+02 0.296E+00   -.610E+00 0.799E+00 0.103E-01
   0.133E+02 0.385E+01 -.853E+00   -.137E+02 -.406E+01 0.847E+00   0.446E+00 0.242E+00 0.325E-02
   0.138E+02 -.165E+01 0.486E+00   -.134E+02 0.206E+01 -.484E+00   -.338E+00 -.333E+00 -.517E-03
   0.855E+01 0.478E+01 -.511E+00   -.922E+01 -.511E+01 0.515E+00   0.662E+00 0.293E+00 -.490E-02
   0.360E+01 0.534E+01 -.621E+00   -.380E+01 -.549E+01 0.623E+00   0.235E+00 0.106E+00 -.234E-02
   0.442E+01 0.619E+01 0.415E+00   -.594E+01 -.708E+01 -.414E+00   0.119E+01 0.659E+00 0.992E-03
   -.803E+01 0.334E+02 0.385E+00   0.946E+01 -.363E+02 -.363E+00   -.155E+01 0.326E+01 -.211E-01
   0.194E+02 -.314E+02 0.591E+00   -.185E+02 0.365E+02 -.580E+00   -.857E+00 -.490E+01 -.941E-02
   0.176E+02 -.597E+01 -.474E+00   -.187E+02 0.460E+01 0.481E+00   0.102E+01 0.107E+01 -.841E-02
   0.753E+01 0.117E+02 -.901E+00   -.894E+01 -.120E+02 0.900E+00   0.118E+01 0.498E+00 -.119E-02
   0.145E+02 0.133E+02 -.545E+00   -.138E+02 -.144E+02 0.545E+00   -.577E+00 0.109E+01 -.309E-02
   0.516E+01 0.100E+01 -.121E+01   -.561E+01 -.158E+01 0.121E+01   0.467E+00 0.508E+00 -.672E-02
   0.315E+01 0.868E+00 -.731E+00   -.304E+01 -.942E+00 0.730E+00   -.344E-01 0.717E-01 0.114E-02
   0.641E+01 0.362E+01 -.972E+00   -.661E+01 -.391E+01 0.970E+00   0.170E+00 0.223E+00 -.141E-02
   -.333E+01 0.121E+01 -.106E+01   0.321E+01 -.134E+01 0.107E+01   0.540E-01 0.133E+00 -.451E-02
   -.863E+01 0.894E+00 -.766E+00   0.878E+01 -.105E+01 0.768E+00   -.151E+00 0.109E+00 -.263E-02
   -.466E+00 0.689E+01 -.105E+01   0.447E+00 -.706E+01 0.105E+01   -.235E-01 0.193E+00 -.276E-03
   -.289E+01 0.793E+01 -.568E+00   0.349E+01 -.820E+01 0.573E+00   -.485E+00 0.273E+00 -.558E-02
   -.774E-01 0.386E+01 -.972E+00   0.141E+00 -.423E+01 0.973E+00   -.348E-01 0.393E+00 -.279E-02
   -.174E+01 0.250E+01 -.132E+01   0.167E+01 -.254E+01 0.132E+01   -.590E-01 0.797E-01 -.195E-02
   -.104E+01 0.190E+01 -.137E+01   0.138E+01 -.190E+01 0.137E+01   -.257E+00 -.726E-01 -.254E-02
   0.438E+01 -.949E+01 -.288E+00   -.479E+01 0.997E+01 0.290E+00   0.362E+00 -.435E+00 -.762E-03
   -.119E+01 -.280E+01 -.667E+00   0.127E+01 0.308E+01 0.664E+00   -.158E+00 -.300E+00 0.227E-02
   0.683E+01 -.165E+01 -.167E+01   -.668E+01 0.182E+01 0.167E+01   -.446E-01 -.151E+00 -.225E-02
   0.119E+01 -.400E+01 -.109E+01   -.128E+01 0.419E+01 0.109E+01   0.122E+00 -.134E+00 -.313E-03
   0.778E+01 -.481E+01 -.422E+00   -.850E+01 0.483E+01 0.424E+00   0.766E+00 -.782E-01 0.925E-03
   0.668E+01 -.794E+00 -.496E+00   -.695E+01 0.117E+01 0.492E+00   0.202E+00 -.299E+00 0.465E-02
   -.532E+00 -.287E+01 -.976E+00   0.492E+00 0.289E+01 0.975E+00   -.217E-01 -.615E-01 0.173E-02
   0.184E+00 -.551E+01 -.545E+00   -.340E+00 0.554E+01 0.544E+00   0.922E-01 -.679E-01 0.259E-02
   0.739E+01 0.318E+01 -.959E+00   -.773E+01 -.317E+01 0.956E+00   0.307E+00 0.632E-01 0.131E-02
   0.517E+01 -.167E+01 -.620E+00   -.529E+01 0.152E+01 0.623E+00   0.171E+00 0.115E+00 -.144E-02
   -.715E+01 0.105E+01 -.511E+00   0.728E+01 -.104E+01 0.513E+00   -.118E+00 0.416E-01 -.661E-03
   -.377E+02 0.314E+02 0.229E+01   0.434E+02 -.311E+02 -.238E+01   -.629E+01 -.259E+00 0.100E+00
   -.578E+02 -.268E+02 0.294E+00   0.666E+02 0.266E+02 -.407E+00   -.893E+01 0.135E-01 0.101E+00
   0.340E+02 -.504E+01 0.981E+00   -.376E+02 0.100E+02 -.999E+00   0.400E+01 -.537E+01 0.246E-01
   0.578E+02 0.955E+01 0.363E+00   -.676E+02 -.913E+01 -.396E+00   0.993E+01 -.278E+00 0.292E-01
   0.382E+02 0.305E+02 -.687E+00   -.419E+02 -.371E+02 0.675E+00   0.395E+01 0.667E+01 0.909E-02
   0.593E+02 -.389E+02 0.230E+01   -.794E+02 0.411E+02 -.245E+01   0.192E+02 -.221E+01 0.144E+00
   -.100E+03 -.331E+02 0.101E+02   0.121E+03 0.337E+02 -.105E+02   -.199E+02 -.598E-01 0.451E+00
   -.165E+02 0.138E+02 0.828E+01   0.127E+02 -.146E+02 -.823E+01   0.403E+01 0.134E+01 -.488E-01
   -.221E+02 -.190E+02 0.798E+01   0.224E+02 0.199E+02 -.781E+01   -.399E+00 -.150E+01 -.174E+00
 -----------------------------------------------------------------------------------------------
   -.386E+01 -.479E+00 -.618E+00   0.817E-12 -.853E-13 0.444E-14   0.398E+01 0.623E+00 0.549E+00
 
 
 POSITION                                       TOTAL-FORCE (eV/Angst)
 -----------------------------------------------------------------------------------
      2.95421      0.00425      9.80020         0.101726      0.050335     -0.000096
      0.74160      1.23002      9.80346        -0.007801     -0.042327      0.000135
      1.48202      0.00404      9.80238        -0.122449     -0.007499      0.001189
      3.67204      1.26089      9.79633        -0.052706     -0.096121      0.002932
      2.90946      2.49950      9.79543        -0.034490      0.100796      0.001870
      0.67422      3.68383      9.80590         0.140709      0.089554     -0.001306
      1.45371      2.47288      9.80170        -0.010948      0.057139      0.000503
      2.73579      4.92622      9.79687         0.136448     -0.457600     -0.002904
      0.62723      6.17951      9.80976        -0.109728     -0.036690     -0.003085
      1.33190      4.93279      9.80614        -0.077423     -0.112328     -0.003888
      3.43016      6.17423      9.78983         1.062036     -0.133611     -0.019373
      2.73465      7.43655      9.80117        -0.059957      0.361122     -0.006026
      0.66433      8.67205      9.80843         0.081536     -0.095019     -0.000288
      1.32713      7.42238      9.80873         0.038504      0.102453     -0.005631
      2.88125      9.87012      9.80276        -0.104249     -0.027273     -0.003767
      0.72347     11.13526      9.80508        -0.022834      0.042021      0.001753
      1.43041      9.89349      9.80584         0.058954     -0.038677      0.000954
      3.66171     11.10603      9.80147        -0.028330      0.026918     -0.002169
      7.31178      0.01579      9.80316         0.017393      0.045275     -0.003028
      5.14309      1.27295      9.79605         0.092961      0.060489      0.001737
      5.85849      0.01190      9.80065         0.025606     -0.024877     -0.000880
      8.05474      1.24417      9.80226         0.046716     -0.041017     -0.001209
      7.33401      2.47924      9.79636        -0.285484     -0.198082      0.001861
      8.08946      3.73906      9.79602        -0.206278      0.512415     -0.000514
      8.05440      6.16062      9.79517         0.011561     -0.069031      0.000760
      8.07855      8.63287      9.80101        -0.014227     -0.259614     -0.001855
      7.33804      9.91396      9.80285        -0.178943      0.221445     -0.002552
      5.13840     11.09989      9.80138         0.116764      0.051891     -0.002850
      8.05174     11.14730      9.80558         0.029745     -0.048724     -0.003247
     11.67667      0.01204      9.80627         0.083512      0.001613     -0.000427
      9.49541      1.23582      9.80544        -0.017769     -0.059210     -0.003504
     10.22895      0.01134      9.80671        -0.078142      0.006865     -0.002916
     12.40450      1.23755      9.80596        -0.015063     -0.043904     -0.001089
     11.65450      2.46130      9.80693        -0.040222      0.038085     -0.002045
      9.51403      3.70759      9.80247         0.087826      0.021343     -0.000360
     10.22203      2.46438      9.80560         0.025203      0.036634     -0.002724
     12.35651      3.69788      9.80770        -0.139666      0.043839     -0.001856
     11.64207      4.93809      9.80793         0.064547     -0.071248     -0.001393
      9.49531      6.17442      9.80154        -0.035306      0.012408      0.000818
     10.21864      4.94383      9.80415        -0.093456     -0.038801     -0.000709
     12.33346      6.18702      9.80937         0.112917      0.013416     -0.001067
     11.63172      7.43181      9.80771         0.037338      0.051456      0.000453
      9.50639      8.66324      9.80378         0.072898     -0.065324      0.003040
     10.20483      7.42247      9.80436        -0.048980      0.067948      0.001038
     12.34558      8.67274      9.80779        -0.062302     -0.035452      0.001687
     11.64585      9.91280      9.80652        -0.058578     -0.046437      0.002232
      9.49044     11.14332      9.80665        -0.011297      0.075198     -0.001758
     10.21579      9.90654      9.80587         0.064191     -0.033958      0.001188
     12.39045     11.14092      9.80619        -0.002129      0.056449      0.001579
      3.55480      3.77624      9.78890        -0.952986      0.035335      0.013905
      3.51490      8.60078      9.79713        -0.683522     -0.185865     -0.006945
      5.90381      2.48831      9.79227         0.588232     -0.625997      0.007676
      7.35678      7.41253      9.79512         0.637032      0.136361     -0.002538
      5.91975      9.89821      9.80012         0.457897      0.459609     -0.002368
      7.39425      4.91650      9.79008         0.771704     -0.247558      0.010315
      4.74569      6.12284      9.77050        -0.946551      0.550689      0.012443
      5.43107      4.35865      9.77888        -0.267292      0.035416      0.013055
      5.41644      7.98524      9.78021        -0.194849     -0.222272      0.013247
 -----------------------------------------------------------------------------------
    total drift:                               -0.002033     -0.002868     -0.000669


--------------------------------------------------------------------------------------------------------



  FREE ENERGIE OF THE ION-ELECTRON SYSTEM (eV)
  ---------------------------------------------------
  free  energy   TOTEN  =      -609.21800308 eV

  energy  without entropy=     -609.21800304  energy(sigma->0) =     -609.21800306
 


--------------------------------------------------------------------------------------------------------


    POTLOK:  cpu time    3.2971: real time    3.2975


--------------------------------------------------------------------------------------------------------


 stress matrix after NEB project (eV)
    -42.86695      0.39350      0.02509
      0.39484    -42.65109     -0.00614
      0.02496     -0.00614     -0.32587
  FORCES: max atom, RMS     1.095159    0.358065
  FORCE total and by dimension    2.726939    1.062036
  Stress total and by dimension   60.474036   42.866949
 writing wavefunctions
     LOOP+:  cpu time30742.0863: real time30747.1624
    4ORBIT:  cpu time    0.0000: real time    0.0000
 


 total charge     
 
# of ion       s       p       d       tot
------------------------------------------
    1        0.855   1.716   0.000   2.571
    2        0.861   1.749   0.000   2.611
    3        0.859   1.730   0.000   2.589
    4        0.857   1.701   0.000   2.558
    5        0.856   1.728   0.000   2.585
    6        0.867   1.774   0.000   2.641
    7        0.861   1.735   0.000   2.596
    8        0.885   1.802   0.000   2.687
    9        0.869   1.787   0.000   2.656
   10        0.876   1.789   0.000   2.665
   11        0.895   1.746   0.000   2.641
   12        0.882   1.797   0.000   2.680
   13        0.866   1.769   0.000   2.635
   14        0.875   1.791   0.000   2.666
   15        0.859   1.731   0.000   2.590
   16        0.862   1.753   0.000   2.615
   17        0.863   1.738   0.000   2.602
   18        0.856   1.694   0.000   2.550
   19        0.860   1.742   0.000   2.602
   20        0.854   1.716   0.000   2.569
   21        0.859   1.715   0.000   2.574
   22        0.865   1.750   0.000   2.615
   23        0.864   1.740   0.000   2.604
   24        0.866   1.714   0.000   2.580
   25        0.853   1.692   0.000   2.546
   26        0.870   1.725   0.000   2.595
   27        0.870   1.735   0.000   2.605
   28        0.853   1.709   0.000   2.562
   29        0.867   1.756   0.000   2.623
   30        0.864   1.760   0.000   2.625
   31        0.864   1.764   0.000   2.628
   32        0.865   1.757   0.000   2.622
   33        0.862   1.751   0.000   2.613
   34        0.865   1.767   0.000   2.632
   35        0.867   1.785   0.000   2.652
   36        0.865   1.762   0.000   2.627
   37        0.868   1.764   0.000   2.632
   38        0.866   1.776   0.000   2.642
   39        0.864   1.762   0.000   2.627
   40        0.872   1.765   0.000   2.636
   41        0.871   1.781   0.000   2.652
   42        0.866   1.769   0.000   2.634
   43        0.869   1.771   0.000   2.640
   44        0.866   1.767   0.000   2.633
   45        0.867   1.765   0.000   2.632
   46        0.865   1.766   0.000   2.632
   47        0.865   1.761   0.000   2.626
   48        0.866   1.758   0.000   2.624
   49        0.863   1.754   0.000   2.616
   50        0.875   1.647   0.000   2.522
   51        0.882   1.685   0.000   2.567
   52        0.870   1.661   0.000   2.531
   53        0.871   1.683   0.000   2.553
   54        0.872   1.671   0.000   2.543
   55        1.234   2.642   0.000   3.875
   56        1.259   2.617   0.000   3.876
   57        0.496   0.656   6.043   7.195
   58        0.404   0.503   4.816   5.723
--------------------------------------------------
tot         50.168 100.591  10.858 161.618
 


 magnetization (x)
 
# of ion       s       p       d       tot
------------------------------------------
    1        0.002   0.022   0.000   0.024
    2        0.001   0.018   0.000   0.019
    3       -0.001  -0.015   0.000  -0.016
    4       -0.003  -0.044   0.000  -0.047
    5        0.002   0.021   0.000   0.023
    6        0.001   0.014   0.000   0.015
    7       -0.002  -0.019   0.000  -0.021
    8        0.002   0.028   0.000   0.029
    9        0.002   0.033   0.000   0.035
   10       -0.002  -0.023   0.000  -0.026
   11        0.002   0.007   0.000   0.009
   12        0.004   0.039   0.000   0.042
   13        0.002   0.019   0.000   0.021
   14       -0.002  -0.023   0.000  -0.026
   15        0.003   0.032   0.000   0.035
   16        0.001   0.018   0.000   0.020
   17       -0.002  -0.021   0.000  -0.024
   18       -0.004  -0.048   0.000  -0.052
   19        0.002   0.027   0.000   0.029
   20        0.003   0.031   0.000   0.034
   21       -0.003  -0.024   0.000  -0.028
   22       -0.002  -0.026   0.000  -0.028
   23        0.005   0.042   0.000   0.047
   24       -0.001  -0.016   0.000  -0.017
   25       -0.000  -0.004   0.000  -0.004
   26        0.001  -0.003   0.000  -0.002
   27        0.006   0.043   0.000   0.049
   28        0.003   0.036   0.000   0.039
   29       -0.002  -0.027   0.000  -0.029
   30        0.001   0.014   0.000   0.015
   31        0.002   0.028   0.000   0.030
   32       -0.001  -0.015   0.000  -0.017
   33       -0.001  -0.017   0.000  -0.018
   34        0.001   0.019   0.000   0.020
   35        0.001   0.016   0.000   0.018
   36       -0.002  -0.020   0.000  -0.022
   37       -0.001  -0.015   0.000  -0.016
   38        0.001   0.020   0.000   0.021
   39        0.001   0.015   0.000   0.016
   40       -0.001  -0.011   0.000  -0.012
   41       -0.001  -0.014   0.000  -0.016
   42        0.001   0.020   0.000   0.022
   43        0.001   0.014   0.000   0.015
   44       -0.001  -0.006   0.000  -0.007
   45       -0.001  -0.014   0.000  -0.015
   46        0.001   0.019   0.000   0.020
   47        0.002   0.028   0.000   0.030
   48       -0.002  -0.019   0.000  -0.021
   49       -0.001  -0.016   0.000  -0.018
   50       -0.019  -0.087   0.000  -0.106
   51       -0.017  -0.086   0.000  -0.103
   52       -0.016  -0.093   0.000  -0.109
   53       -0.009  -0.015   0.000  -0.023
   54       -0.019  -0.108   0.000  -0.127
   55        0.000   0.036   0.000   0.036
   56       -0.004   0.014   0.000   0.010
   57        0.061   0.022   2.876   2.958
   58        0.065   0.040   3.731   3.836
--------------------------------------------------
tot          0.060  -0.096   6.607   6.571
 

 total amount of memory used by VASP MPI-rank0   173134. kBytes
=======================================================================

   base      :      30000. kBytes
   nonl-proj :       5312. kBytes
   fftplans  :      12934. kBytes
   grid      :      33177. kBytes
   one-center:         62. kBytes
   HF        :         23. kBytes
   nonlr-proj:      15342. kBytes
   wavefun   :      76284. kBytes
 
  
  
 General timing and accounting informations for this job:
 ========================================================
  
                  Total CPU time used (sec):    30828.057
                            User time (sec):    30780.860
                          System time (sec):       47.197
                         Elapsed time (sec):    30834.889
  
                   Maximum memory used (kb):      413892.
                   Average memory used (kb):           0.
  
                          Minor page faults:       344273
                          Major page faults:            0
                 Voluntary context switches:         1315
