 vasp.5.4.4.18Apr17-6-g9f103f2a35 (build Feb 25 2019 10:51:38) complex          
  
 executed on             LinuxIFC date 2021.08.06  10:51:02
 running on   32 total cores
 distrk:  each k-point on   32 cores,    1 groups
 distr:  one band on NCORES_PER_BAND=  32 cores,    1 groups


--------------------------------------------------------------------------------------------------------


 INCAR:
 POTCAR:    PAW_PBE C 08Apr2002                   
 POTCAR:    PAW_PBE N 08Apr2002                   
 POTCAR:    PAW_PBE Ni 02Aug2007                  
 POTCAR:    PAW_PBE Fe 06Sep2000                  

 ----------------------------------------------------------------------------- 
|                                                                             |
|           W    W    AA    RRRRR   N    N  II  N    N   GGGG   !!!           |
|           W    W   A  A   R    R  NN   N  II  NN   N  G    G  !!!           |
|           W    W  A    A  R    R  N N  N  II  N N  N  G       !!!           |
|           W WW W  AAAAAA  RRRRR   N  N N  II  N  N N  G  GGG   !            |
|           WW  WW  A    A  R   R   N   NN  II  N   NN  G    G                |
|           W    W  A    A  R    R  N    N  II  N    N   GGGG   !!!           |
|                                                                             |
|      For optimal performance we recommend to set                            |
|        NCORE= 4 - approx SQRT( number of cores)                             |
|      NCORE specifies how many cores store one orbital (NPAR=cpu/NCORE).     |
|      This setting can  greatly improve the performance of VASP for DFT.     |
|      The default,   NCORE=1            might be grossly inefficient         |
|      on modern multi-core architectures or massively parallel machines.     |
|      Do your own testing !!!!                                               |
|      Unfortunately you need to use the default for GW and RPA calculations. |
|      (for HF NCORE is supported but not extensively tested yet)             |
|                                                                             |
 ----------------------------------------------------------------------------- 

 POTCAR:    PAW_PBE C 08Apr2002                   
   VRHFIN =C: s2p2                                                              
   LEXCH  = PE                                                                  
   EATOM  =   147.1560 eV,   10.8157 Ry                                         
                                                                                
   TITEL  = PAW_PBE C 08Apr2002                                                 
   LULTRA =        F    use ultrasoft PP ?                                      
   IUNSCR =        1    unscreen: 0-lin 1-nonlin 2-no                           
   RPACOR =    1.200    partial core radius                                     
   POMASS =   12.011; ZVAL   =    4.000    mass and valenz                      
   RCORE  =    1.500    outmost cutoff radius                                   
   RWIGS  =    1.630; RWIGS  =    0.863    wigner-seitz radius (au A)           
   ENMAX  =  400.000; ENMIN  =  300.000 eV                                      
   ICORE  =        2    local potential                                         
   LCOR   =        T    correct aug charges                                     
   LPAW   =        T    paw PP                                                  
   EAUG   =  644.873                                                            
   DEXC   =    0.000                                                            
   RMAX   =    1.529    core radius for proj-oper                               
   RAUG   =    1.300    factor for augmentation sphere                          
   RDEP   =    1.501    radius for radial grids                                 
   RDEPT  =    1.300    core radius for aug-charge                              
                                                                                
   Atomic configuration                                                         
    4 entries                                                                   
     n  l   j            E        occ.                                          
     1  0  0.50      -273.3789   2.0000                                         
     2  0  0.50       -13.7508   2.0000                                         
     2  1  0.50        -5.2854   2.0000                                         
     3  2  1.50        -5.4423   0.0000                                         
   Description                                                                  
     l       E           TYP  RCUT    TYP  RCUT                                 
     0    -13.7508458     23  1.200                                             
     0     -8.2022199     23  1.200                                             
     1     -5.2854383     23  1.500                                             
     1     34.0145650     23  1.500                                             
     2     -5.4423304      7  1.500                                             
  local pseudopotential read in
  partial core-charges read in
  partial kinetic energy density read in
  atomic valenz-charges read in
  non local Contribution for L=           0  read in
    real space projection operators read in
  non local Contribution for L=           0  read in
    real space projection operators read in
  non local Contribution for L=           1  read in
    real space projection operators read in
  non local Contribution for L=           1  read in
    real space projection operators read in
    PAW grid and wavefunctions read in
 
   number of l-projection  operators is LMAX  =           4
   number of lm-projection operators is LMMAX =           8
 
 POTCAR:    PAW_PBE N 08Apr2002                   
   VRHFIN =N: s2p3                                                              
   LEXCH  = PE                                                                  
   EATOM  =   264.5486 eV,   19.4438 Ry                                         
                                                                                
   TITEL  = PAW_PBE N 08Apr2002                                                 
   LULTRA =        F    use ultrasoft PP ?                                      
   IUNSCR =        1    unscreen: 0-lin 1-nonlin 2-no                           
   RPACOR =    1.200    partial core radius                                     
   POMASS =   14.001; ZVAL   =    5.000    mass and valenz                      
   RCORE  =    1.500    outmost cutoff radius                                   
   RWIGS  =    1.400; RWIGS  =    0.741    wigner-seitz radius (au A)           
   ENMAX  =  400.000; ENMIN  =  300.000 eV                                      
   ICORE  =        2    local potential                                         
   LCOR   =        T    correct aug charges                                     
   LPAW   =        T    paw PP                                                  
   EAUG   =  627.112                                                            
   DEXC   =    0.000                                                            
   RMAX   =    1.529    core radius for proj-oper                               
   RAUG   =    1.300    factor for augmentation sphere                          
   RDEP   =    1.514    radius for radial grids                                 
   RDEPT  =    1.338    core radius for aug-charge                              
                                                                                
   Atomic configuration                                                         
    4 entries                                                                   
     n  l   j            E        occ.                                          
     1  0  0.50      -384.7179   2.0000                                         
     2  0  0.50       -18.5828   2.0000                                         
     2  1  0.50        -7.0898   3.0000                                         
     3  2  1.50        -6.8029   0.0000                                         
   Description                                                                  
     l       E           TYP  RCUT    TYP  RCUT                                 
     0    -18.5828119     23  1.200                                             
     0    -13.5018863     23  1.200                                             
     1     -7.0897853     23  1.500                                             
     1      9.5240782     23  1.500                                             
     2     -6.8029130      7  1.500                                             
  local pseudopotential read in
  partial core-charges read in
  partial kinetic energy density read in
  atomic valenz-charges read in
  non local Contribution for L=           0  read in
    real space projection operators read in
  non local Contribution for L=           0  read in
    real space projection operators read in
  non local Contribution for L=           1  read in
    real space projection operators read in
  non local Contribution for L=           1  read in
    real space projection operators read in
    PAW grid and wavefunctions read in
 
   number of l-projection  operators is LMAX  =           4
   number of lm-projection operators is LMMAX =           8
 
 POTCAR:    PAW_PBE Ni 02Aug2007                  
   VRHFIN =Ni:                                                                  
   LEXCH  = PE                                                                  
   EATOM  =  1077.6739 eV,   79.2068 Ry                                         
                                                                                
   TITEL  = PAW_PBE Ni 02Aug2007                                                
   LULTRA =        F    use ultrasoft PP ?                                      
   IUNSCR =        1    unscreen: 0-lin 1-nonlin 2-no                           
   RPACOR =    2.000    partial core radius                                     
   POMASS =   58.690; ZVAL   =   10.000    mass and valenz                      
   RCORE  =    2.300    outmost cutoff radius                                   
   RWIGS  =    2.430; RWIGS  =    1.286    wigner-seitz radius (au A)           
   ENMAX  =  269.532; ENMIN  =  202.149 eV                                      
   RCLOC  =    1.201    cutoff for local pot                                    
   LCOR   =        T    correct aug charges                                     
   LPAW   =        T    paw PP                                                  
   EAUG   =  544.565                                                            
   DEXC   =    0.000                                                            
   RMAX   =    2.357    core radius for proj-oper                               
   RAUG   =    1.300    factor for augmentation sphere                          
   RDEP   =    2.390    radius for radial grids                                 
   RDEPT  =    1.838    core radius for aug-charge                              
                                                                                
   Atomic configuration                                                         
    9 entries                                                                   
     n  l   j            E        occ.                                          
     1  0  0.50     -8206.4253   2.0000                                         
     2  0  0.50      -976.1748   2.0000                                         
     2  1  1.50      -839.0571   6.0000                                         
     3  0  0.50      -105.9991   2.0000                                         
     3  1  1.50       -66.4603   6.0000                                         
     3  2  2.50        -4.6458   9.0000                                         
     4  0  0.50        -4.4926   1.0000                                         
     4  1  1.50        -4.0817   0.0000                                         
     4  3  2.50        -1.3606   0.0000                                         
   Description                                                                  
     l       E           TYP  RCUT    TYP  RCUT                                 
     2     -4.6457903     23  2.300                                             
     2     -6.0063729     23  2.300                                             
     0     -4.4925590     23  2.300                                             
     0      5.0102601     23  2.300                                             
     1     -2.7211652     23  2.300                                             
     1     16.5183231     23  2.300                                             
  local pseudopotential read in
  partial core-charges read in
  partial kinetic energy density read in
  atomic valenz-charges read in
  non local Contribution for L=           2  read in
    real space projection operators read in
  non local Contribution for L=           2  read in
    real space projection operators read in
  non local Contribution for L=           0  read in
    real space projection operators read in
  non local Contribution for L=           0  read in
    real space projection operators read in
  non local Contribution for L=           1  read in
    real space projection operators read in
  non local Contribution for L=           1  read in
    real space projection operators read in
    PAW grid and wavefunctions read in
 
   number of l-projection  operators is LMAX  =           6
   number of lm-projection operators is LMMAX =          18
 
 POTCAR:    PAW_PBE Fe 06Sep2000                  
   VRHFIN =Fe:  d7 s1                                                           
   LEXCH  = PE                                                                  
   EATOM  =   594.3153 eV,   43.6809 Ry                                         
                                                                                
   TITEL  = PAW_PBE Fe 06Sep2000                                                
   LULTRA =        F    use ultrasoft PP ?                                      
   IUNSCR =        1    unscreen: 0-lin 1-nonlin 2-no                           
   RPACOR =    2.000    partial core radius                                     
   POMASS =   55.847; ZVAL   =    8.000    mass and valenz                      
   RCORE  =    2.300    outmost cutoff radius                                   
   RWIGS  =    2.460; RWIGS  =    1.302    wigner-seitz radius (au A)           
   ENMAX  =  267.882; ENMIN  =  200.911 eV                                      
   RCLOC  =    1.701    cutoff for local pot                                    
   LCOR   =        T    correct aug charges                                     
   LPAW   =        T    paw PP                                                  
   EAUG   =  511.368                                                            
   DEXC   =    0.000                                                            
   RMAX   =    2.356    core radius for proj-oper                               
   RAUG   =    1.300    factor for augmentation sphere                          
   RDEP   =    2.442    radius for radial grids                                 
   RDEPT  =    1.890    core radius for aug-charge                              
                                                                                
   Atomic configuration                                                         
    9 entries                                                                   
     n  l   j            E        occ.                                          
     1  0  0.50     -6993.8440   2.0000                                         
     2  0  0.50      -814.6047   2.0000                                         
     2  1  1.50      -693.3689   6.0000                                         
     3  0  0.50       -89.4732   2.0000                                         
     3  1  1.50       -55.6373   6.0000                                         
     3  2  2.50        -3.8151   7.0000                                         
     4  0  0.50        -4.2551   1.0000                                         
     4  1  1.50        -3.4015   0.0000                                         
     4  3  2.50        -1.3606   0.0000                                         
   Description                                                                  
     l       E           TYP  RCUT    TYP  RCUT                                 
     2     -3.8151135     23  2.300                                             
     2     -5.1756961     23  2.300                                             
     0     -4.2550963     23  2.300                                             
     0      7.2035603     23  2.300                                             
     1     -2.7211652     23  2.300                                             
     1     18.4316424     23  2.300                                             
  local pseudopotential read in
  partial core-charges read in
  partial kinetic energy density read in
  atomic valenz-charges read in
  non local Contribution for L=           2  read in
    real space projection operators read in
  non local Contribution for L=           2  read in
    real space projection operators read in
  non local Contribution for L=           0  read in
    real space projection operators read in
  non local Contribution for L=           0  read in
    real space projection operators read in
  non local Contribution for L=           1  read in
    real space projection operators read in
  non local Contribution for L=           1  read in
    real space projection operators read in
    PAW grid and wavefunctions read in
 
   number of l-projection  operators is LMAX  =           6
   number of lm-projection operators is LMMAX =          18
 

 ----------------------------------------------------------------------------- 
|                                                                             |
|  ADVICE TO THIS USER RUNNING 'VASP/VAMP'   (HEAR YOUR MASTER'S VOICE ...):  |
|                                                                             |
|      You have a (more or less) 'large supercell' and for larger cells       |
|      it might be more efficient to use real space projection opertators     |
|      So try LREAL= Auto  in the INCAR   file.                               |
|      Mind:          For very  accurate calculation you might also keep the  |
|      reciprocal projection scheme          (i.e. LREAL=.FALSE.)             |
|                                                                             |
 ----------------------------------------------------------------------------- 

  PAW_PBE C 08Apr2002                   :
 energy of atom  1       EATOM= -147.1560
 kinetic energy error for atom=    0.0076 (will be added to EATOM!!)
  PAW_PBE N 08Apr2002                   :
 energy of atom  2       EATOM= -264.5486
 kinetic energy error for atom=    0.0138 (will be added to EATOM!!)
  PAW_PBE Ni 02Aug2007                  :
 energy of atom  3       EATOM=-1077.6739
 kinetic energy error for atom=    0.0030 (will be added to EATOM!!)
  PAW_PBE Fe 06Sep2000                  :
 energy of atom  4       EATOM= -594.3153
 kinetic energy error for atom=    0.0026 (will be added to EATOM!!)
 
 
 POSCAR:  C  N Ni Fe                             
  positions in cartesian coordinates
  No initial velocities read in
 exchange correlation table for  LEXCH =        8
   RHO(1)=    0.500       N(1)  =     2000
   RHO(2)=  100.500       N(2)  =     4000

 VTST: version 3.2, (02/03/18)

 CHAIN: initializing optimizer
 
 OPT: Using VASP Conjugate-Gradient optimizer
 CHAIN: Read ICHAIN            0
 
 POSCAR:  C  N Ni Fe                             
  positions in cartesian coordinates
  No initial velocities read in
 


--------------------------------------------------------------------------------------------------------


 ion  position               nearest neighbor table
   1  0.220  1.000  0.500-   3 1.41   4 1.43  20 1.43
   2  0.055  0.101  0.500-  34 1.42   3 1.44   7 1.44
   3  0.109  1.000  0.500-   1 1.41   2 1.44  18 1.44
   4  0.276  0.099  0.500-  22 1.42   5 1.42   1 1.43
   5  0.223  0.199  0.500-   4 1.42   7 1.43   8 1.45
   6  0.056  0.300  0.500-  38 1.43   7 1.43  11 1.44
   7  0.111  0.200  0.500-   5 1.43   6 1.43   2 1.44
   8  0.283  0.298  0.500-  55 1.38   5 1.45   9 1.45
   9  0.226  0.398  0.500-  11 1.44  12 1.45   8 1.45
  10  0.057  0.499  0.500-  42 1.44  15 1.44  11 1.44
  11  0.113  0.399  0.500-   9 1.44   6 1.44  10 1.44
  12  0.281  0.499  0.500-  56 1.33   9 1.45  13 1.46
  13  0.224  0.600  0.500-  15 1.42  16 1.45  12 1.46
  14  0.055  0.700  0.500-  46 1.43  19 1.44  15 1.45
  15  0.113  0.599  0.500-  13 1.42  10 1.44  14 1.45
  16  0.282  0.700  0.500-  53 1.42  13 1.45  17 1.45
  17  0.223  0.800  0.500-  20 1.43  19 1.43  16 1.45
  18  0.055  0.899  0.500-  50 1.42   3 1.44  19 1.44
  19  0.111  0.800  0.500-  17 1.43  14 1.44  18 1.44
  20  0.276  0.900  0.500-  28 1.42  17 1.43   1 1.43
  21  0.555  0.001  0.500-  23 1.42  24 1.42  30 1.43
  22  0.387  0.098  0.500-  26 1.41   4 1.42  23 1.42
  23  0.444  0.000  0.500-  21 1.42  22 1.42  28 1.42
  24  0.610  0.100  0.500-  32 1.42  21 1.42  25 1.42
  25  0.554  0.198  0.500-  51 1.42  24 1.42  26 1.43
  26  0.442  0.196  0.500-  55 1.37  22 1.41  25 1.43
  27  0.556  0.804  0.500-  30 1.41  54 1.42  29 1.43
  28  0.388  0.902  0.500-  29 1.41  20 1.42  23 1.42
  29  0.443  0.805  0.500-  53 1.41  28 1.41  27 1.43
  30  0.611  0.902  0.500-  27 1.41  48 1.42  21 1.43
  31  0.889  0.000  0.500-  33 1.42  34 1.44  50 1.44
  32  0.722  0.100  0.500-  24 1.42  37 1.43  33 1.44
  33  0.778  0.000  0.500-  31 1.42  48 1.43  32 1.44
  34  0.943  0.101  0.500-   2 1.42  35 1.44  31 1.44
  35  0.887  0.201  0.500-  37 1.43  34 1.44  38 1.44
  36  0.717  0.300  0.500-  51 1.42  41 1.45  37 1.45
  37  0.775  0.201  0.500-  32 1.43  35 1.43  36 1.45
  38  0.944  0.300  0.500-   6 1.43  35 1.44  39 1.44
  39  0.887  0.400  0.500-  41 1.43  38 1.44  42 1.44
  40  0.719  0.499  0.500-  52 1.40  41 1.44  45 1.45
  41  0.775  0.399  0.500-  39 1.43  40 1.44  36 1.45
  42  0.944  0.499  0.500-  10 1.44  39 1.44  43 1.45
  43  0.887  0.600  0.500-  45 1.43  46 1.44  42 1.45
  44  0.717  0.700  0.500-  54 1.42  49 1.45  45 1.45
  45  0.775  0.600  0.500-  43 1.43  40 1.45  44 1.45
  46  0.944  0.700  0.500-  14 1.43  47 1.44  43 1.44
  47  0.888  0.799  0.500-  49 1.43  50 1.44  46 1.44
  48  0.722  0.901  0.500-  30 1.42  49 1.43  33 1.43
  49  0.776  0.800  0.500-  47 1.43  48 1.43  44 1.45
  50  0.943  0.899  0.500-  18 1.42  47 1.44  31 1.44
  51  0.605  0.299  0.500-  25 1.42  36 1.42  57 1.92
  52  0.610  0.500  0.500-  40 1.40  58 1.80  57 1.87
  53  0.393  0.705  0.500-  29 1.41  16 1.42  58 1.98
  54  0.606  0.702  0.500-  27 1.42  44 1.42  58 2.00
  55  0.391  0.293  0.500-  26 1.37   8 1.38  57 1.94
  56  0.386  0.502  0.500-  12 1.33  58 1.77  57 1.86
  57  0.496  0.405  0.500-  56 1.86  52 1.87  51 1.92  55 1.94  58 2.27
  58  0.497  0.587  0.500-  56 1.77  52 1.80  53 1.98  54 2.00  57 2.27
 
  LATTYP: Found a triclinic cell.
 ALAT       =    12.7582444246
 B/A-ratio  =     1.4000861470
 C/A-ratio  =     1.5629404500
 COS(alpha) =     0.0000361445
 COS(beta)  =     0.0002382429
 COS(gamma) =     0.7150332924
  
  Lattice vectors:
  
 A1 = (  12.7582420358,   0.0078058453,   0.0001540631)
 A2 = (  12.7647405561,  12.4954132375,  -0.0000027885)
 A3 = (   0.0045120489,  -0.0035745352,  19.9403754511)


Analysis of symmetry for initial positions (statically):
=====================================================================
 Subroutine PRICEL returns:
 Original cell was already a primitive cell.
 

 Routine SETGRP: Setting up the symmetry group for a 
 triclinic supercell.


 Subroutine GETGRP returns: Found  1 space group operations
 (whereof  1 operations were pure point group operations)
 out of a pool of  2 trial point group operations.


The static configuration has the point symmetry C_1 .


Analysis of symmetry for dynamics (positions and initial velocities):
=====================================================================
 Subroutine PRICEL returns:
 Original cell was already a primitive cell.
 

 Routine SETGRP: Setting up the symmetry group for a 
 triclinic supercell.


 Subroutine GETGRP returns: Found  1 space group operations
 (whereof  1 operations were pure point group operations)
 out of a pool of  2 trial point group operations.


The dynamic configuration has the point symmetry C_1 .


Analysis of structural, dynamic, and magnetic symmetry:
=====================================================================
 Subroutine PRICEL returns:
 Original cell was already a primitive cell.
 

 Routine SETGRP: Setting up the symmetry group for a 
 triclinic supercell.


 Subroutine GETGRP returns: Found  1 space group operations
 (whereof  1 operations were pure point group operations)
 out of a pool of  2 trial point group operations.


The magnetic configuration has the point symmetry C_1 .


 Subroutine INISYM returns: Found  1 space group operations
 (whereof  1 operations are pure point group operations),
 and found     1 'primitive' translations

 
 
 KPOINTS: KPOINTS created by Atomic Simulation Env

Automatic generation of k-mesh.
Space group operators:
 irot       det(A)        alpha          n_x          n_y          n_z        tau_x        tau_y        tau_z
    1     1.000000     0.000000     1.000000     0.000000     0.000000     0.000000     0.000000     0.000000
 
 Subroutine IBZKPT returns following result:
 ===========================================
 
 Found      2 irreducible k-points:
 
 Following reciprocal coordinates:
            Coordinates               Weight
  0.250000  0.250000  0.000000      2.000000
 -0.250000  0.250000  0.000000      2.000000
 
 Following cartesian coordinates:
            Coordinates               Weight
  0.019583  0.020010 -0.000001      2.000000
 -0.019607  0.020030  0.000008      2.000000
 
 
 Subroutine IBZKPT_HF returns following result:
 ==============================================
 
 Found      4 k-points in 1st BZ
 the following      4 k-points will be used (e.g. in the exchange kernel)
 Following reciprocal coordinates:   # in IRBZ
  0.250000  0.250000  0.000000    0.25000000   1 t-inv F
 -0.250000  0.250000  0.000000    0.25000000   2 t-inv F
 -0.250000 -0.250000 -0.000000    0.25000000   1 t-inv T
  0.250000 -0.250000  0.000000    0.25000000   2 t-inv T


--------------------------------------------------------------------------------------------------------




 Dimension of arrays:
   k-points           NKPTS =      2   k-points in BZ     NKDIM =      4   number of bands    NBANDS=    156
   number of dos      NEDOS =    301   number of ions     NIONS =     58
   non local maximal  LDIM  =      6   non local SUM 2l+1 LMDIM =     18
   total plane-waves  NPLWV = ******
   max r-space proj   IRMAX =      1   max aug-charges    IRDMAX=  15698
   dimension x,y,z NGX =    96 NGY =   96 NGZ =  150
   dimension x,y,z NGXF=   192 NGYF=  192 NGZF=  300
   support grid    NGXF=   192 NGYF=  192 NGZF=  300
   ions per type =              54   2   1   1
   NGX,Y,Z   is equivalent  to a cutoff of  12.51, 12.78, 12.51 a.u.
   NGXF,Y,Z  is equivalent  to a cutoff of  25.02, 25.56, 25.01 a.u.

 SYSTEM =  unknown system                          
 POSCAR =   C  N Ni Fe                             

 Startparameter for this run:
   NWRITE =      2    write-flag & timer
   PREC   = accura    normal or accurate (medium, high low for compatibility)
   ISTART =      1    job   : 0-new  1-cont  2-samecut
   ICHARG =      0    charge: 1-file 2-atom 10-const
   ISPIN  =      2    spin polarized calculation?
   LNONCOLLINEAR =      F non collinear calculations
   LSORBIT =      F    spin-orbit coupling
   INIWAV =      1    electr: 0-lowe 1-rand  2-diag
   LASPH  =      T    aspherical Exc in radial PAW
   METAGGA=      F    non-selfconsistent MetaGGA calc.

 Electronic Relaxation 1
   ENCUT  =  500.0 eV  36.75 Ry    6.06 a.u.  23.26 22.77 36.36*2*pi/ulx,y,z
   ENINI  =  500.0     initial cutoff
   ENAUG  =  644.9 eV  augmentation charge cutoff
   NELM   =    250;   NELMIN=  2; NELMDL=  0     # of ELM steps 
   EDIFF  = 0.1E-03   stopping-criterion for ELM
   LREAL  =      F    real-space projection
   NLSPLINE    = F    spline interpolate recip. space projectors
   LCOMPAT=      F    compatible to vasp.4.4
   GGA_COMPAT  = T    GGA compatible to vasp.4.4-vasp.4.6
   LMAXPAW     = -100 max onsite density
   LMAXMIX     =    2 max onsite mixed and CHGCAR
   VOSKOWN=      0    Vosko Wilk Nusair interpolation
   ROPT   =    0.00000   0.00000   0.00000   0.00000
 Ionic relaxation
   EDIFFG = -.3E-01   stopping-criterion for IOM
   NSW    =      0    number of steps for IOM
   NBLOCK =      1;   KBLOCK =      1    inner block; outer block 
   IBRION =     -1    ionic relax: 0-MD 1-quasi-New 2-CG
   NFREE  =      1    steps in history (QN), initial steepest desc. (CG)
   ISIF   =      2    stress and relaxation
   IWAVPR =     10    prediction:  0-non 1-charg 2-wave 3-comb
   ISYM   =      3    0-nonsym 1-usesym 2-fastsym
   LCORR  =      T    Harris-Foulkes like correction to forces

   POTIM  = 0.5000    time-step for ionic-motion
   TEIN   =    0.0    initial temperature
   TEBEG  =    0.0;   TEEND  =   0.0 temperature during run
   SMASS  =  -3.00    Nose mass-parameter (am)
   estimated Nose-frequenzy (Omega)   =  0.10E-29 period in steps =****** mass=  -0.372E-26a.u.
   SCALEE = 1.0000    scale energy and forces
   NPACO  =    256;   APACO  = 16.0  distance and # of slots for P.C.
   PSTRESS=    0.0 pullay stress

  Mass of Ions in am
   POMASS =  12.01 14.00 58.69 55.85
  Ionic Valenz
   ZVAL   =   4.00  5.00 10.00  8.00
  Atomic Wigner-Seitz radii
   RWIGS  =  -1.00 -1.00 -1.00 -1.00
  virtual crystal weights 
   VCA    =   1.00  1.00  1.00  1.00
   NELECT =     244.0000    total number of electrons
   NUPDOWN=      -1.0000    fix difference up-down

 DOS related values:
   EMIN   =  10.00;   EMAX   =-10.00  energy-range for DOS
   EFERMI =   0.00
   ISMEAR =     0;   SIGMA  =   0.10  broadening in eV -4-tet -1-fermi 0-gaus

 Electronic relaxation 2 (details)
   IALGO  =     53    algorithm
   LDIAG  =      T    sub-space diagonalisation (order eigenvalues)
   LSUBROT=      F    optimize rotation matrix (better conditioning)
   TURBO    =      0    0=normal 1=particle mesh
   IRESTART =      0    0=no restart 2=restart with 2 vectors
   NREBOOT  =      0    no. of reboots
   NMIN     =      0    reboot dimension
   EREF     =   0.00    reference energy to select bands
   IMIX   =      4    mixing-type and parameters
     AMIX     =   0.40;   BMIX     =  1.00
     AMIX_MAG =   1.60;   BMIX_MAG =  1.00
     AMIN     =   0.10
     WC   =   100.;   INIMIX=   1;  MIXPRE=   1;  MAXMIX= -45

 Intra band minimization:
   WEIMIN = 0.0000     energy-eigenvalue tresh-hold
   EBREAK =  0.16E-06  absolut break condition
   DEPER  =   0.30     relativ break condition  

   TIME   =   0.20     timestep for ELM

  volume/ion in A,a.u.               =      54.77       369.63
  Fermi-wavevector in a.u.,A,eV,Ry     =   0.695884  1.315031  6.588688  0.484255
  Thomas-Fermi vector in A             =   1.778781
 
 Write flags
   LWAVE        =      T    write WAVECAR
   LDOWNSAMPLE  =      F    k-point downsampling of WAVECAR
   LCHARG       =      T    write CHGCAR
   LVTOT        =      F    write LOCPOT, total local potential
   LVHAR        =      F    write LOCPOT, Hartree potential only
   LELF         =      F    write electronic localiz. function (ELF)
   LORBIT       =     11    0 simple, 1 ext, 2 COOP (PROOUT), +10 PAW based schemes


 Dipole corrections
   LMONO  =      F    monopole corrections only (constant potential shift)
   LDIPOL =      T    correct potential (dipole corrections)
   IDIPOL =      3    1-x, 2-y, 3-z, 4-all directions 
   EPSILON=  1.0000000 bulk dielectric constant

 Exchange correlation treatment:
   GGA     =    PE    GGA type
   LEXCH   =     8    internal setting for exchange type
   VOSKOWN=      0    Vosko Wilk Nusair interpolation
   EXXOEP  =     0    0=HF, 1=EXX-LHF (local Hartree Fock) 2=EXX OEP
   LHFCALC =     T    Hartree Fock is set to
   LSYMGRAD=     F    symmetrize gradient (conserves proper symmetry)
   PRECFOCK=normal    Normal, Fast or Accurate (Low or Medium for compatibility)
   LRHFCALC=     F    long range Hartree Fock
   LRSCOR  =     F    long range correlation only (use DFT for short range part)
   LTHOMAS =     F    Thomas Fermi screening in HF
   LMODELHF=     F    short range full HF, long range fraction AEXX
   ENCUT4O =  -1.0   cutoff for four orbital integrals eV
   LMAXFOCK=     4    L truncation for augmentation on plane wave grid
   LMAXFOCKAE=  -1    L truncation for all-electron charge restoration on plane wave grid
   NMAXFOCKAE=   1    number of basis functions for all-electron charge restoration
   LFOCKAEDFT=     F  apply the AE augmentation even for DFT
   NKREDX  =     1    reduce k-point grid by
   NKREDY  =     1    reduce k-point grid by
   NKREDZ  =     1    reduce k-point grid by
   SHIFTRED=     F    shift reduced grid of Gamma
   HFKIDENT=     F    idential grid for each k-point
   ODDONLY =     F    use only odd q-grid points
   EVENONLY=     F    use only even q-grid points
   HFALPHA =   -1.0000 decay constant for conv. correction
   MCALPHA =    0.0000 extent of test-charge in conv. correction in multipole expansion
   AEXX    =    0.2500 exact exchange contribution
   HFSCREEN=    0.2000 screening length (either q_TF or 0.3 A-1)
   HFSCREENC=   0.2000 screening length for correlation (either q_TF or 0.3 A-1)
   HFRCUT  =    0.0000 spherical cutoff for potential kernel
   ALDAX   =    0.7500 LDA exchange part
   AGGAX   =    0.7500 GGA exchange part
   ALDAC   =    1.0000 LDA correlation
   AGGAC   =    1.0000 GGA correlation
   ENCUTFOCK=  -1.0 apply spherical cutoff to Coloumb kernel
   NBANDSGWLOW=     1    first orbital included in HF term
   NBLOCK_FOCK=    64    blocking factor in FOCK_ACC
 Linear response parameters
   LEPSILON=     F    determine dielectric tensor
   LRPA    =     F    only Hartree local field effects (RPA)
   LNABLA  =     F    use nabla operator in PAW spheres
   LVEL    =     F    velocity operator in full k-point grid
   LINTERFAST=   F  fast interpolation
   KINTER  =     0    interpolate to denser k-point grid
   CSHIFT  =0.1000    complex shift for real part using Kramers Kronig
   OMEGAMAX=  -1.0    maximum frequency
   DEG_THRESHOLD= 0.2000000E-02 threshold for treating states as degnerate
   RTIME   =   -0.100 relaxation time in fs
  (WPLASMAI=    0.000 imaginary part of plasma frequency in eV, 0.658/RTIME)
   DFIELD  = 0.0000000 0.0000000 0.0000000 field for delta impulse in time
 
 Orbital magnetization related:
   ORBITALMAG=     F  switch on orbital magnetization
   LCHIMAG   =     F  perturbation theory with respect to B field
   DQ        =  0.001000  dq finite difference perturbation B field
   LLRAUG    =     F  two centre corrections for induced B field



--------------------------------------------------------------------------------------------------------


 Static calculation
 charge density and potential will be updated during run
 spin polarized calculation
 Conjugate gradient for all bands (Freysoldt, et al. PRB 79, 241103 (2009))
 perform sub-space diagonalisation
    before iterative eigenvector-optimisation
 modified Broyden-mixing scheme, WC =      100.0
 initial mixing is a Kerker type mixing with AMIX =  0.4000 and BMIX =      1.0000
 Hartree-type preconditioning will be used
 using additional bands           34
 reciprocal scheme for non local part
 use partial core corrections
 no Harris-corrections to forces 
 use gradient corrections 
 use of overlap-Matrix (Vanderbilt PP)
 Gauss-broadening in eV      SIGMA  =   0.10


--------------------------------------------------------------------------------------------------------


  energy-cutoff  :      500.00
  volume of cell :     3176.90
      direct lattice vectors                 reciprocal lattice vectors
    12.758242036  0.007805845  0.000154063     0.078380730 -0.000040789 -0.000017743
     0.006498520 12.487607392 -0.000156852    -0.000048995  0.080079417  0.000014366
     0.004512049 -0.003574535 19.940375451    -0.000000606  0.000000630  0.050149507

  length of vectors
    12.758244425 12.487609084 19.940376282     0.078380742  0.080079433  0.050149507


 
 old parameters found on file WAVECAR:
  energy-cutoff  :      500.00
  volume of cell :     3176.90
      direct lattice vectors                 reciprocal lattice vectors
    12.663600000  0.000000000  0.000000000     0.078966487  0.000007580 -0.000016675
    -0.001200259 12.503599942  0.000000000     0.000000000  0.079976967  0.000013259
     0.004237149 -0.003326281 20.063699277     0.000000000  0.000000000  0.049841257

  length of vectors

 
 k-points in units of 2pi/SCALE and weight: KPOINTS created by Atomic Simulation Env
   0.01958293  0.02000966 -0.00000084       0.500
  -0.01960743  0.02003005  0.00000803       0.500
 
 k-points in reciprocal lattice and weights: KPOINTS created by Atomic Simulation Env
   0.25000000  0.25000000  0.00000000       0.500
  -0.25000000  0.25000000  0.00000000       0.500
 
 position of ions in fractional coordinates (direct lattice) 
   0.22023626  0.99961960  0.50001788
   0.05494576  0.10060445  0.50001600
   0.10942090  0.99992714  0.50000911
   0.27598237  0.09888685  0.49999627
   0.22313236  0.19935407  0.49996581
   0.05580147  0.30008248  0.50001112
   0.11110608  0.20024447  0.50000491
   0.28300941  0.29764097  0.49987454
   0.22617351  0.39833395  0.49989139
   0.05650919  0.49922228  0.50000890
   0.11348312  0.39922908  0.49998025
   0.28138443  0.49944432  0.49983617
   0.22434430  0.60042668  0.49995036
   0.05543313  0.69951433  0.50002246
   0.11277700  0.59942420  0.50000559
   0.28188095  0.70045510  0.49998068
   0.22295311  0.79982977  0.50001519
   0.05473713  0.89935364  0.50000398
   0.11098535  0.79951841  0.50001128
   0.27629268  0.90029756  0.50002828
   0.55496830  0.00080189  0.50004190
   0.38714353  0.09846219  0.49999204
   0.44385523  0.00048722  0.50004234
   0.61006146  0.09982422  0.49998921
   0.55391983  0.19844985  0.49988338
   0.44160041  0.19633978  0.49988813
   0.55579409  0.80393356  0.50002209
   0.38758441  0.90227991  0.50004756
   0.44333454  0.80481149  0.50002576
   0.61117267  0.90194380  0.50004712
   0.88852931  0.00021279  0.50001236
   0.72152805  0.10028959  0.49999983
   0.77759498  0.00040510  0.50002263
   0.94330118  0.10071595  0.50001811
   0.88746377  0.20057324  0.50000921
   0.71671999  0.30017673  0.49987246
   0.77515141  0.20066398  0.49996811
   0.94385684  0.30010397  0.50001442
   0.88720350  0.39979423  0.49998644
   0.71909086  0.49928211  0.49984091
   0.77525312  0.39941070  0.49989461
   0.94398438  0.49946704  0.50001078
   0.88690593  0.59958538  0.50000569
   0.71706508  0.70021671  0.49997598
   0.77509556  0.60005269  0.49994425
   0.94371414  0.69956138  0.50002321
   0.88761274  0.79946437  0.50001377
   0.72230327  0.90054958  0.50003104
   0.77563633  0.79962509  0.50001651
   0.94325537  0.89938405  0.50000579
   0.60508148  0.29940099  0.49978473
   0.60974149  0.50026195  0.49969634
   0.39294867  0.70462793  0.49996294
   0.60557188  0.70221770  0.49995115
   0.39099680  0.29329212  0.49979236
   0.38586895  0.50233508  0.49967357
   0.49619676  0.40525290  0.49965279
   0.49672519  0.58688340  0.49972031
 
 position of ions in cartesian coordinates  (Angst):
   2.81857968 12.48278895  9.97042145
   0.70392113  1.25495044  9.97049946
   1.40477247 12.48576432  9.97022932
   3.52394848  1.23522718  9.97014030
   2.85032807  2.48940991  9.96950914
   0.71613480  3.74596047  9.97037094
   1.42107559  2.49965436  9.97027132
   3.61489227  3.71724588  9.96768294
   2.89042051  4.97421654  9.96799438
   0.72645815  6.23274559  9.97029568
   1.45269538  4.98451468  9.96974883
   3.59547154  6.23727434  9.96688593
   2.86839657  7.49785669  9.96913819
   0.71403125  8.73390570  9.97053444
   1.44498772  7.48446715  9.97022251
   3.60311323  8.74742140  9.96973613
   2.85194351  9.98791310  9.97039942
   0.70645008 11.22941519  9.97013456
   1.42342972  9.98315106  9.97030433
   3.53311559 11.24293178  9.97065298
   7.08268131  0.01255832  9.97110858
   4.94216664  1.23079197  9.97007317
   5.66507187  0.00776142  9.97110035
   7.78621646  1.24954048  9.97005096
   7.07058834  2.48070073  9.96791643
   5.63757631  2.45347432  9.96799417
   7.09843607 10.04175774  9.97058771
   4.95301547 11.26855531  9.97105428
   5.66365555 10.05184310  9.97064346
   7.80560642 11.26610329  9.97108006
  11.33832948  0.00780562  9.97057099
   9.20833722  1.25622184  9.97027971
   9.92300373  0.00934120  9.97075868
  12.03777538  1.26327722  9.97067846
  11.32603708  2.50982001  9.97047671
   9.14829320  3.75229695  9.96770782
   9.89312918  2.51007653  9.96963972
  12.04616037  3.75316088  9.97057360
  11.32401101  4.99761155  9.96999137
   9.17983509  6.23866544  9.96704790
   9.89571803  4.99194864  9.96814297
  12.04908311  6.24272960  9.97046983
  11.32151302  7.49252258  9.97034376
   9.15529617  8.74784153  9.96970938
   9.89501198  7.49748556  9.96910126
  12.04693566  8.74142694  9.97068615
  11.33182963  9.98853846  9.97047362
   9.22342832 11.24956034  9.97077674
   9.90320853  9.98967135  9.97051102
  12.04238107 11.23673053  9.97030745
   7.72397664  3.74173871  9.96594137
   7.78473513  6.25004820  9.96414802
   5.02016913  8.80039711  9.96939879
   7.73285184  8.77195881  9.96919687
   4.99259287  3.66378238  9.96606156
   4.92852845  6.27418919  9.96365934
   6.33548640  5.06272628  9.96327704
   6.34340880  7.33086056  9.96459513
 


--------------------------------------------------------------------------------------------------------


 k-point  1 :   0.2500 0.2500 0.0000  plane waves:   80612
 k-point  2 :  -0.2500 0.2500 0.0000  plane waves:   80600

 maximum and minimum number of plane-waves per node :      2554     2479

 maximum number of plane-waves:     80612
 maximum index in each direction: 
   IXMAX=   23   IYMAX=   22   IZMAX=   36
   IXMIN=  -23   IYMIN=  -23   IZMIN=  -36


 parallel 3D FFT for wavefunctions:
    minimum data exchange during FFTs selected (reduces bandwidth)
 parallel 3D FFT for charge:
    minimum data exchange during FFTs selected (reduces bandwidth)


 FFT grid for exact exchange (Hartree Fock) 
  NGX = 70; NGY = 70; NGZ =112

 
 Radii for the augmentation spheres in the non-local exchange
 for species   1 augmentation radius   0.874 (default was   0.699)
       energy cutoff for augmentation   2000.0
 for species   2 augmentation radius   0.886 (default was   0.709)
       energy cutoff for augmentation   2000.0
 for species   3 augmentation radius   1.224 (default was   0.979)
       energy cutoff for augmentation   2000.0
 for species   4 augmentation radius   1.263 (default was   1.010)
       energy cutoff for augmentation   2000.0

 real space projection operators:
  total allocation   :       2410.67 KBytes
  max/ min on nodes  :        129.48         38.18

 Maximum index for augmentation-charges in exchange          137
  SETUP_FOCK is finished

 total amount of memory used by VASP MPI-rank0   165641. kBytes
=======================================================================

   base      :      30000. kBytes
   nonl-proj :       5328. kBytes
   fftplans  :      14250. kBytes
   grid      :      36827. kBytes
   one-center:         62. kBytes
   HF        :         23. kBytes
   nonlr-proj:       1637. kBytes
   wavefun   :      77514. kBytes
 
     INWAV:  cpu time    3.5730: real time    3.5741
 Broyden mixing: mesh for mixing (old mesh)
   NGX = 47   NGY = 45   NGZ = 73
  (NGX  =192   NGY  =192   NGZ  =300)
  gives a total of 154395 points

 charge density for first step will be calculated from the start-wavefunctions


--------------------------------------------------------------------------------------------------------


 Maximum index for augmentation-charges          742 (set IRDMAX)


--------------------------------------------------------------------------------------------------------


 initial charge from wavefunction
 First call to EWALD:  gamma=   0.121
 Maximum number of real-space cells 3x 3x 2
 Maximum number of reciprocal cells 2x 2x 4

    FEWALD:  cpu time    0.0033: real time    0.0033


--------------------------------------- Iteration      1(   1)  ---------------------------------------


    POTLOK:  cpu time    1.3770: real time    1.3777
    SETDIJ:  cpu time    2.0903: real time    2.0909
    TRIAL :  cpu time  521.1770: real time  521.2721
    CORREC:  cpu time    0.0022: real time    0.0024
    CHARGE:  cpu time    1.6671: real time    1.6676
    --------------------------------------------
      LOOP:  cpu time  526.3298: real time  526.4296

 eigenvalue-minimisations  :     0
 total energy-change (2. order) :-0.6025980E+03  (-0.4462302E+00)
 number of electron     243.9999994 magnetization       1.9861978
 augmentation part       15.5818082 magnetization       1.4337578

 DIPCOR: dipole corrections for dipol
 direction  3 min pos     1,
 dipolmoment           0.000000     -0.000000      0.000173 electrons x Angstroem
 Tr[quadrupol]     -6738.018151

 energy correction for charged system         0.000000 eV
 dipol+quadrupol energy correction            0.000000 eV
 added-field ion interaction          0.000000 eV  (added to PSCEN)


 Free energy of the ion-electron system (eV)
  ---------------------------------------------------
  alpha Z        PSCENC =        99.03712712
  Ewald energy   TEWEN  =     39023.75560078
  -Hartree energ DENC   =    -47698.33542949
  -exchange      EXHF   =       548.35765264
  -V(xc)+E(xc)   XCENC  =       624.69045645
  PAW double counting   =     26338.01805703   -26438.49091811
  entropy T*S    EENTRO =        -0.00647257
  eigenvalues    EBANDS =     -3136.54118813
  atomic energy  EATOM  =     10036.92208704
  ---------------------------------------------------
  free energy    TOTEN  =      -602.59800980 eV

  energy without entropy =     -602.59153723  energy(sigma->0) =     -602.59477352
  exchange ACFDT corr.  =        -0.01858978  see jH, gK, PRB 81, 115126


--------------------------------------------------------------------------------------------------------




--------------------------------------- Iteration      1(   2)  ---------------------------------------


    POTLOK:  cpu time    1.3928: real time    1.3932
    SETDIJ:  cpu time    2.0833: real time    2.0835
    TRIAL :  cpu time  519.3939: real time  519.5996
    CORREC:  cpu time    0.0019: real time    0.0021
    CHARGE:  cpu time    1.6701: real time    1.6703
    --------------------------------------------
      LOOP:  cpu time  524.5445: real time  524.7513

 eigenvalue-minimisations  :     0
 total energy-change (2. order) :-0.3380519E+00  (-0.3773906E+00)
 number of electron     243.9999994 magnetization       1.9944549
 augmentation part       15.5721582 magnetization       1.4828464

 DIPCOR: dipole corrections for dipol
 direction  3 min pos     1,
 dipolmoment           0.000000     -0.000000      0.000242 electrons x Angstroem
 Tr[quadrupol]     -6737.834782

 energy correction for charged system         0.000000 eV
 dipol+quadrupol energy correction            0.000000 eV
 added-field ion interaction          0.000000 eV  (added to PSCEN)


 Free energy of the ion-electron system (eV)
  ---------------------------------------------------
  alpha Z        PSCENC =        99.03712712
  Ewald energy   TEWEN  =     39023.75560078
  -Hartree energ DENC   =    -47685.53146766
  -exchange      EXHF   =       548.24389822
  -V(xc)+E(xc)   XCENC  =       624.38024816
  PAW double counting   =     26459.38449472   -26560.07190098
  entropy T*S    EENTRO =        -0.00327994
  eigenvalues    EBANDS =     -3149.04967657
  atomic energy  EATOM  =     10036.92208704
  ---------------------------------------------------
  free energy    TOTEN  =      -602.93606173 eV

  energy without entropy =     -602.93278179  energy(sigma->0) =     -602.93442176
  exchange ACFDT corr.  =        -0.00972813  see jH, gK, PRB 81, 115126


--------------------------------------------------------------------------------------------------------




--------------------------------------- Iteration      1(   3)  ---------------------------------------


    POTLOK:  cpu time    1.4016: real time    1.4017
    SETDIJ:  cpu time    2.0857: real time    2.0857
    TRIAL :  cpu time  519.5444: real time  519.7561
    CORREC:  cpu time    0.0021: real time    0.0023
    CHARGE:  cpu time    1.6658: real time    1.6664
    --------------------------------------------
      LOOP:  cpu time  524.7018: real time  524.9145

 eigenvalue-minimisations  :     0
 total energy-change (2. order) :-0.2918310E+00  (-0.2139053E+00)
 number of electron     243.9999995 magnetization       1.9986760
 augmentation part       15.5528440 magnetization       1.5299347

 DIPCOR: dipole corrections for dipol
 direction  3 min pos     1,
 dipolmoment           0.000000     -0.000000      0.000254 electrons x Angstroem
 Tr[quadrupol]     -6737.648268

 energy correction for charged system         0.000000 eV
 dipol+quadrupol energy correction            0.000000 eV
 added-field ion interaction          0.000000 eV  (added to PSCEN)


 Free energy of the ion-electron system (eV)
  ---------------------------------------------------
  alpha Z        PSCENC =        99.03712712
  Ewald energy   TEWEN  =     39023.75560078
  -Hartree energ DENC   =    -47670.43805741
  -exchange      EXHF   =       548.10338888
  -V(xc)+E(xc)   XCENC  =       623.98155774
  PAW double counting   =     26614.37627710   -26714.60760048
  entropy T*S    EENTRO =        -0.00118819
  eigenvalues    EBANDS =     -3164.35499353
  atomic energy  EATOM  =     10036.92208704
  ---------------------------------------------------
  free energy    TOTEN  =      -603.22789270 eV

  energy without entropy =     -603.22670451  energy(sigma->0) =     -603.22729861
  exchange ACFDT corr.  =        -0.00425311  see jH, gK, PRB 81, 115126


--------------------------------------------------------------------------------------------------------




--------------------------------------- Iteration      1(   4)  ---------------------------------------


    POTLOK:  cpu time    1.4040: real time    1.4046
    SETDIJ:  cpu time    2.0822: real time    2.0826
    TRIAL :  cpu time  519.6737: real time  519.7507
    CORREC:  cpu time    0.0020: real time    0.0022
    CHARGE:  cpu time    1.6685: real time    1.6686
    --------------------------------------------
      LOOP:  cpu time  524.8327: real time  524.9110

 eigenvalue-minimisations  :     0
 total energy-change (2. order) :-0.1598133E+00  (-0.1292227E+00)
 number of electron     243.9999995 magnetization       1.9998344
 augmentation part       15.5480597 magnetization       1.5689789

 DIPCOR: dipole corrections for dipol
 direction  3 min pos     1,
 dipolmoment           0.000000     -0.000000      0.000334 electrons x Angstroem
 Tr[quadrupol]     -6737.564161

 energy correction for charged system         0.000000 eV
 dipol+quadrupol energy correction            0.000000 eV
 added-field ion interaction          0.000000 eV  (added to PSCEN)


 Free energy of the ion-electron system (eV)
  ---------------------------------------------------
  alpha Z        PSCENC =        99.03712712
  Ewald energy   TEWEN  =     39023.75560078
  -Hartree energ DENC   =    -47661.40170365
  -exchange      EXHF   =       548.14993055
  -V(xc)+E(xc)   XCENC  =       623.76974680
  PAW double counting   =     26749.78398084   -26849.31114111
  entropy T*S    EENTRO =        -0.00029430
  eigenvalues    EBANDS =     -3174.09214618
  atomic energy  EATOM  =     10036.92208704
  ---------------------------------------------------
  free energy    TOTEN  =      -603.38770601 eV

  energy without entropy =     -603.38741171  energy(sigma->0) =     -603.38755886
  exchange ACFDT corr.  =        -0.00128324  see jH, gK, PRB 81, 115126


--------------------------------------------------------------------------------------------------------




--------------------------------------- Iteration      1(   5)  ---------------------------------------


    POTLOK:  cpu time    1.4043: real time    1.4045
    SETDIJ:  cpu time    2.0800: real time    2.0801
    TRIAL :  cpu time  519.4368: real time  519.6508
    CORREC:  cpu time    0.0019: real time    0.0019
    CHARGE:  cpu time    1.6647: real time    1.6654
    --------------------------------------------
      LOOP:  cpu time  524.5907: real time  524.8645

 eigenvalue-minimisations  :     0
 total energy-change (2. order) :-0.1031913E+00  (-0.8553374E-01)
 number of electron     243.9999995 magnetization       1.9999830
 augmentation part       15.5585913 magnetization       1.5984605

 DIPCOR: dipole corrections for dipol
 direction  3 min pos     1,
 dipolmoment           0.000000     -0.000000      0.000419 electrons x Angstroem
 Tr[quadrupol]     -6737.587843

 energy correction for charged system         0.000000 eV
 dipol+quadrupol energy correction            0.000000 eV
 added-field ion interaction          0.000000 eV  (added to PSCEN)


 Free energy of the ion-electron system (eV)
  ---------------------------------------------------
  alpha Z        PSCENC =        99.03712712
  Ewald energy   TEWEN  =     39023.75560078
  -Hartree energ DENC   =    -47661.78363033
  -exchange      EXHF   =       548.40034351
  -V(xc)+E(xc)   XCENC  =       623.81963323
  PAW double counting   =     26852.09229931   -26951.54060411
  entropy T*S    EENTRO =        -0.00006631
  eigenvalues    EBANDS =     -3174.19345954
  atomic energy  EATOM  =     10036.92208704
  ---------------------------------------------------
  free energy    TOTEN  =      -603.49089728 eV

  energy without entropy =     -603.49083096  energy(sigma->0) =     -603.49086412
  exchange ACFDT corr.  =        -0.00025724  see jH, gK, PRB 81, 115126


--------------------------------------------------------------------------------------------------------




--------------------------------------- Iteration      1(   6)  ---------------------------------------


    POTLOK:  cpu time    1.4010: real time    1.4016
    SETDIJ:  cpu time    2.0875: real time    2.0878
    TRIAL :  cpu time  519.2250: real time  519.4617
    CORREC:  cpu time    0.0017: real time    0.0019
    CHARGE:  cpu time    1.6650: real time    1.6659
    --------------------------------------------
      LOOP:  cpu time  524.3830: real time  524.6218

 eigenvalue-minimisations  :     0
 total energy-change (2. order) :-0.7148946E-01  (-0.6055232E-01)
 number of electron     243.9999995 magnetization       1.9999983
 augmentation part       15.5688508 magnetization       1.6217426

 DIPCOR: dipole corrections for dipol
 direction  3 min pos     1,
 dipolmoment           0.000000     -0.000000      0.000457 electrons x Angstroem
 Tr[quadrupol]     -6737.652900

 energy correction for charged system         0.000000 eV
 dipol+quadrupol energy correction            0.000000 eV
 added-field ion interaction          0.000000 eV  (added to PSCEN)


 Free energy of the ion-electron system (eV)
  ---------------------------------------------------
  alpha Z        PSCENC =        99.03712712
  Ewald energy   TEWEN  =     39023.75560078
  -Hartree energ DENC   =    -47666.46750529
  -exchange      EXHF   =       548.69751993
  -V(xc)+E(xc)   XCENC  =       623.97793882
  PAW double counting   =     26921.50985106   -27021.20405341
  entropy T*S    EENTRO =        -0.00001577
  eigenvalues    EBANDS =     -3169.79088649
  atomic energy  EATOM  =     10036.92208704
  ---------------------------------------------------
  free energy    TOTEN  =      -603.56238674 eV

  energy without entropy =     -603.56237097  energy(sigma->0) =     -603.56237885
  exchange ACFDT corr.  =        -0.00004733  see jH, gK, PRB 81, 115126


--------------------------------------------------------------------------------------------------------




--------------------------------------- Iteration      1(   7)  ---------------------------------------


    POTLOK:  cpu time    1.3982: real time    1.3987
    SETDIJ:  cpu time    2.1164: real time    2.1169
    TRIAL :  cpu time  519.9778: real time  520.0906
    CORREC:  cpu time    0.0017: real time    0.0019
    CHARGE:  cpu time    1.6685: real time    1.6687
    --------------------------------------------
      LOOP:  cpu time  525.1652: real time  525.2794

 eigenvalue-minimisations  :     0
 total energy-change (2. order) :-0.5243115E-01  (-0.4363463E-01)
 number of electron     243.9999995 magnetization       2.0000000
 augmentation part       15.5728646 magnetization       1.6420917

 DIPCOR: dipole corrections for dipol
 direction  3 min pos     1,
 dipolmoment           0.000000     -0.000000      0.000469 electrons x Angstroem
 Tr[quadrupol]     -6737.705454

 energy correction for charged system         0.000000 eV
 dipol+quadrupol energy correction            0.000000 eV
 added-field ion interaction          0.000000 eV  (added to PSCEN)


 Free energy of the ion-electron system (eV)
  ---------------------------------------------------
  alpha Z        PSCENC =        99.03712712
  Ewald energy   TEWEN  =     39023.75560078
  -Hartree energ DENC   =    -47670.33519347
  -exchange      EXHF   =       548.93305554
  -V(xc)+E(xc)   XCENC  =       624.11495230
  PAW double counting   =     26963.75846280   -27063.57852064
  entropy T*S    EENTRO =        -0.00000389
  eigenvalues    EBANDS =     -3166.22237359
  atomic energy  EATOM  =     10036.92208704
  ---------------------------------------------------
  free energy    TOTEN  =      -603.61481789 eV

  energy without entropy =     -603.61481400  energy(sigma->0) =     -603.61481595
  exchange ACFDT corr.  =        -0.00000951  see jH, gK, PRB 81, 115126


--------------------------------------------------------------------------------------------------------




--------------------------------------- Iteration      1(   8)  ---------------------------------------


    POTLOK:  cpu time    1.3905: real time    1.3909
    SETDIJ:  cpu time    2.0878: real time    2.0879
    TRIAL :  cpu time  520.5488: real time  520.7219
    CORREC:  cpu time    0.0017: real time    0.0019
    CHARGE:  cpu time    1.6654: real time    1.6659
    --------------------------------------------
      LOOP:  cpu time  525.6974: real time  525.8735

 eigenvalue-minimisations  :     0
 total energy-change (2. order) :-0.3823955E-01  (-0.3210733E-01)
 number of electron     243.9999994 magnetization       2.0000002
 augmentation part       15.5745606 magnetization       1.6609168

 DIPCOR: dipole corrections for dipol
 direction  3 min pos     1,
 dipolmoment           0.000000     -0.000000      0.000478 electrons x Angstroem
 Tr[quadrupol]     -6737.730206

 energy correction for charged system         0.000000 eV
 dipol+quadrupol energy correction            0.000000 eV
 added-field ion interaction          0.000000 eV  (added to PSCEN)


 Free energy of the ion-electron system (eV)
  ---------------------------------------------------
  alpha Z        PSCENC =        99.03712712
  Ewald energy   TEWEN  =     39023.75560078
  -Hartree energ DENC   =    -47672.09286756
  -exchange      EXHF   =       549.09070622
  -V(xc)+E(xc)   XCENC  =       624.20050755
  PAW double counting   =     26986.93899647   -27086.75243142
  entropy T*S    EENTRO =        -0.00000101
  eigenvalues    EBANDS =     -3164.75277976
  atomic energy  EATOM  =     10036.92208704
  ---------------------------------------------------
  free energy    TOTEN  =      -603.65305744 eV

  energy without entropy =     -603.65305643  energy(sigma->0) =     -603.65305693
  exchange ACFDT corr.  =        -0.00000203  see jH, gK, PRB 81, 115126


--------------------------------------------------------------------------------------------------------




--------------------------------------- Iteration      1(   9)  ---------------------------------------


    POTLOK:  cpu time    1.3858: real time    1.3864
    SETDIJ:  cpu time    2.0865: real time    2.0867
    TRIAL :  cpu time  519.9815: real time  520.0143
    CORREC:  cpu time    0.0017: real time    0.0019
    CHARGE:  cpu time    1.6653: real time    1.6653
    --------------------------------------------
      LOOP:  cpu time  525.1235: real time  525.1572

 eigenvalue-minimisations  :     0
 total energy-change (2. order) :-0.2873030E-01  (-0.2432128E-01)
 number of electron     243.9999994 magnetization       2.0000003
 augmentation part       15.5769007 magnetization       1.6785315

 DIPCOR: dipole corrections for dipol
 direction  3 min pos     1,
 dipolmoment           0.000000     -0.000000      0.000488 electrons x Angstroem
 Tr[quadrupol]     -6737.735798

 energy correction for charged system         0.000000 eV
 dipol+quadrupol energy correction            0.000000 eV
 added-field ion interaction          0.000000 eV  (added to PSCEN)


 Free energy of the ion-electron system (eV)
  ---------------------------------------------------
  alpha Z        PSCENC =        99.03712712
  Ewald energy   TEWEN  =     39023.75560078
  -Hartree energ DENC   =    -47672.64295670
  -exchange      EXHF   =       549.19468287
  -V(xc)+E(xc)   XCENC  =       624.25301469
  PAW double counting   =     26998.93712877   -27098.76905606
  entropy T*S    EENTRO =        -0.00000030
  eigenvalues    EBANDS =     -3164.36941525
  atomic energy  EATOM  =     10036.92208704
  ---------------------------------------------------
  free energy    TOTEN  =      -603.68178774 eV

  energy without entropy =     -603.68178744  energy(sigma->0) =     -603.68178759
  exchange ACFDT corr.  =        -0.00000047  see jH, gK, PRB 81, 115126


--------------------------------------------------------------------------------------------------------




--------------------------------------- Iteration      1(  10)  ---------------------------------------


    POTLOK:  cpu time    1.3871: real time    1.3871
    SETDIJ:  cpu time    2.1219: real time    2.1219
    TRIAL :  cpu time  520.8648: real time  520.9939
    CORREC:  cpu time    0.0014: real time    0.0016
    CHARGE:  cpu time    1.6646: real time    1.6646
    --------------------------------------------
      LOOP:  cpu time  526.0426: real time  526.1721

 eigenvalue-minimisations  :     0
 total energy-change (2. order) :-0.2198119E-01  (-0.1856111E-01)
 number of electron     243.9999994 magnetization       2.0000003
 augmentation part       15.5792965 magnetization       1.6948744

 DIPCOR: dipole corrections for dipol
 direction  3 min pos     1,
 dipolmoment           0.000000     -0.000000      0.000495 electrons x Angstroem
 Tr[quadrupol]     -6737.733628

 energy correction for charged system         0.000000 eV
 dipol+quadrupol energy correction            0.000000 eV
 added-field ion interaction          0.000000 eV  (added to PSCEN)


 Free energy of the ion-electron system (eV)
  ---------------------------------------------------
  alpha Z        PSCENC =        99.03712712
  Ewald energy   TEWEN  =     39023.75560078
  -Hartree energ DENC   =    -47672.76407472
  -exchange      EXHF   =       549.26623867
  -V(xc)+E(xc)   XCENC  =       624.28783198
  PAW double counting   =     27005.04259518   -27104.94726676
  entropy T*S    EENTRO =        -0.00000010
  eigenvalues    EBANDS =     -3164.30390794
  atomic energy  EATOM  =     10036.92208704
  ---------------------------------------------------
  free energy    TOTEN  =      -603.70376893 eV

  energy without entropy =     -603.70376883  energy(sigma->0) =     -603.70376888
  exchange ACFDT corr.  =        -0.00000012  see jH, gK, PRB 81, 115126


--------------------------------------------------------------------------------------------------------




--------------------------------------- Iteration      1(  11)  ---------------------------------------


    POTLOK:  cpu time    1.3794: real time    1.3794
    SETDIJ:  cpu time    2.0916: real time    2.0916
    TRIAL :  cpu time  520.5352: real time  520.6216
    CORREC:  cpu time    0.0014: real time    0.0017
    CHARGE:  cpu time    1.6662: real time    1.6662
    --------------------------------------------
      LOOP:  cpu time  525.6763: real time  525.7629

 eigenvalue-minimisations  :     0
 total energy-change (2. order) :-0.1698684E-01  (-0.1448486E-01)
 number of electron     243.9999994 magnetization       2.0000003
 augmentation part       15.5805422 magnetization       1.7098686

 DIPCOR: dipole corrections for dipol
 direction  3 min pos     1,
 dipolmoment           0.000000     -0.000000      0.000499 electrons x Angstroem
 Tr[quadrupol]     -6737.730159

 energy correction for charged system         0.000000 eV
 dipol+quadrupol energy correction            0.000000 eV
 added-field ion interaction          0.000000 eV  (added to PSCEN)


 Free energy of the ion-electron system (eV)
  ---------------------------------------------------
  alpha Z        PSCENC =        99.03712712
  Ewald energy   TEWEN  =     39023.75560078
  -Hartree energ DENC   =    -47672.70543149
  -exchange      EXHF   =       549.31827173
  -V(xc)+E(xc)   XCENC  =       624.31156353
  PAW double counting   =     27008.17432915   -27108.14672555
  entropy T*S    EENTRO =        -0.00000004
  eigenvalues    EBANDS =     -3164.38757799
  atomic energy  EATOM  =     10036.92208704
  ---------------------------------------------------
  free energy    TOTEN  =      -603.72075577 eV

  energy without entropy =     -603.72075573  energy(sigma->0) =     -603.72075575
  exchange ACFDT corr.  =        -0.00000004  see jH, gK, PRB 81, 115126


--------------------------------------------------------------------------------------------------------




--------------------------------------- Iteration      1(  12)  ---------------------------------------


    POTLOK:  cpu time    1.3759: real time    1.3761
    SETDIJ:  cpu time    2.1197: real time    2.1197
    TRIAL :  cpu time  520.1695: real time  520.2048
    CORREC:  cpu time    0.0014: real time    0.0016
    CHARGE:  cpu time    1.6670: real time    1.6670
    --------------------------------------------
      LOOP:  cpu time  525.3364: real time  525.3720

 eigenvalue-minimisations  :     0
 total energy-change (2. order) :-0.1335850E-01  (-0.1140924E-01)
 number of electron     243.9999994 magnetization       2.0000003
 augmentation part       15.5809435 magnetization       1.7235765

 DIPCOR: dipole corrections for dipol
 direction  3 min pos     1,
 dipolmoment           0.000000     -0.000000      0.000500 electrons x Angstroem
 Tr[quadrupol]     -6737.727803

 energy correction for charged system         0.000000 eV
 dipol+quadrupol energy correction            0.000000 eV
 added-field ion interaction          0.000000 eV  (added to PSCEN)


 Free energy of the ion-electron system (eV)
  ---------------------------------------------------
  alpha Z        PSCENC =        99.03712712
  Ewald energy   TEWEN  =     39023.75560078
  -Hartree energ DENC   =    -47672.55358203
  -exchange      EXHF   =       549.35948621
  -V(xc)+E(xc)   XCENC  =       624.32895511
  PAW double counting   =     27009.97934397   -27109.98070460
  entropy T*S    EENTRO =        -0.00000002
  eigenvalues    EBANDS =     -3164.58242783
  atomic energy  EATOM  =     10036.92208704
  ---------------------------------------------------
  free energy    TOTEN  =      -603.73411427 eV

  energy without entropy =     -603.73411425  energy(sigma->0) =     -603.73411426
  exchange ACFDT corr.  =        -0.00000001  see jH, gK, PRB 81, 115126


--------------------------------------------------------------------------------------------------------




--------------------------------------- Iteration      1(  13)  ---------------------------------------


    POTLOK:  cpu time    1.3747: real time    1.3747
    SETDIJ:  cpu time    2.1124: real time    2.1125
    TRIAL :  cpu time  519.9324: real time  519.9661
    CORREC:  cpu time    0.0014: real time    0.0016
    CHARGE:  cpu time    1.6671: real time    1.6672
    --------------------------------------------
      LOOP:  cpu time  525.0966: real time  525.1305

 eigenvalue-minimisations  :     0
 total energy-change (2. order) :-0.1059387E-01  (-0.9098095E-02)
 number of electron     243.9999994 magnetization       2.0000003
 augmentation part       15.5813778 magnetization       1.7360769

 DIPCOR: dipole corrections for dipol
 direction  3 min pos     1,
 dipolmoment           0.000000     -0.000000      0.000507 electrons x Angstroem
 Tr[quadrupol]     -6737.727000

 energy correction for charged system         0.000000 eV
 dipol+quadrupol energy correction            0.000000 eV
 added-field ion interaction          0.000000 eV  (added to PSCEN)


 Free energy of the ion-electron system (eV)
  ---------------------------------------------------
  alpha Z        PSCENC =        99.03712712
  Ewald energy   TEWEN  =     39023.75560078
  -Hartree energ DENC   =    -47672.43426158
  -exchange      EXHF   =       549.39598707
  -V(xc)+E(xc)   XCENC  =       624.34502753
  PAW double counting   =     27011.61259782   -27111.62615900
  entropy T*S    EENTRO =        -0.00000001
  eigenvalues    EBANDS =     -3164.75271491
  atomic energy  EATOM  =     10036.92208704
  ---------------------------------------------------
  free energy    TOTEN  =      -603.74470814 eV

  energy without entropy =     -603.74470813  energy(sigma->0) =     -603.74470814
  exchange ACFDT corr.  =        -0.00000001  see jH, gK, PRB 81, 115126


--------------------------------------------------------------------------------------------------------




--------------------------------------- Iteration      1(  14)  ---------------------------------------


    POTLOK:  cpu time    1.3958: real time    1.3959
    SETDIJ:  cpu time    2.0728: real time    2.0729
    TRIAL :  cpu time  520.4459: real time  520.4779
    CORREC:  cpu time    0.0014: real time    0.0016
    CHARGE:  cpu time    1.6690: real time    1.6690
    --------------------------------------------
      LOOP:  cpu time  525.5876: real time  525.6198

 eigenvalue-minimisations  :     0
 total energy-change (2. order) :-0.8499771E-02  (-0.7320282E-02)
 number of electron     243.9999994 magnetization       2.0000003
 augmentation part       15.5820553 magnetization       1.7474126

 DIPCOR: dipole corrections for dipol
 direction  3 min pos     1,
 dipolmoment           0.000000     -0.000000      0.000514 electrons x Angstroem
 Tr[quadrupol]     -6737.727416

 energy correction for charged system         0.000000 eV
 dipol+quadrupol energy correction            0.000000 eV
 added-field ion interaction          0.000000 eV  (added to PSCEN)


 Free energy of the ion-electron system (eV)
  ---------------------------------------------------
  alpha Z        PSCENC =        99.03712713
  Ewald energy   TEWEN  =     39023.75560078
  -Hartree energ DENC   =    -47672.42324759
  -exchange      EXHF   =       549.43012334
  -V(xc)+E(xc)   XCENC  =       624.36198437
  PAW double counting   =     27013.51457046   -27113.54920367
  entropy T*S    EENTRO =        -0.00000001
  eigenvalues    EBANDS =     -3164.80224977
  atomic energy  EATOM  =     10036.92208704
  ---------------------------------------------------
  free energy    TOTEN  =      -603.75320791 eV

  energy without entropy =     -603.75320791  energy(sigma->0) =     -603.75320791
  exchange ACFDT corr.  =        -0.00000000  see jH, gK, PRB 81, 115126


--------------------------------------------------------------------------------------------------------




--------------------------------------- Iteration      1(  15)  ---------------------------------------


    POTLOK:  cpu time    1.3722: real time    1.3723
    SETDIJ:  cpu time    2.0782: real time    2.0783
    TRIAL :  cpu time  521.9264: real time  521.9687
    CORREC:  cpu time    0.0014: real time    0.0016
    CHARGE:  cpu time    1.6676: real time    1.6676
    --------------------------------------------
      LOOP:  cpu time  527.0483: real time  527.0909

 eigenvalue-minimisations  :     0
 total energy-change (2. order) :-0.6872523E-02  (-0.5940942E-02)
 number of electron     243.9999994 magnetization       2.0000003
 augmentation part       15.5827209 magnetization       1.7576863

 DIPCOR: dipole corrections for dipol
 direction  3 min pos     1,
 dipolmoment           0.000000     -0.000000      0.000519 electrons x Angstroem
 Tr[quadrupol]     -6737.728165

 energy correction for charged system         0.000000 eV
 dipol+quadrupol energy correction            0.000000 eV
 added-field ion interaction          0.000000 eV  (added to PSCEN)


 Free energy of the ion-electron system (eV)
  ---------------------------------------------------
  alpha Z        PSCENC =        99.03712713
  Ewald energy   TEWEN  =     39023.75560078
  -Hartree energ DENC   =    -47672.46599373
  -exchange      EXHF   =       549.46103515
  -V(xc)+E(xc)   XCENC  =       624.37842755
  PAW double counting   =     27015.71099300   -27115.77322386
  entropy T*S    EENTRO =        -0.00000001
  eigenvalues    EBANDS =     -3164.78613348
  atomic energy  EATOM  =     10036.92208704
  ---------------------------------------------------
  free energy    TOTEN  =      -603.76008044 eV

  energy without entropy =     -603.76008043  energy(sigma->0) =     -603.76008044
  exchange ACFDT corr.  =        -0.00000000  see jH, gK, PRB 81, 115126


--------------------------------------------------------------------------------------------------------




--------------------------------------- Iteration      1(  16)  ---------------------------------------


    POTLOK:  cpu time    1.3697: real time    1.3698
    SETDIJ:  cpu time    2.0786: real time    2.0786
    TRIAL :  cpu time  521.3761: real time  521.4107
    CORREC:  cpu time    0.0012: real time    0.0014
    CHARGE:  cpu time    1.6761: real time    1.6762
    --------------------------------------------
      LOOP:  cpu time  526.5046: real time  526.5396

 eigenvalue-minimisations  :     0
 total energy-change (2. order) :-0.5603081E-02  (-0.4869772E-02)
 number of electron     243.9999994 magnetization       2.0000003
 augmentation part       15.5831534 magnetization       1.7670778

 DIPCOR: dipole corrections for dipol
 direction  3 min pos     1,
 dipolmoment           0.000000     -0.000000      0.000523 electrons x Angstroem
 Tr[quadrupol]     -6737.728657

 energy correction for charged system         0.000000 eV
 dipol+quadrupol energy correction            0.000000 eV
 added-field ion interaction          0.000000 eV  (added to PSCEN)


 Free energy of the ion-electron system (eV)
  ---------------------------------------------------
  alpha Z        PSCENC =        99.03712713
  Ewald energy   TEWEN  =     39023.75560078
  -Hartree energ DENC   =    -47672.49368118
  -exchange      EXHF   =       549.48794350
  -V(xc)+E(xc)   XCENC  =       624.39289058
  PAW double counting   =     27018.05185781   -27118.13747788
  entropy T*S    EENTRO =        -0.00000001
  eigenvalues    EBANDS =     -3164.78203129
  atomic energy  EATOM  =     10036.92208704
  ---------------------------------------------------
  free energy    TOTEN  =      -603.76568352 eV

  energy without entropy =     -603.76568351  energy(sigma->0) =     -603.76568352
  exchange ACFDT corr.  =        -0.00000000  see jH, gK, PRB 81, 115126


--------------------------------------------------------------------------------------------------------




--------------------------------------- Iteration      1(  17)  ---------------------------------------


    POTLOK:  cpu time    1.3646: real time    1.3646
    SETDIJ:  cpu time    2.0789: real time    2.0789
    TRIAL :  cpu time  521.2756: real time  521.3094
    CORREC:  cpu time    0.0013: real time    0.0015
    CHARGE:  cpu time    1.6648: real time    1.6648
    --------------------------------------------
      LOOP:  cpu time  526.3881: real time  526.4221

 eigenvalue-minimisations  :     0
 total energy-change (2. order) :-0.4609239E-02  (-0.4025581E-02)
 number of electron     243.9999994 magnetization       2.0000003
 augmentation part       15.5833945 magnetization       1.7757460

 DIPCOR: dipole corrections for dipol
 direction  3 min pos     1,
 dipolmoment           0.000000     -0.000000      0.000525 electrons x Angstroem
 Tr[quadrupol]     -6737.728727

 energy correction for charged system         0.000000 eV
 dipol+quadrupol energy correction            0.000000 eV
 added-field ion interaction          0.000000 eV  (added to PSCEN)


 Free energy of the ion-electron system (eV)
  ---------------------------------------------------
  alpha Z        PSCENC =        99.03712713
  Ewald energy   TEWEN  =     39023.75560078
  -Hartree energ DENC   =    -47672.48543610
  -exchange      EXHF   =       549.51121133
  -V(xc)+E(xc)   XCENC  =       624.40530266
  PAW double counting   =     27020.35327138   -27120.45451279
  entropy T*S    EENTRO =        -0.00000000
  eigenvalues    EBANDS =     -3164.81494418
  atomic energy  EATOM  =     10036.92208704
  ---------------------------------------------------
  free energy    TOTEN  =      -603.77029276 eV

  energy without entropy =     -603.77029275  energy(sigma->0) =     -603.77029276
  exchange ACFDT corr.  =        -0.00000000  see jH, gK, PRB 81, 115126


--------------------------------------------------------------------------------------------------------




--------------------------------------- Iteration      1(  18)  ---------------------------------------


    POTLOK:  cpu time    1.3684: real time    1.3684
    SETDIJ:  cpu time    2.0822: real time    2.0823
    TRIAL :  cpu time  521.0510: real time  521.0878
    CORREC:  cpu time    0.0013: real time    0.0015
    CHARGE:  cpu time    1.6636: real time    1.6636
    --------------------------------------------
      LOOP:  cpu time  526.1691: real time  526.2081

 eigenvalue-minimisations  :     0
 total energy-change (2. order) :-0.3822973E-02  (-0.3355412E-02)
 number of electron     243.9999994 magnetization       2.0000003
 augmentation part       15.5835913 magnetization       1.7837623

 DIPCOR: dipole corrections for dipol
 direction  3 min pos     1,
 dipolmoment           0.000000     -0.000000      0.000528 electrons x Angstroem
 Tr[quadrupol]     -6737.728496

 energy correction for charged system         0.000000 eV
 dipol+quadrupol energy correction            0.000000 eV
 added-field ion interaction          0.000000 eV  (added to PSCEN)


 Free energy of the ion-electron system (eV)
  ---------------------------------------------------
  alpha Z        PSCENC =        99.03712713
  Ewald energy   TEWEN  =     39023.75560078
  -Hartree energ DENC   =    -47672.46018597
  -exchange      EXHF   =       549.53171828
  -V(xc)+E(xc)   XCENC  =       624.41641481
  PAW double counting   =     27022.47493323   -27122.58829155
  entropy T*S    EENTRO =        -0.00000000
[...]
  augment   178.19367   177.41488   198.35442    -0.79529     0.02243    -0.00420
  Kinetic  3520.98856  3550.63100  4013.71266     2.06754     0.04827     0.02885
  Fock     -340.81975  -340.23238  -325.18137     0.40920     0.00056     0.00072
  -------------------------------------------------------------------------------------
  Total     -45.95512   -42.07355    -0.21869     0.62364     0.00440     0.00086
  in kB     -23.17615   -21.21859    -0.11029     0.31451     0.00222     0.00044
  external pressure =      -14.84 kB  Pullay stress =        0.00 kB


 VOLUME and BASIS-vectors are now :
 -----------------------------------------------------------------------------
  energy-cutoff  :      500.00
  volume of cell :     3176.90
      direct lattice vectors                 reciprocal lattice vectors
    12.758242036  0.007805845  0.000154063     0.078380730 -0.000040789 -0.000017743
     0.006498520 12.487607392 -0.000156852    -0.000048995  0.080079417  0.000014366
     0.004512049 -0.003574535 19.940375451    -0.000000606  0.000000630  0.050149507

  length of vectors
    12.758244425 12.487609084 19.940376282     0.078380742  0.080079433  0.050149507


 FORCES acting on ions:
    Electron-Ion                     Ewald-Force                    Non-Local-Force
 -----------------------------------------------------------------------------------------------
   0.407E+01 0.456E+01 -.210E+00   -.438E+01 -.498E+01 0.211E+00   0.171E+00 0.436E+00 -.899E-03
   0.191E+01 0.891E+00 -.193E+00   -.207E+01 -.837E+00 0.193E+00   0.124E+00 0.185E-01 -.614E-03
   0.111E+02 0.270E+01 -.937E-01   -.111E+02 -.277E+01 0.932E-01   0.154E+00 0.718E-01 0.102E-02
   0.151E+02 0.120E+02 -.214E+00   -.153E+02 -.123E+02 0.213E+00   0.272E+00 0.332E+00 0.192E-03
   0.193E+02 0.153E+01 -.131E+00   -.198E+02 -.178E+01 0.131E+00   0.496E+00 0.191E+00 -.139E-02
   0.493E+01 -.332E+01 -.299E+00   -.523E+01 0.331E+01 0.298E+00   0.148E+00 -.291E-01 -.628E-03
   0.992E+01 0.123E+01 -.232E+00   -.103E+02 -.118E+01 0.231E+00   0.357E+00 -.811E-01 -.493E-03
   0.552E+02 -.100E+01 0.175E+00   -.587E+02 0.126E+01 -.170E+00   0.366E+01 -.362E+00 -.451E-02
   0.254E+02 0.575E+00 0.123E+00   -.257E+02 -.383E+00 -.123E+00   0.223E+00 -.493E-01 0.201E-03
   0.528E+01 -.193E+01 -.300E+00   -.530E+01 0.199E+01 0.299E+00   0.294E-02 -.749E-01 0.745E-04
   0.114E+02 -.255E+01 -.211E+00   -.115E+02 0.265E+01 0.211E+00   0.164E+00 -.442E-01 -.107E-02
   0.681E+02 -.932E+01 0.213E+00   -.721E+02 0.962E+01 -.201E+00   0.381E+01 -.153E+00 -.122E-01
   0.126E+02 -.107E+02 -.147E+00   -.124E+02 0.115E+02 0.146E+00   -.370E+00 -.104E+01 -.102E-02
   0.607E+00 0.226E+01 -.264E+00   -.823E+00 -.215E+01 0.264E+00   0.506E-01 -.790E-01 -.967E-03
   0.117E+02 -.319E+01 -.293E+00   -.115E+02 0.317E+01 0.293E+00   -.653E-01 -.206E-01 -.136E-02
   0.126E+02 -.303E+01 -.227E+00   -.110E+02 0.314E+01 0.223E+00   -.128E+01 -.263E-01 0.167E-02
   0.527E+01 0.480E+01 -.231E+00   -.494E+01 -.522E+01 0.232E+00   -.260E+00 0.477E+00 -.960E-03
   -.251E+00 0.223E+01 -.368E-01   0.157E+00 -.244E+01 0.374E-01   0.872E-01 0.129E+00 0.564E-03
   0.602E+01 0.146E+01 -.125E+00   -.588E+01 -.149E+01 0.124E+00   -.162E+00 0.600E-01 0.104E-02
   0.935E+01 0.234E+01 -.249E+00   -.932E+01 -.278E+01 0.247E+00   -.505E-02 0.328E+00 0.207E-02
   -.708E+01 0.637E+01 -.446E+00   0.724E+01 -.648E+01 0.446E+00   -.267E+00 0.106E+00 -.783E-03
   0.536E+01 0.210E+02 -.313E+00   -.525E+01 -.216E+02 0.315E+00   -.791E-01 0.562E+00 -.344E-02
   -.612E-02 0.768E+01 -.453E+00   0.485E+00 -.812E+01 0.453E+00   -.321E+00 0.420E+00 -.392E-03
   -.105E+02 0.834E+01 -.266E+00   0.105E+02 -.811E+01 0.266E+00   0.391E-01 -.211E+00 -.195E-02
   -.222E+02 0.252E+02 0.140E+00   0.235E+02 -.240E+02 -.142E+00   -.108E+01 -.112E+01 0.215E-02
   -.129E+02 0.508E+02 0.688E-01   0.154E+02 -.538E+02 -.644E-01   -.259E+01 0.305E+01 -.473E-02
   -.730E+01 -.181E+01 -.402E+00   0.770E+01 0.419E+00 0.403E+00   -.252E+00 0.120E+01 -.241E-02
   0.442E+01 -.895E+00 -.435E+00   -.432E+01 0.372E+00 0.437E+00   -.109E+00 0.419E+00 -.182E-02
   -.634E+00 -.502E+01 -.432E+00   0.439E+00 0.377E+01 0.434E+00   0.830E-01 0.113E+01 -.223E-02
   -.581E+01 -.568E+00 -.429E+00   0.578E+01 0.147E+00 0.430E+00   0.103E+00 0.364E+00 -.149E-02
   -.757E+01 0.165E+01 -.107E+00   0.741E+01 -.170E+01 0.107E+00   0.588E-04 0.341E-01 0.126E-02
   -.120E+02 0.468E+01 -.228E+00   0.120E+02 -.450E+01 0.226E+00   -.705E-01 -.105E+00 0.375E-03
   -.123E+01 0.127E+01 -.233E+00   0.135E+01 -.127E+01 0.234E+00   0.326E-01 0.314E-01 -.102E-02
   0.291E+01 0.678E+00 -.202E+00   -.304E+01 -.588E+00 0.202E+00   0.154E+00 -.236E-01 -.550E-03
   -.294E+01 -.991E+00 -.253E+00   0.273E+01 0.956E+00 0.252E+00   0.225E+00 -.161E-02 -.381E-03
   -.193E+02 -.133E+01 0.249E+00   0.178E+02 0.113E+01 -.250E+00   0.120E+01 0.206E-01 0.172E-02
   -.822E+01 -.307E+01 -.124E+00   0.784E+01 0.344E+01 0.124E+00   0.357E+00 -.397E+00 -.721E-03
   0.193E+01 -.174E+01 -.316E+00   -.192E+01 0.165E+01 0.316E+00   0.839E-01 0.329E-01 -.605E-03
   -.475E+01 -.230E+01 -.246E+00   0.455E+01 0.225E+01 0.247E+00   0.588E-01 0.867E-01 -.153E-02
   -.217E+02 -.796E+01 0.326E+00   0.221E+02 0.793E+01 -.321E+00   -.470E+00 0.111E+00 -.408E-02
   -.936E+01 0.396E+00 0.148E+00   0.898E+01 -.106E+01 -.149E+00   0.482E+00 0.645E+00 0.143E-02
   0.738E+00 -.289E+01 -.308E+00   -.748E+00 0.290E+01 0.306E+00   -.697E-02 -.192E-01 0.444E-04
   -.469E+01 -.815E+00 -.287E+00   0.441E+01 0.958E+00 0.287E+00   0.933E-01 -.158E+00 -.131E-02
   -.867E+01 0.408E+01 -.179E+00   0.698E+01 -.383E+01 0.177E+00   0.141E+01 -.121E+00 0.431E-03
   -.161E+01 -.520E+01 -.563E-01   0.128E+01 0.586E+01 0.553E-01   0.538E+00 -.662E+00 0.125E-03
   0.330E+01 0.225E+01 -.267E+00   -.319E+01 -.208E+01 0.267E+00   0.313E-01 -.708E-01 -.964E-03
   -.289E+01 0.256E+01 -.141E+00   0.267E+01 -.259E+01 0.140E+00   0.237E+00 0.336E-01 0.103E-02
   -.104E+02 0.206E+01 -.262E+00   0.104E+02 -.239E+01 0.260E+00   -.462E-01 0.209E+00 0.201E-02
   -.254E+01 0.637E+01 -.238E+00   0.223E+01 -.676E+01 0.239E+00   0.269E+00 0.457E+00 -.122E-02
   0.346E+01 0.160E+01 -.463E-01   -.355E+01 -.176E+01 0.471E-01   0.111E+00 0.103E+00 0.465E-03
   -.431E+02 -.508E+01 0.640E+00   0.402E+02 0.105E+02 -.654E+00   0.301E+01 -.536E+01 0.160E-01
   -.729E+02 -.217E+02 0.110E+01   0.680E+02 0.221E+02 -.112E+01   0.512E+01 -.610E+00 0.210E-01
   -.472E+00 0.156E+02 -.274E+00   0.347E+01 -.204E+02 0.271E+00   -.335E+01 0.493E+01 0.317E-02
   -.417E+01 0.263E+02 -.159E+00   0.115E+01 -.311E+02 0.155E+00   0.345E+01 0.519E+01 0.471E-02
   0.329E+02 0.439E+00 0.751E+00   -.226E+02 0.163E+02 -.802E+00   -.980E+01 -.158E+02 0.498E-01
   0.738E+02 -.351E+02 0.167E+01   -.603E+02 0.350E+02 -.174E+01   -.125E+02 -.221E+00 0.650E-01
   -.593E+02 0.668E+02 0.305E+01   0.614E+02 -.727E+02 -.304E+01   -.310E+01 0.407E+01 -.105E-01
   -.446E+02 -.153E+03 0.182E+01   0.443E+02 0.161E+03 -.178E+01   -.936E-01 -.619E+01 -.424E-01
 -----------------------------------------------------------------------------------------------
   0.986E+01 0.782E+01 -.809E-01   0.568E-13 -.369E-12 -.666E-15   -.947E+01 -.773E+01 0.671E-01
 
 
 POSITION                                       TOTAL-FORCE (eV/Angst)
 -----------------------------------------------------------------------------------
      2.81858     12.48279      9.97042        -0.136653      0.032472      0.000182
      0.70392      1.25495      9.97050        -0.028694      0.072534     -0.000235
      1.40477     12.48576      9.97023         0.144560     -0.001008      0.000606
      3.52395      1.23523      9.97014         0.013948      0.069959     -0.000810
      2.85033      2.48941      9.96951         0.030013     -0.053464     -0.000600
      0.71613      3.74596      9.97037        -0.139323     -0.043970     -0.000886
      1.42108      2.49965      9.97027        -0.033727     -0.029401     -0.000768
      3.61489      3.71725      9.96768         0.422844     -0.131105      0.000091
      2.89042      4.97422      9.96799        -0.092558      0.146415      0.000008
      0.72646      6.23275      9.97030        -0.024412     -0.025133     -0.000895
      1.45270      4.98451      9.96975         0.068305      0.056730     -0.001022
      3.59547      6.23727      9.96689         0.129495      0.136488     -0.000437
      2.86840      7.49786      9.96914        -0.166542     -0.256102     -0.001352
      0.71403      8.73391      9.97053        -0.167770      0.038171     -0.000337
      1.44499      7.48447      9.97022         0.142911     -0.042676     -0.001222
      3.60311      8.74742      9.96974         0.267849      0.079148     -0.001470
      2.85194      9.98791      9.97040         0.054175      0.087088      0.000068
      0.70645     11.22942      9.97013        -0.009097     -0.076769      0.001275
      1.42343      9.98315      9.97030        -0.027915      0.034142      0.000750
      3.53312     11.24293      9.97065         0.031679     -0.095421      0.000534
      7.08268      0.01256      9.97111        -0.123152     -0.000416     -0.000905
      4.94217      1.23079      9.97007         0.027832      0.053260     -0.001449
      5.66507      0.00776      9.97110         0.141331      0.008570     -0.001006
      7.78622      1.24954      9.97005         0.003960      0.009199     -0.001449
      7.07059      2.48070      9.96792         0.188406      0.026834     -0.000151
      5.63758      2.45347      9.96799        -0.252788      0.231093     -0.000541
      7.09844     10.04176      9.97059         0.131475     -0.143628     -0.001591
      4.95302     11.26856      9.97105        -0.015286     -0.089613     -0.000178
      5.66366     10.05184      9.97064        -0.109643     -0.063972     -0.001184
      7.80561     11.26610      9.97108         0.076203     -0.045402     -0.000305
     11.33833      0.00781      9.97057        -0.171374     -0.008428      0.000715
      9.20834      1.25622      9.97028        -0.033897      0.072591     -0.000966
      9.92300      0.00934      9.97076         0.159705      0.029469     -0.000020
     12.03778      1.26328      9.97068         0.034548      0.065574     -0.000242
     11.32604      2.50982      9.97048         0.022440     -0.036812     -0.000915
      9.14829      3.75230      9.96771        -0.175094     -0.180929      0.000305
      9.89313      2.51008      9.96964         0.000993     -0.046963     -0.000907
     12.04616      3.75316      9.97057         0.097155     -0.061579     -0.001260
     11.32401      4.99761      9.96999        -0.149233      0.042049     -0.001379
      9.17984      6.23867      9.96705        -0.159957      0.088164      0.000660
      9.89572      4.99195      9.96814         0.121217      0.020357      0.000202
     12.04908      6.24273      9.97047        -0.015587     -0.012176     -0.001461
     11.32151      7.49252      9.97034        -0.186976     -0.022968     -0.001434
      9.15530      8.74784      9.96971        -0.220426      0.121565     -0.001618
      9.89501      7.49749      9.96910         0.240322     -0.045552     -0.000861
     12.04694      8.74143      9.97069         0.152494      0.096629     -0.000531
     11.33183      9.98854      9.97047         0.028604      0.008040      0.000536
      9.22343     11.24956      9.97078        -0.067116     -0.104852      0.000263
      9.90321      9.98967      9.97051        -0.018738      0.093845     -0.000297
     12.04238     11.23673      9.97031         0.032727     -0.051877      0.001330
      7.72398      3.74174      9.96594         0.198998     -0.245487      0.002836
      7.78474      6.25005      9.96415         0.431995     -0.247470      0.004981
      5.02017      8.80040      9.96940        -0.525742      0.337305     -0.000325
      7.73285      8.77196      9.96920         0.616811      0.622595      0.000717
      4.99259      3.66378      9.96606        -0.300656     -0.401612      0.003512
      4.92853      6.27419      9.96366        -0.134407     -0.425428      0.003728
      6.33549      5.06273      9.96328        -0.395368     -0.170724      0.005834
      6.34341      7.33086      9.96460        -0.130862      0.480652      0.001876
 -----------------------------------------------------------------------------------
    total drift:                               -0.004718      0.000500     -0.001079


--------------------------------------------------------------------------------------------------------



  FREE ENERGIE OF THE ION-ELECTRON SYSTEM (eV)
  ---------------------------------------------------
  free  energy   TOTEN  =      -603.80129085 eV

  energy  without entropy=     -603.80129084  energy(sigma->0) =     -603.80129085
 


--------------------------------------------------------------------------------------------------------


    POTLOK:  cpu time    3.4282: real time    3.4283


--------------------------------------------------------------------------------------------------------


 stress matrix after NEB project (eV)
    -45.95512      0.62362      0.00086
      0.62364    -42.07355      0.00439
      0.00087      0.00440     -0.21869
  FORCES: max atom, RMS     0.876402    0.252440
  FORCE total and by dimension    1.922527    0.622595
  Stress total and by dimension   62.312779   45.955119
 writing wavefunctions
     LOOP+:  cpu time35263.0265: real time35267.7468
    4ORBIT:  cpu time    0.0000: real time    0.0000
 


 total charge     
 
# of ion       s       p       d       tot
------------------------------------------
    1        0.867   1.779   0.000   2.647
    2        0.864   1.762   0.000   2.626
    3        0.867   1.765   0.000   2.631
    4        0.871   1.769   0.000   2.640
    5        0.863   1.767   0.000   2.631
    6        0.862   1.761   0.000   2.623
    7        0.864   1.758   0.000   2.622
    8        0.854   1.705   0.000   2.559
    9        0.855   1.753   0.000   2.608
   10        0.858   1.750   0.000   2.608
   11        0.860   1.735   0.000   2.595
   12        0.863   1.729   0.000   2.592
   13        0.862   1.745   0.000   2.607
   14        0.861   1.755   0.000   2.617
   15        0.863   1.741   0.000   2.604
   16        0.861   1.738   0.000   2.599
   17        0.864   1.754   0.000   2.617
   18        0.864   1.762   0.000   2.626
   19        0.864   1.753   0.000   2.617
   20        0.868   1.772   0.000   2.639
   21        0.869   1.784   0.000   2.652
   22        0.873   1.805   0.000   2.678
   23        0.871   1.783   0.000   2.654
   24        0.871   1.774   0.000   2.645
   25        0.872   1.777   0.000   2.649
   26        0.873   1.751   0.000   2.624
   27        0.880   1.769   0.000   2.649
   28        0.874   1.794   0.000   2.667
   29        0.883   1.777   0.000   2.660
   30        0.873   1.785   0.000   2.658
   31        0.864   1.768   0.000   2.632
   32        0.865   1.770   0.000   2.635
   33        0.867   1.765   0.000   2.632
   34        0.865   1.758   0.000   2.623
   35        0.863   1.757   0.000   2.619
   36        0.859   1.746   0.000   2.605
   37        0.864   1.747   0.000   2.611
   38        0.864   1.752   0.000   2.616
   39        0.861   1.758   0.000   2.619
   40        0.864   1.779   0.000   2.643
   41        0.868   1.731   0.000   2.599
   42        0.862   1.734   0.000   2.596
   43        0.860   1.751   0.000   2.612
   44        0.860   1.738   0.000   2.598
   45        0.866   1.723   0.000   2.589
   46        0.863   1.751   0.000   2.614
   47        0.863   1.759   0.000   2.621
   48        0.867   1.771   0.000   2.638
   49        0.864   1.750   0.000   2.613
   50        0.865   1.757   0.000   2.622
   51        0.868   1.640   0.000   2.508
   52        0.916   1.499   0.000   2.415
   53        0.872   1.669   0.000   2.542
   54        0.869   1.650   0.000   2.518
   55        1.231   2.653   0.000   3.884
   56        1.256   2.576   0.000   3.833
   57        0.535   0.734   8.450   9.719
   58        0.557   0.855   6.240   7.652
--------------------------------------------------
tot         50.372 101.193  14.691 166.256
 


 magnetization (x)
 
# of ion       s       p       d       tot
------------------------------------------
    1        0.000   0.006   0.000   0.006
    2        0.001   0.006   0.000   0.007
    3       -0.000  -0.005   0.000  -0.005
    4       -0.000  -0.003   0.000  -0.003
    5        0.000   0.005   0.000   0.005
    6        0.001   0.009   0.000   0.009
    7       -0.001  -0.007   0.000  -0.007
    8       -0.000  -0.005   0.000  -0.005
    9       -0.000   0.006   0.000   0.005
   10        0.001   0.010   0.000   0.011
   11       -0.001  -0.014   0.000  -0.016
   12       -0.001  -0.014   0.000  -0.014
   13        0.001   0.013   0.000   0.015
   14        0.001   0.010   0.000   0.011
   15       -0.001  -0.010   0.000  -0.011
   16       -0.000  -0.003   0.000  -0.004
   17       -0.000   0.001   0.000   0.001
   18        0.000   0.006   0.000   0.006
   19       -0.001  -0.008   0.000  -0.008
   20       -0.000  -0.001   0.000  -0.001
   21        0.001   0.011   0.000   0.012
   22        0.001   0.007   0.000   0.008
   23       -0.001  -0.015   0.000  -0.016
   24       -0.001  -0.009   0.000  -0.010
   25        0.001   0.008   0.000   0.009
   26       -0.001  -0.017   0.000  -0.018
   27        0.000   0.021   0.000   0.022
   28       -0.000   0.000   0.000  -0.000
   29       -0.001  -0.004   0.000  -0.005
   30       -0.002  -0.015   0.000  -0.017
   31        0.001   0.009   0.000   0.010
   32        0.001   0.009   0.000   0.010
   33       -0.001  -0.010   0.000  -0.011
   34       -0.001  -0.009   0.000  -0.010
   35        0.001   0.009   0.000   0.010
   36        0.001   0.013   0.000   0.014
   37       -0.001  -0.008   0.000  -0.009
   38       -0.001  -0.010   0.000  -0.011
   39        0.001   0.013   0.000   0.014
   40        0.002   0.021   0.000   0.023
   41       -0.004  -0.035   0.000  -0.038
   42       -0.002  -0.022   0.000  -0.024
   43        0.001   0.013   0.000   0.015
   44        0.002   0.020   0.000   0.022
   45       -0.002  -0.025   0.000  -0.027
   46       -0.001  -0.008   0.000  -0.009
   47        0.001   0.007   0.000   0.007
   48        0.001   0.014   0.000   0.015
   49       -0.001  -0.012   0.000  -0.013
   50       -0.001  -0.008   0.000  -0.008
   51       -0.001  -0.021   0.000  -0.022
   52       -0.014  -0.148   0.000  -0.162
   53       -0.015  -0.051   0.000  -0.066
   54       -0.013  -0.061   0.000  -0.074
   55       -0.000   0.010   0.000   0.009
   56       -0.005  -0.058   0.000  -0.064
   57       -0.006  -0.016  -0.077  -0.098
   58        0.056   0.011   2.476   2.544
--------------------------------------------------
tot         -0.004  -0.361   2.399   2.034
 

 total amount of memory used by VASP MPI-rank0   178943. kBytes
=======================================================================

   base      :      30000. kBytes
   nonl-proj :       5328. kBytes
   fftplans  :      14250. kBytes
   grid      :      36827. kBytes
   one-center:         62. kBytes
   HF        :         23. kBytes
   nonlr-proj:      14939. kBytes
   wavefun   :      77514. kBytes
 
  
  
 General timing and accounting informations for this job:
 ========================================================
  
                  Total CPU time used (sec):    35355.152
                            User time (sec):    35312.545
                          System time (sec):       42.606
                         Elapsed time (sec):    35361.200
  
                   Maximum memory used (kb):      431648.
                   Average memory used (kb):           0.
  
                          Minor page faults:       296911
                          Major page faults:            0
                 Voluntary context switches:         1086
