 vasp.5.4.4.18Apr17-6-g9f103f2a35 (build Feb 25 2019 10:51:38) complex          
  
 executed on             LinuxIFC date 2021.06.15  08:49:54
 running on   48 total cores
 distrk:  each k-point on   16 cores,    3 groups
 distr:  one band on NCORES_PER_BAND=  16 cores,    1 groups


--------------------------------------------------------------------------------------------------------


 INCAR:
 POTCAR:    PAW_PBE C 08Apr2002                   
 POTCAR:    PAW_PBE N 08Apr2002                   
 POTCAR:    PAW_PBE Fe 06Sep2000                  
 POTCAR:    PAW_PBE V 08Apr2002                   

 ----------------------------------------------------------------------------- 
|                                                                             |
|           W    W    AA    RRRRR   N    N  II  N    N   GGGG   !!!           |
|           W    W   A  A   R    R  NN   N  II  NN   N  G    G  !!!           |
|           W    W  A    A  R    R  N N  N  II  N N  N  G       !!!           |
|           W WW W  AAAAAA  RRRRR   N  N N  II  N  N N  G  GGG   !            |
|           WW  WW  A    A  R   R   N   NN  II  N   NN  G    G                |
|           W    W  A    A  R    R  N    N  II  N    N   GGGG   !!!           |
|                                                                             |
|      For optimal performance we recommend to set                            |
|        NCORE= 4 - approx SQRT( number of cores)                             |
|      NCORE specifies how many cores store one orbital (NPAR=cpu/NCORE).     |
|      This setting can  greatly improve the performance of VASP for DFT.     |
|      The default,   NCORE=1            might be grossly inefficient         |
|      on modern multi-core architectures or massively parallel machines.     |
|      Do your own testing !!!!                                               |
|      Unfortunately you need to use the default for GW and RPA calculations. |
|      (for HF NCORE is supported but not extensively tested yet)             |
|                                                                             |
 ----------------------------------------------------------------------------- 


 ----------------------------------------------------------------------------- 
|                                                                             |
|           W    W    AA    RRRRR   N    N  II  N    N   GGGG   !!!           |
|           W    W   A  A   R    R  NN   N  II  NN   N  G    G  !!!           |
|           W    W  A    A  R    R  N N  N  II  N N  N  G       !!!           |
|           W WW W  AAAAAA  RRRRR   N  N N  II  N  N N  G  GGG   !            |
|           WW  WW  A    A  R   R   N   NN  II  N   NN  G    G                |
|           W    W  A    A  R    R  N    N  II  N    N   GGGG   !!!           |
|                                                                             |
|      You have enabled k-point parallelism (KPAR>1).                         |
|      This developmental code was originally  written by Paul Kent at ORNL,  |
|      and carefully double checked in Vienna.                                |
|      GW as well as linear response parallelism added by Martijn Marsman     |
|      and Georg Kresse.                                                      |
|      Carefully verify results versus KPAR=1.                                |
|      Report problems to Paul Kent and Vienna.                               |
|                                                                             |
 ----------------------------------------------------------------------------- 

 POTCAR:    PAW_PBE C 08Apr2002                   
   VRHFIN =C: s2p2                                                              
   LEXCH  = PE                                                                  
   EATOM  =   147.1560 eV,   10.8157 Ry                                         
                                                                                
   TITEL  = PAW_PBE C 08Apr2002                                                 
   LULTRA =        F    use ultrasoft PP ?                                      
   IUNSCR =        1    unscreen: 0-lin 1-nonlin 2-no                           
   RPACOR =    1.200    partial core radius                                     
   POMASS =   12.011; ZVAL   =    4.000    mass and valenz                      
   RCORE  =    1.500    outmost cutoff radius                                   
   RWIGS  =    1.630; RWIGS  =    0.863    wigner-seitz radius (au A)           
   ENMAX  =  400.000; ENMIN  =  300.000 eV                                      
   ICORE  =        2    local potential                                         
   LCOR   =        T    correct aug charges                                     
   LPAW   =        T    paw PP                                                  
   EAUG   =  644.873                                                            
   DEXC   =    0.000                                                            
   RMAX   =    1.529    core radius for proj-oper                               
   RAUG   =    1.300    factor for augmentation sphere                          
   RDEP   =    1.501    radius for radial grids                                 
   RDEPT  =    1.300    core radius for aug-charge                              
                                                                                
   Atomic configuration                                                         
    4 entries                                                                   
     n  l   j            E        occ.                                          
     1  0  0.50      -273.3789   2.0000                                         
     2  0  0.50       -13.7508   2.0000                                         
     2  1  0.50        -5.2854   2.0000                                         
     3  2  1.50        -5.4423   0.0000                                         
   Description                                                                  
     l       E           TYP  RCUT    TYP  RCUT                                 
     0    -13.7508458     23  1.200                                             
     0     -8.2022199     23  1.200                                             
     1     -5.2854383     23  1.500                                             
     1     34.0145650     23  1.500                                             
     2     -5.4423304      7  1.500                                             
  local pseudopotential read in
  partial core-charges read in
  partial kinetic energy density read in
  atomic valenz-charges read in
  non local Contribution for L=           0  read in
    real space projection operators read in
  non local Contribution for L=           0  read in
    real space projection operators read in
  non local Contribution for L=           1  read in
    real space projection operators read in
  non local Contribution for L=           1  read in
    real space projection operators read in
    PAW grid and wavefunctions read in
 
   number of l-projection  operators is LMAX  =           4
   number of lm-projection operators is LMMAX =           8
 
 POTCAR:    PAW_PBE N 08Apr2002                   
   VRHFIN =N: s2p3                                                              
   LEXCH  = PE                                                                  
   EATOM  =   264.5486 eV,   19.4438 Ry                                         
                                                                                
   TITEL  = PAW_PBE N 08Apr2002                                                 
   LULTRA =        F    use ultrasoft PP ?                                      
   IUNSCR =        1    unscreen: 0-lin 1-nonlin 2-no                           
   RPACOR =    1.200    partial core radius                                     
   POMASS =   14.001; ZVAL   =    5.000    mass and valenz                      
   RCORE  =    1.500    outmost cutoff radius                                   
   RWIGS  =    1.400; RWIGS  =    0.741    wigner-seitz radius (au A)           
   ENMAX  =  400.000; ENMIN  =  300.000 eV                                      
   ICORE  =        2    local potential                                         
   LCOR   =        T    correct aug charges                                     
   LPAW   =        T    paw PP                                                  
   EAUG   =  627.112                                                            
   DEXC   =    0.000                                                            
   RMAX   =    1.529    core radius for proj-oper                               
   RAUG   =    1.300    factor for augmentation sphere                          
   RDEP   =    1.514    radius for radial grids                                 
   RDEPT  =    1.338    core radius for aug-charge                              
                                                                                
   Atomic configuration                                                         
    4 entries                                                                   
     n  l   j            E        occ.                                          
     1  0  0.50      -384.7179   2.0000                                         
     2  0  0.50       -18.5828   2.0000                                         
     2  1  0.50        -7.0898   3.0000                                         
     3  2  1.50        -6.8029   0.0000                                         
   Description                                                                  
     l       E           TYP  RCUT    TYP  RCUT                                 
     0    -18.5828119     23  1.200                                             
     0    -13.5018863     23  1.200                                             
     1     -7.0897853     23  1.500                                             
     1      9.5240782     23  1.500                                             
     2     -6.8029130      7  1.500                                             
  local pseudopotential read in
  partial core-charges read in
  partial kinetic energy density read in
  atomic valenz-charges read in
  non local Contribution for L=           0  read in
    real space projection operators read in
  non local Contribution for L=           0  read in
    real space projection operators read in
  non local Contribution for L=           1  read in
    real space projection operators read in
  non local Contribution for L=           1  read in
    real space projection operators read in
    PAW grid and wavefunctions read in
 
   number of l-projection  operators is LMAX  =           4
   number of lm-projection operators is LMMAX =           8
 
 POTCAR:    PAW_PBE Fe 06Sep2000                  
   VRHFIN =Fe:  d7 s1                                                           
   LEXCH  = PE                                                                  
   EATOM  =   594.3153 eV,   43.6809 Ry                                         
                                                                                
   TITEL  = PAW_PBE Fe 06Sep2000                                                
   LULTRA =        F    use ultrasoft PP ?                                      
   IUNSCR =        1    unscreen: 0-lin 1-nonlin 2-no                           
   RPACOR =    2.000    partial core radius                                     
   POMASS =   55.847; ZVAL   =    8.000    mass and valenz                      
   RCORE  =    2.300    outmost cutoff radius                                   
   RWIGS  =    2.460; RWIGS  =    1.302    wigner-seitz radius (au A)           
   ENMAX  =  267.882; ENMIN  =  200.911 eV                                      
   RCLOC  =    1.701    cutoff for local pot                                    
   LCOR   =        T    correct aug charges                                     
   LPAW   =        T    paw PP                                                  
   EAUG   =  511.368                                                            
   DEXC   =    0.000                                                            
   RMAX   =    2.356    core radius for proj-oper                               
   RAUG   =    1.300    factor for augmentation sphere                          
   RDEP   =    2.442    radius for radial grids                                 
   RDEPT  =    1.890    core radius for aug-charge                              
                                                                                
   Atomic configuration                                                         
    9 entries                                                                   
     n  l   j            E        occ.                                          
     1  0  0.50     -6993.8440   2.0000                                         
     2  0  0.50      -814.6047   2.0000                                         
     2  1  1.50      -693.3689   6.0000                                         
     3  0  0.50       -89.4732   2.0000                                         
     3  1  1.50       -55.6373   6.0000                                         
     3  2  2.50        -3.8151   7.0000                                         
     4  0  0.50        -4.2551   1.0000                                         
     4  1  1.50        -3.4015   0.0000                                         
     4  3  2.50        -1.3606   0.0000                                         
   Description                                                                  
     l       E           TYP  RCUT    TYP  RCUT                                 
     2     -3.8151135     23  2.300                                             
     2     -5.1756961     23  2.300                                             
     0     -4.2550963     23  2.300                                             
     0      7.2035603     23  2.300                                             
     1     -2.7211652     23  2.300                                             
     1     18.4316424     23  2.300                                             
  local pseudopotential read in
  partial core-charges read in
  partial kinetic energy density read in
  atomic valenz-charges read in
  non local Contribution for L=           2  read in
    real space projection operators read in
  non local Contribution for L=           2  read in
    real space projection operators read in
  non local Contribution for L=           0  read in
    real space projection operators read in
  non local Contribution for L=           0  read in
    real space projection operators read in
  non local Contribution for L=           1  read in
    real space projection operators read in
  non local Contribution for L=           1  read in
    real space projection operators read in
    PAW grid and wavefunctions read in
 
   number of l-projection  operators is LMAX  =           6
   number of lm-projection operators is LMMAX =          18
 
 POTCAR:    PAW_PBE V 08Apr2002                   
   VRHFIN =V: p6 d4 s1                                                          
   LEXCH  = PE                                                                  
   EATOM  =   170.8679 eV,   12.5584 Ry                                         
                                                                                
   TITEL  = PAW_PBE V 08Apr2002                                                 
   LULTRA =        F    use ultrasoft PP ?                                      
   IUNSCR =        1    unscreen: 0-lin 1-nonlin 2-no                           
   RPACOR =    2.000    partial core radius                                     
   POMASS =   50.941; ZVAL   =    5.000    mass and valenz                      
   RCORE  =    2.700    outmost cutoff radius                                   
   RWIGS  =    2.500; RWIGS  =    1.323    wigner-seitz radius (au A)           
   ENMAX  =  192.543; ENMIN  =  144.408 eV                                      
   RCLOC  =    1.779    cutoff for local pot                                    
   LCOR   =        T    correct aug charges                                     
   LPAW   =        T    paw PP                                                  
   EAUG   =  358.662                                                            
   DEXC   =    0.000                                                            
   RMAX   =    2.768    core radius for proj-oper                               
   RAUG   =    1.300    factor for augmentation sphere                          
   RDEP   =    2.762    radius for radial grids                                 
   RDEPT  =    2.240    core radius for aug-charge                              
                                                                                
   Atomic configuration                                                         
    9 entries                                                                   
     n  l   j            E        occ.                                          
     1  0  0.50     -5360.7193   2.0000                                         
     2  0  0.50      -598.4546   2.0000                                         
     2  1  1.50      -499.0155   6.0000                                         
     3  0  0.50       -66.5711   2.0000                                         
     3  1  1.50       -40.5282   6.0000                                         
     3  2  2.50        -2.4291   4.0000                                         
     4  0  0.50        -3.8743   1.0000                                         
     4  1  0.50        -2.7212   0.0000                                         
     4  3  2.50        -1.3606   0.0000                                         
   Description                                                                  
     l       E           TYP  RCUT    TYP  RCUT                                 
     2     -2.4290901     23  2.700                                             
     2     -3.7896727     23  2.700                                             
     0     -3.8742752     23  2.700                                             
     0     27.2116520     23  2.700                                             
     1     -2.7211652     23  2.700                                             
     1     27.2116520     23  2.700                                             
  local pseudopotential read in
  partial core-charges read in
  partial kinetic energy density read in
  atomic valenz-charges read in
  non local Contribution for L=           2  read in
    real space projection operators read in
  non local Contribution for L=           2  read in
    real space projection operators read in
  non local Contribution for L=           0  read in
    real space projection operators read in
  non local Contribution for L=           0  read in
    real space projection operators read in
  non local Contribution for L=           1  read in
    real space projection operators read in
  non local Contribution for L=           1  read in
    real space projection operators read in
    PAW grid and wavefunctions read in
 
   number of l-projection  operators is LMAX  =           6
   number of lm-projection operators is LMMAX =          18
 

 ----------------------------------------------------------------------------- 
|                                                                             |
|  ADVICE TO THIS USER RUNNING 'VASP/VAMP'   (HEAR YOUR MASTER'S VOICE ...):  |
|                                                                             |
|      You have a (more or less) 'large supercell' and for larger cells       |
|      it might be more efficient to use real space projection opertators     |
|      So try LREAL= Auto  in the INCAR   file.                               |
|      Mind:          For very  accurate calculation you might also keep the  |
|      reciprocal projection scheme          (i.e. LREAL=.FALSE.)             |
|                                                                             |
 ----------------------------------------------------------------------------- 

  PAW_PBE C 08Apr2002                   :
 energy of atom  1       EATOM= -147.1560
 kinetic energy error for atom=    0.0076 (will be added to EATOM!!)
  PAW_PBE N 08Apr2002                   :
 energy of atom  2       EATOM= -264.5486
 kinetic energy error for atom=    0.0138 (will be added to EATOM!!)
  PAW_PBE Fe 06Sep2000                  :
 energy of atom  3       EATOM= -594.3153
 kinetic energy error for atom=    0.0026 (will be added to EATOM!!)
  PAW_PBE V 08Apr2002                   :
 energy of atom  4       EATOM= -170.8679
 kinetic energy error for atom=    0.0003 (will be added to EATOM!!)
 
 
 POSCAR:  C  N Fe  V                             
  positions in cartesian coordinates
  No initial velocities read in
 exchange correlation table for  LEXCH =        8
   RHO(1)=    0.500       N(1)  =     2000
   RHO(2)=  100.500       N(2)  =     4000

 VTST: version 3.2, (02/03/18)

 CHAIN: initializing optimizer
 
 OPT: Using VASP Conjugate-Gradient optimizer
 CHAIN: Read ICHAIN            0
 
 POSCAR:  C  N Fe  V                             
  positions in cartesian coordinates
  No initial velocities read in
 


--------------------------------------------------------------------------------------------------------


 ion  position               nearest neighbor table
   1  0.221  0.001  0.492-   3 1.43  19 1.43   4 1.44
   2  0.057  0.101  0.488-   3 1.43  37 1.43   7 1.44
   3  0.111  0.000  0.490-   1 1.43   2 1.43  17 1.43
   4  0.277  0.102  0.491-  21 1.42   1 1.44   5 1.44
   5  0.224  0.203  0.494-   7 1.44   4 1.44   8 1.45
   6  0.056  0.300  0.492-  41 1.43  11 1.43   7 1.43
   7  0.112  0.201  0.491-   6 1.43   2 1.44   5 1.44
   8  0.281  0.305  0.501-   5 1.45  25 1.46   9 1.47
   9  0.220  0.404  0.506-  54 1.38  11 1.43   8 1.47
  10  0.052  0.501  0.501-  14 1.43  45 1.43  11 1.44
  11  0.109  0.401  0.499-   6 1.43   9 1.43  10 1.44
  12  0.216  0.601  0.516-  54 1.38  14 1.43  15 1.45
  13  0.052  0.700  0.501-  14 1.43  18 1.43  49 1.43
  14  0.107  0.601  0.505-  12 1.43  10 1.43  13 1.43
  15  0.273  0.703  0.519-  16 1.44  12 1.45  29 1.46
  16  0.219  0.800  0.504-  18 1.43  19 1.44  15 1.44
  17  0.054  0.900  0.492-  18 1.43  53 1.43   3 1.43
  18  0.108  0.800  0.498-  17 1.43  13 1.43  16 1.43
  19  0.276  0.901  0.498-   1 1.43  31 1.44  16 1.44
  20  0.554  0.998  0.486-  23 1.43  33 1.43  22 1.43
  21  0.388  0.099  0.488-  26 1.42   4 1.42  22 1.43
  22  0.443  0.999  0.489-  20 1.43  31 1.43  21 1.43
  23  0.611  0.097  0.482-  24 1.42  20 1.43  35 1.43
  24  0.556  0.196  0.485-  27 1.42  23 1.42  26 1.43
  25  0.394  0.299  0.502-  55 1.39  26 1.43   8 1.46
  26  0.445  0.198  0.490-  21 1.42  25 1.43  24 1.43
  27  0.614  0.294  0.489-  28 1.40  39 1.42  24 1.42
  28  0.561  0.388  0.506-  55 1.37  56 1.37  27 1.40
  29  0.382  0.713  0.538-  57 1.36  32 1.45  15 1.46  59 2.58
  30  0.554  0.803  0.508-  58 1.39  33 1.42  32 1.44
  31  0.387  0.900  0.498-  22 1.43  32 1.43  19 1.44
  32  0.442  0.804  0.513-  31 1.43  30 1.44  29 1.45
  33  0.609  0.900  0.492-  30 1.42  20 1.43  51 1.43
  34  0.889  0.999  0.485-  53 1.43  36 1.43  37 1.44
  35  0.722  0.098  0.481-  36 1.43  40 1.43  23 1.43
  36  0.778  0.998  0.484-  51 1.43  35 1.43  34 1.43
  37  0.945  0.099  0.485-  38 1.43   2 1.43  34 1.44
  38  0.890  0.199  0.484-  37 1.43  40 1.43  41 1.43
  39  0.724  0.296  0.487-  27 1.42  40 1.42  44 1.43
  40  0.779  0.197  0.482-  39 1.42  38 1.43  35 1.43
  41  0.945  0.300  0.489-   6 1.43  38 1.43  42 1.43
  42  0.889  0.399  0.492-  44 1.42  45 1.42  41 1.43
  43  0.719  0.493  0.506-  56 1.39  44 1.43  48 1.46
  44  0.778  0.397  0.494-  42 1.42  39 1.43  43 1.43
  45  0.941  0.500  0.498-  42 1.42  10 1.43  46 1.44
  46  0.883  0.599  0.501-  49 1.44  45 1.44  48 1.45
  47  0.717  0.702  0.507-  58 1.39  52 1.43  48 1.47
  48  0.771  0.598  0.506-  46 1.45  43 1.46  47 1.47
  49  0.940  0.699  0.498-  50 1.43  13 1.43  46 1.44
  50  0.886  0.799  0.494-  49 1.43  52 1.43  53 1.43
  51  0.721  0.899  0.490-  36 1.43  52 1.43  33 1.43
  52  0.775  0.800  0.496-  50 1.43  47 1.43  51 1.43
  53  0.943  0.899  0.489-  34 1.43  17 1.43  50 1.43
  54  0.266  0.503  0.519-   9 1.38  12 1.38  59 1.89
  55  0.455  0.388  0.516-  28 1.37  25 1.39  59 1.88
  56  0.614  0.483  0.519-  28 1.37  43 1.39  60 1.99
  57  0.429  0.647  0.583-  29 1.36  59 1.81  60 1.89
  58  0.611  0.709  0.520-  30 1.39  47 1.39  60 1.94
  59  0.398  0.509  0.560-  57 1.81  55 1.88  54 1.89  60 2.48  29 2.58
  60  0.567  0.598  0.582-  57 1.89  58 1.94  56 1.99  59 2.48
 
  LATTYP: Found a triclinic cell.
 ALAT       =    12.8621000000
 B/A-ratio  =     1.5493504171
 C/A-ratio  =     0.9637384253
 COS(alpha) =     0.0040212278
 COS(beta)  =     0.0091907744
 COS(gamma) =     0.0099237792
  
  Lattice vectors:
  
 A1 = (  12.8621000000,   0.0000000000,   0.0000000000)
 A2 = (   0.1977600802,  -0.0783203643,  19.9267647972)
 A3 = (   0.1139260828, -12.3951764545,   0.0000000000)


Analysis of symmetry for initial positions (statically):
=====================================================================
 Subroutine PRICEL returns:
 Original cell was already a primitive cell.
 

 Routine SETGRP: Setting up the symmetry group for a 
 triclinic supercell.


 Subroutine GETGRP returns: Found  1 space group operations
 (whereof  1 operations were pure point group operations)
 out of a pool of  2 trial point group operations.


The static configuration has the point symmetry C_1 .


Analysis of symmetry for dynamics (positions and initial velocities):
=====================================================================
 Subroutine PRICEL returns:
 Original cell was already a primitive cell.
 

 Routine SETGRP: Setting up the symmetry group for a 
 triclinic supercell.


 Subroutine GETGRP returns: Found  1 space group operations
 (whereof  1 operations were pure point group operations)
 out of a pool of  2 trial point group operations.


The dynamic configuration has the point symmetry C_1 .


Analysis of structural, dynamic, and magnetic symmetry:
=====================================================================
 Subroutine PRICEL returns:
 Original cell was already a primitive cell.
 

 Routine SETGRP: Setting up the symmetry group for a 
 triclinic supercell.


 Subroutine GETGRP returns: Found  1 space group operations
 (whereof  1 operations were pure point group operations)
 out of a pool of  2 trial point group operations.


The magnetic configuration has the point symmetry C_1 .


 Subroutine INISYM returns: Found  1 space group operations
 (whereof  1 operations are pure point group operations),
 and found     1 'primitive' translations

 
 
 KPOINTS: KPOINTS created by Atomic Simulation Env

Automatic generation of k-mesh.
Space group operators:
 irot       det(A)        alpha          n_x          n_y          n_z        tau_x        tau_y        tau_z
    1     1.000000     0.000000     1.000000     0.000000     0.000000     0.000000     0.000000     0.000000
 
 Subroutine IBZKPT returns following result:
 ===========================================
 
 Found      2 irreducible k-points:
 
 Following reciprocal coordinates:
            Coordinates               Weight
  0.250000  0.250000  0.000000      2.000000
 -0.250000  0.250000  0.000000      2.000000
 
 Following cartesian coordinates:
            Coordinates               Weight
  0.019437  0.020348 -0.000113      2.000000
 -0.019437  0.019990  0.000271      2.000000
 
 
 Subroutine IBZKPT_HF returns following result:
 ==============================================
 
 Found      4 k-points in 1st BZ
 the following      4 k-points will be used (e.g. in the exchange kernel)
 Following reciprocal coordinates:   # in IRBZ
  0.250000  0.250000  0.000000    0.25000000   1 t-inv F
 -0.250000  0.250000  0.000000    0.25000000   2 t-inv F
 -0.250000 -0.250000  0.000000    0.25000000   1 t-inv T
  0.250000 -0.250000  0.000000    0.25000000   2 t-inv T


--------------------------------------------------------------------------------------------------------




 Dimension of arrays:
   k-points           NKPTS =      2   k-points in BZ     NKDIM =      4   number of bands    NBANDS=    160
   number of dos      NEDOS =    301   number of ions     NIONS =     60
   non local maximal  LDIM  =      6   non local SUM 2l+1 LMDIM =     18
   total plane-waves  NPLWV = ******
   max r-space proj   IRMAX =      1   max aug-charges    IRDMAX=  24936
   dimension x,y,z NGX =    96 NGY =   90 NGZ =  150
   dimension x,y,z NGXF=   192 NGYF=  180 NGZF=  300
   support grid    NGXF=   192 NGYF=  180 NGZF=  300
   ions per type =              53   5   1   1
   NGX,Y,Z   is equivalent  to a cutoff of  12.41, 12.07, 12.51 a.u.
   NGXF,Y,Z  is equivalent  to a cutoff of  24.82, 24.14, 25.03 a.u.

 SYSTEM =  unknown system                          
 POSCAR =   C  N Fe  V                             

 Startparameter for this run:
   NWRITE =      2    write-flag & timer
   PREC   = accura    normal or accurate (medium, high low for compatibility)
   ISTART =      1    job   : 0-new  1-cont  2-samecut
   ICHARG =      0    charge: 1-file 2-atom 10-const
   ISPIN  =      2    spin polarized calculation?
   LNONCOLLINEAR =      F non collinear calculations
   LSORBIT =      F    spin-orbit coupling
   INIWAV =      1    electr: 0-lowe 1-rand  2-diag
   LASPH  =      T    aspherical Exc in radial PAW
   METAGGA=      F    non-selfconsistent MetaGGA calc.

 Electronic Relaxation 1
   ENCUT  =  500.0 eV  36.75 Ry    6.06 a.u.  23.45 22.60 36.33*2*pi/ulx,y,z
   ENINI  =  500.0     initial cutoff
   ENAUG  =  644.9 eV  augmentation charge cutoff
   NELM   =    250;   NELMIN=  2; NELMDL=  0     # of ELM steps 
   EDIFF  = 0.1E-03   stopping-criterion for ELM
   LREAL  =      F    real-space projection
   NLSPLINE    = F    spline interpolate recip. space projectors
   LCOMPAT=      F    compatible to vasp.4.4
   GGA_COMPAT  = T    GGA compatible to vasp.4.4-vasp.4.6
   LMAXPAW     = -100 max onsite density
   LMAXMIX     =    2 max onsite mixed and CHGCAR
   VOSKOWN=      0    Vosko Wilk Nusair interpolation
   ROPT   =    0.00000   0.00000   0.00000   0.00000
 Ionic relaxation
   EDIFFG = -.3E-01   stopping-criterion for IOM
   NSW    =      0    number of steps for IOM
   NBLOCK =      1;   KBLOCK =      1    inner block; outer block 
   IBRION =     -1    ionic relax: 0-MD 1-quasi-New 2-CG
   NFREE  =      1    steps in history (QN), initial steepest desc. (CG)
   ISIF   =      2    stress and relaxation
   IWAVPR =     10    prediction:  0-non 1-charg 2-wave 3-comb
   ISYM   =      3    0-nonsym 1-usesym 2-fastsym
   LCORR  =      T    Harris-Foulkes like correction to forces

   POTIM  = 0.5000    time-step for ionic-motion
   TEIN   =    0.0    initial temperature
   TEBEG  =    0.0;   TEEND  =   0.0 temperature during run
   SMASS  =  -3.00    Nose mass-parameter (am)
   estimated Nose-frequenzy (Omega)   =  0.10E-29 period in steps =****** mass=  -0.378E-26a.u.
   SCALEE = 1.0000    scale energy and forces
   NPACO  =    256;   APACO  = 16.0  distance and # of slots for P.C.
   PSTRESS=    0.0 pullay stress

  Mass of Ions in am
   POMASS =  12.01 14.00 55.85 50.94
  Ionic Valenz
   ZVAL   =   4.00  5.00  8.00  5.00
  Atomic Wigner-Seitz radii
   RWIGS  =  -1.00 -1.00 -1.00 -1.00
  virtual crystal weights 
   VCA    =   1.00  1.00  1.00  1.00
   NELECT =     250.0000    total number of electrons
   NUPDOWN=      -1.0000    fix difference up-down

 DOS related values:
   EMIN   =  10.00;   EMAX   =-10.00  energy-range for DOS
   EFERMI =   0.00
   ISMEAR =     0;   SIGMA  =   0.10  broadening in eV -4-tet -1-fermi 0-gaus

 Electronic relaxation 2 (details)
   IALGO  =     53    algorithm
   LDIAG  =      T    sub-space diagonalisation (order eigenvalues)
   LSUBROT=      F    optimize rotation matrix (better conditioning)
   TURBO    =      0    0=normal 1=particle mesh
   IRESTART =      0    0=no restart 2=restart with 2 vectors
   NREBOOT  =      0    no. of reboots
   NMIN     =      0    reboot dimension
   EREF     =   0.00    reference energy to select bands
   IMIX   =      4    mixing-type and parameters
     AMIX     =   0.40;   BMIX     =  1.00
     AMIX_MAG =   1.60;   BMIX_MAG =  1.00
     AMIN     =   0.10
     WC   =   100.;   INIMIX=   1;  MIXPRE=   1;  MAXMIX= -45

 Intra band minimization:
   WEIMIN = 0.0000     energy-eigenvalue tresh-hold
   EBREAK =  0.16E-06  absolut break condition
   DEPER  =   0.30     relativ break condition  

   TIME   =   0.20     timestep for ELM

  volume/ion in A,a.u.               =      52.95       357.31
  Fermi-wavevector in a.u.,A,eV,Ry     =   0.701543  1.325724  6.696281  0.492163
  Thomas-Fermi vector in A             =   1.785998
 
 Write flags
   LWAVE        =      T    write WAVECAR
   LDOWNSAMPLE  =      F    k-point downsampling of WAVECAR
   LCHARG       =      T    write CHGCAR
   LVTOT        =      F    write LOCPOT, total local potential
   LVHAR        =      F    write LOCPOT, Hartree potential only
   LELF         =      F    write electronic localiz. function (ELF)
   LORBIT       =     11    0 simple, 1 ext, 2 COOP (PROOUT), +10 PAW based schemes


 Dipole corrections
   LMONO  =      F    monopole corrections only (constant potential shift)
   LDIPOL =      T    correct potential (dipole corrections)
   IDIPOL =      3    1-x, 2-y, 3-z, 4-all directions 
   EPSILON=  1.0000000 bulk dielectric constant

 Exchange correlation treatment:
   GGA     =    PE    GGA type
   LEXCH   =     8    internal setting for exchange type
   VOSKOWN=      0    Vosko Wilk Nusair interpolation
   EXXOEP  =     0    0=HF, 1=EXX-LHF (local Hartree Fock) 2=EXX OEP
   LHFCALC =     T    Hartree Fock is set to
   LSYMGRAD=     F    symmetrize gradient (conserves proper symmetry)
   PRECFOCK=normal    Normal, Fast or Accurate (Low or Medium for compatibility)
   LRHFCALC=     F    long range Hartree Fock
   LRSCOR  =     F    long range correlation only (use DFT for short range part)
   LTHOMAS =     F    Thomas Fermi screening in HF
   LMODELHF=     F    short range full HF, long range fraction AEXX
   ENCUT4O =  -1.0   cutoff for four orbital integrals eV
   LMAXFOCK=     4    L truncation for augmentation on plane wave grid
   LMAXFOCKAE=  -1    L truncation for all-electron charge restoration on plane wave grid
   NMAXFOCKAE=   1    number of basis functions for all-electron charge restoration
   LFOCKAEDFT=     F  apply the AE augmentation even for DFT
   NKREDX  =     1    reduce k-point grid by
   NKREDY  =     1    reduce k-point grid by
   NKREDZ  =     1    reduce k-point grid by
   SHIFTRED=     F    shift reduced grid of Gamma
   HFKIDENT=     F    idential grid for each k-point
   ODDONLY =     F    use only odd q-grid points
   EVENONLY=     F    use only even q-grid points
   HFALPHA =   -1.0000 decay constant for conv. correction
   MCALPHA =    0.0000 extent of test-charge in conv. correction in multipole expansion
   AEXX    =    0.2500 exact exchange contribution
   HFSCREEN=    0.2000 screening length (either q_TF or 0.3 A-1)
   HFSCREENC=   0.2000 screening length for correlation (either q_TF or 0.3 A-1)
   HFRCUT  =    0.0000 spherical cutoff for potential kernel
   ALDAX   =    0.7500 LDA exchange part
   AGGAX   =    0.7500 GGA exchange part
   ALDAC   =    1.0000 LDA correlation
   AGGAC   =    1.0000 GGA correlation
   ENCUTFOCK=  -1.0 apply spherical cutoff to Coloumb kernel
   NBANDSGWLOW=     1    first orbital included in HF term
   NBLOCK_FOCK=    64    blocking factor in FOCK_ACC
 Linear response parameters
   LEPSILON=     F    determine dielectric tensor
   LRPA    =     F    only Hartree local field effects (RPA)
   LNABLA  =     F    use nabla operator in PAW spheres
   LVEL    =     F    velocity operator in full k-point grid
   LINTERFAST=   F  fast interpolation
   KINTER  =     0    interpolate to denser k-point grid
   CSHIFT  =0.1000    complex shift for real part using Kramers Kronig
   OMEGAMAX=  -1.0    maximum frequency
   DEG_THRESHOLD= 0.2000000E-02 threshold for treating states as degnerate
   RTIME   =   -0.100 relaxation time in fs
  (WPLASMAI=    0.000 imaginary part of plasma frequency in eV, 0.658/RTIME)
   DFIELD  = 0.0000000 0.0000000 0.0000000 field for delta impulse in time
 
 Orbital magnetization related:
   ORBITALMAG=     F  switch on orbital magnetization
   LCHIMAG   =     F  perturbation theory with respect to B field
   DQ        =  0.001000  dq finite difference perturbation B field
   LLRAUG    =     F  two centre corrections for induced B field



--------------------------------------------------------------------------------------------------------


 Static calculation
 charge density and potential will be updated during run
 spin polarized calculation
 Conjugate gradient for all bands (Freysoldt, et al. PRB 79, 241103 (2009))
 perform sub-space diagonalisation
    before iterative eigenvector-optimisation
 modified Broyden-mixing scheme, WC =      100.0
 initial mixing is a Kerker type mixing with AMIX =  0.4000 and BMIX =      1.0000
 Hartree-type preconditioning will be used
 using additional bands           35
 reciprocal scheme for non local part
 use partial core corrections
 no Harris-corrections to forces 
 use gradient corrections 
 use of overlap-Matrix (Vanderbilt PP)
 Gauss-broadening in eV      SIGMA  =   0.10


--------------------------------------------------------------------------------------------------------


  energy-cutoff  :      500.00
  volume of cell :     3176.88
      direct lattice vectors                 reciprocal lattice vectors
    12.862100000  0.000000000  0.000000000     0.077747802  0.000714593 -0.000768787
    -0.113926083 12.395176454  0.000000000     0.000000000  0.080676544  0.000317092
     0.197760080 -0.078320364 19.926764797     0.000000000  0.000000000  0.050183761

  length of vectors
    12.862100000 12.395700000 19.927900000     0.077754886  0.080677167  0.050183761


 
 old parameters found on file WAVECAR:
  energy-cutoff  :      500.00
  volume of cell :     3176.88
      direct lattice vectors                 reciprocal lattice vectors
    12.862100000  0.000000000  0.000000000     0.077747802  0.000714593 -0.000768787
    -0.113926083 12.395176454  0.000000000     0.000000000  0.080676544  0.000317092
     0.197760080 -0.078320364 19.926764797     0.000000000  0.000000000  0.050183761

  length of vectors

 
 k-points in units of 2pi/SCALE and weight: KPOINTS created by Atomic Simulation Env
   0.01943695  0.02034778 -0.00011292       0.500
  -0.01943695  0.01999049  0.00027147       0.500
 
 k-points in reciprocal lattice and weights: KPOINTS created by Atomic Simulation Env
   0.25000000  0.25000000  0.00000000       0.500
  -0.25000000  0.25000000  0.00000000       0.500
 
 position of ions in fractional coordinates (direct lattice) 
   0.22136288  0.00063584  0.49248346
   0.05659070  0.10053251  0.48790872
   0.11050226  0.00021353  0.49035142
   0.27727528  0.10160477  0.49109471
   0.22399186  0.20340875  0.49386400
   0.05578318  0.30049053  0.49191774
   0.11231886  0.20148871  0.49094444
   0.28068229  0.30461517  0.50136566
   0.21994692  0.40448545  0.50617156
   0.05237422  0.50090198  0.50063107
   0.10947160  0.40141681  0.49857603
   0.21631257  0.60109834  0.51559038
   0.05157390  0.70043887  0.50071300
   0.10669255  0.60144443  0.50544184
   0.27342961  0.70250863  0.51935684
   0.21949365  0.80049073  0.50431740
   0.05432474  0.89982751  0.49179262
   0.10849378  0.80020199  0.49827262
   0.27579616  0.90078236  0.49848043
   0.55407229  0.99815751  0.48592801
   0.38795544  0.09939337  0.48804668
   0.44312127  0.99943573  0.48854341
   0.61110910  0.09707703  0.48176516
   0.55611468  0.19574313  0.48497132
   0.39361218  0.29860778  0.50152254
   0.44500617  0.19833099  0.48950870
   0.61400630  0.29351805  0.48902562
   0.56074467  0.38832723  0.50608338
   0.38241737  0.71296926  0.53806885
   0.55439817  0.80255172  0.50791414
   0.38738055  0.90047037  0.49819281
   0.44249123  0.80404724  0.51297203
   0.60944796  0.89952963  0.49231561
   0.88892418  0.99896868  0.48520513
   0.72249042  0.09764068  0.48115589
   0.77752769  0.99828445  0.48406491
   0.94540243  0.09940698  0.48480751
   0.89014995  0.19880491  0.48424347
   0.72420955  0.29601607  0.48693149
   0.77917950  0.19731694  0.48226194
   0.94479762  0.29968434  0.48855318
   0.88853185  0.39896699  0.49239975
   0.71923880  0.49269110  0.50562755
   0.77780232  0.39687851  0.49351495
   0.94123463  0.50014100  0.49799068
   0.88325049  0.59912041  0.50099599
   0.71715056  0.70203348  0.50674797
   0.77051806  0.59808040  0.50603534
   0.94026154  0.69921770  0.49848529
   0.88641646  0.79916349  0.49387398
   0.72082554  0.89923629  0.49015830
   0.77526077  0.79955067  0.49603880
   0.94311090  0.89908918  0.48947968
   0.26642358  0.50305069  0.51936676
   0.45526572  0.38804971  0.51603511
   0.61353884  0.48265513  0.51881373
   0.42884293  0.64656538  0.58283188
   0.61068448  0.70921379  0.51952943
   0.39810958  0.50864118  0.56011426
   0.56749720  0.59804588  0.58220484
 
 position of ions in cartesian coordinates  (Angst):
   2.94451257 -0.03069008  9.81360205
   0.81291080  1.20790502  9.72244237
   1.51823879 -0.03575780  9.77111744
   3.65188592  1.22094640  9.78592886
   2.95549869  2.48260773  9.84111185
   0.78053687  3.68610599  9.80232919
   1.51879075  2.45903718  9.78293436
   3.67461014  3.73649170  9.99059558
   2.88299842  4.97402494 10.08636154
   0.71558148  6.16955876  9.97595763
   1.46090128  4.93658359  9.93500720
   2.81571628  7.41033871 10.27404820
   0.68257138  8.64284742  9.97759023
   1.40372625  7.41542340 10.07182072
   3.53955304  8.66704226 10.34910154
   2.83168633  9.88272549 10.04941413
   0.69347339 11.11500338  9.79983594
   1.40283239  9.87961992  9.92896133
   3.54327475 11.12631517  9.93310236
   7.10891412 12.33428038  9.68297307
   5.07511427  1.19377436  9.72519136
   5.68222269 12.34991938  9.73508962
   7.94436069  1.16555491  9.60002102
   7.22641033  2.38828752  9.66390935
   5.12784115  3.66201664  9.99372167
   5.79792406  2.42000914  9.75432472
   7.96068081  3.59990737  9.74469847
   7.26819647  4.77374785 10.08460443
   4.94387319  8.79523804 10.72197141
   7.13973831  9.90799019 10.12108562
   4.97846293 11.12247044  9.92737091
   5.70120992  9.92613125 10.22187302
   7.83366109 11.11127012  9.81025745
  11.41557734 12.34439166  9.66856846
   9.37677359  1.17258918  9.58788034
   9.98263697 12.33599971  9.64584760
  12.24441118  1.19419680  9.66064532
  11.52231267  2.42629581  9.64940566
   9.37742732  3.63103481  9.70296930
  10.09477724  2.40800735  9.60992017
  12.21455597  3.67637665  9.73528423
  11.48030973  4.90670130  9.81193397
   9.29478398  6.06739225 10.07552123
  10.05655394  4.88072692  9.83415640
  12.14775751  6.16033310  9.92334324
  11.39127771  7.38696502  9.98322932
   9.24429684  8.66214022 10.09784754
   9.94241704  7.37367920 10.08364721
  12.11265933  8.62788525  9.93319909
  11.40780020  9.86709207  9.84131057
   9.26581750 11.10780307  9.76726914
   9.97848850  9.87172169  9.88444841
  12.12475651 11.10603285  9.75374644
   3.47216616  6.19472512 10.34929920
   5.91351539  4.76952858 10.28291024
   7.93901161  5.94196183 10.33827920
   5.55742086  7.96864434 11.61395384
   7.87662909  8.75014039 10.35254085
   5.17334596  6.26082884 11.16126512
   7.34620965  7.36728571 11.60145885
 


--------------------------------------------------------------------------------------------------------


 k-point  1 :   0.2500 0.2500 0.0000  plane waves:   80688
 k-point  2 :  -0.2500 0.2500 0.0000  plane waves:   80694

 maximum and minimum number of plane-waves per node :      5103     5004

 maximum number of plane-waves:     80694
 maximum index in each direction: 
   IXMAX=   23   IYMAX=   22   IZMAX=   36
   IXMIN=  -23   IYMIN=  -22   IZMIN=  -36


 parallel 3D FFT for wavefunctions:
    minimum data exchange during FFTs selected (reduces bandwidth)
 parallel 3D FFT for charge:
    minimum data exchange during FFTs selected (reduces bandwidth)


 FFT grid for exact exchange (Hartree Fock) 
  NGX = 72; NGY = 70; NGZ =112

 
 Radii for the augmentation spheres in the non-local exchange
 for species   1 augmentation radius   0.874 (default was   0.699)
       energy cutoff for augmentation   2000.0
 for species   2 augmentation radius   0.886 (default was   0.709)
       energy cutoff for augmentation   2000.0
 for species   3 augmentation radius   1.263 (default was   1.010)
       energy cutoff for augmentation   2000.0
 for species   4 augmentation radius   1.508 (default was   1.206)
       energy cutoff for augmentation   2000.0

 real space projection operators:
  total allocation   :       2806.51 KBytes
  max/ min on nodes  :        194.31        158.51

 Maximum index for augmentation-charges in exchange          121
  SETUP_FOCK is finished

 total amount of memory used by VASP MPI-rank0   297780. kBytes
=======================================================================

   base      :      30000. kBytes
   nonl-proj :      10794. kBytes
   fftplans  :      26523. kBytes
   grid      :      69087. kBytes
   one-center:        124. kBytes
   HF        :         23. kBytes
   nonlr-proj:       2931. kBytes
   wavefun   :     158298. kBytes
 
     INWAV:  cpu time    8.0645: real time   10.7591
 Broyden mixing: mesh for mixing (old mesh)
   NGX = 47   NGY = 45   NGZ = 73
  (NGX  =192   NGY  =180   NGZ  =300)
  gives a total of 154395 points

 charge density for first step will be calculated from the start-wavefunctions


--------------------------------------------------------------------------------------------------------


 Maximum index for augmentation-charges         1453 (set IRDMAX)


--------------------------------------------------------------------------------------------------------


 initial charge from wavefunction
 First call to EWALD:  gamma=   0.121
 Maximum number of real-space cells 3x 3x 2
 Maximum number of reciprocal cells 2x 2x 4

    FEWALD:  cpu time    0.0125: real time    0.0125


--------------------------------------- Iteration      1(   1)  ---------------------------------------


    POTLOK:  cpu time    4.6568: real time    4.6623
    SETDIJ:  cpu time    2.6446: real time    2.6461
    TRIAL :  cpu time  535.3648: real time  536.0518
    CORREC:  cpu time    0.0015: real time    0.0015
    CHARGE:  cpu time    1.4748: real time    1.4753
    --------------------------------------------
      LOOP:  cpu time  544.1842: real time  544.8799

 eigenvalue-minimisations  :     0
 total energy-change (2. order) :-0.6300610E+03  (-0.4688748E+00)
 number of electron     250.0000012 magnetization       4.1123651
 augmentation part       12.1343458 magnetization       2.9456442

 DIPCOR: dipole corrections for dipol
 direction  3 min pos     1,
 dipolmoment          -0.002127      0.000842     -0.214314 electrons x Angstroem
 Tr[quadrupol]     -6838.340979

 energy correction for charged system         0.000000 eV
 dipol+quadrupol energy correction            0.001313 eV
 added-field ion interaction          0.000000 eV  (added to PSCEN)


 Free energy of the ion-electron system (eV)
  ---------------------------------------------------
  alpha Z        PSCENC =       105.81065618
  Ewald energy   TEWEN  =     39992.46459046
  -Hartree energ DENC   =    -48423.17170305
  -exchange      EXHF   =       564.41693157
  -V(xc)+E(xc)   XCENC  =       603.75037738
  PAW double counting   =     26860.81145049   -26861.37162160
  entropy T*S    EENTRO =        -0.01461588
  eigenvalues    EBANDS =     -3243.15120287
  atomic energy  EATOM  =      9770.39457741
  ---------------------------------------------------
  free energy    TOTEN  =      -630.06103303 eV

  energy without entropy =     -630.04641716  energy(sigma->0) =     -630.05372510
  exchange ACFDT corr.  =        -0.01229914  see jH, gK, PRB 81, 115126


--------------------------------------------------------------------------------------------------------




--------------------------------------- Iteration      1(   2)  ---------------------------------------


    POTLOK:  cpu time    4.7066: real time    4.7099
    SETDIJ:  cpu time    2.6396: real time    2.6417
    TRIAL :  cpu time  534.5346: real time  535.6182
    CORREC:  cpu time    0.0012: real time    0.0012
    CHARGE:  cpu time    1.4721: real time    1.4730
    --------------------------------------------
      LOOP:  cpu time  543.3654: real time  544.4567

 eigenvalue-minimisations  :     0
 total energy-change (2. order) :-0.3845978E+00  (-0.4166750E+00)
 number of electron     250.0000012 magnetization       4.1153597
 augmentation part       12.0985357 magnetization       3.0225787

 DIPCOR: dipole corrections for dipol
 direction  3 min pos     1,
 dipolmoment          -0.002343      0.000928     -0.236116 electrons x Angstroem
 Tr[quadrupol]     -6838.226503

 energy correction for charged system         0.000000 eV
 dipol+quadrupol energy correction            0.001594 eV
 added-field ion interaction          0.000000 eV  (added to PSCEN)


 Free energy of the ion-electron system (eV)
  ---------------------------------------------------
  alpha Z        PSCENC =       105.81093700
  Ewald energy   TEWEN  =     39992.46459046
  -Hartree energ DENC   =    -48409.46469086
  -exchange      EXHF   =       564.31573979
  -V(xc)+E(xc)   XCENC  =       603.42926680
  PAW double counting   =     27000.03725190   -27000.27271454
  entropy T*S    EENTRO =        -0.01451536
  eigenvalues    EBANDS =     -3257.14597291
  atomic energy  EATOM  =      9770.39457741
  ---------------------------------------------------
  free energy    TOTEN  =      -630.44563081 eV

  energy without entropy =     -630.43111545  energy(sigma->0) =     -630.43837313
  exchange ACFDT corr.  =        -0.01071850  see jH, gK, PRB 81, 115126


--------------------------------------------------------------------------------------------------------




--------------------------------------- Iteration      1(   3)  ---------------------------------------


    POTLOK:  cpu time    4.7476: real time    4.7569
    SETDIJ:  cpu time    2.6295: real time    2.6401
    TRIAL :  cpu time  534.9552: real time  535.5063
    CORREC:  cpu time    0.0013: real time    0.0013
    CHARGE:  cpu time    1.4728: real time    1.4735
    --------------------------------------------
      LOOP:  cpu time  543.8143: real time  544.3876

 eigenvalue-minimisations  :     0
 total energy-change (2. order) :-0.3232494E+00  (-0.2584335E+00)
 number of electron     250.0000012 magnetization       4.1161802
 augmentation part       12.0984661 magnetization       3.0927299

 DIPCOR: dipole corrections for dipol
 direction  3 min pos     1,
 dipolmoment          -0.002566      0.001016     -0.258579 electrons x Angstroem
 Tr[quadrupol]     -6838.128355

 energy correction for charged system         0.000000 eV
 dipol+quadrupol energy correction            0.001912 eV
 added-field ion interaction          0.000000 eV  (added to PSCEN)


 Free energy of the ion-electron system (eV)
  ---------------------------------------------------
  alpha Z        PSCENC =       105.81125479
  Ewald energy   TEWEN  =     39992.46459046
  -Hartree energ DENC   =    -48394.78761016
  -exchange      EXHF   =       564.27084330
  -V(xc)+E(xc)   XCENC  =       603.07329975
  PAW double counting   =     27173.81194502   -27173.76358099
  entropy T*S    EENTRO =        -0.01447099
  eigenvalues    EBANDS =     -3272.02968440
  atomic energy  EATOM  =      9770.39457741
  ---------------------------------------------------
  free energy    TOTEN  =      -630.76888017 eV

  energy without entropy =     -630.75440917  energy(sigma->0) =     -630.76164467
  exchange ACFDT corr.  =        -0.00940553  see jH, gK, PRB 81, 115126


--------------------------------------------------------------------------------------------------------




--------------------------------------- Iteration      1(   4)  ---------------------------------------


    POTLOK:  cpu time    4.7447: real time    4.7570
    SETDIJ:  cpu time    2.6399: real time    2.6412
    TRIAL :  cpu time  534.5931: real time  535.1306
    CORREC:  cpu time    0.0012: real time    0.0012
    CHARGE:  cpu time    1.4751: real time    1.4763
    --------------------------------------------
      LOOP:  cpu time  543.4608: real time  544.0149

 eigenvalue-minimisations  :     0
 total energy-change (2. order) :-0.2001922E+00  (-0.1543453E+00)
 number of electron     250.0000012 magnetization       4.1151169
 augmentation part       12.1092674 magnetization       3.1430889

 DIPCOR: dipole corrections for dipol
 direction  3 min pos     1,
 dipolmoment          -0.002819      0.001116     -0.284053 electrons x Angstroem
 Tr[quadrupol]     -6838.151184

 energy correction for charged system         0.000000 eV
 dipol+quadrupol energy correction            0.002307 eV
 added-field ion interaction          0.000000 eV  (added to PSCEN)


 Free energy of the ion-electron system (eV)
  ---------------------------------------------------
  alpha Z        PSCENC =       105.81165008
  Ewald energy   TEWEN  =     39992.46459046
  -Hartree energ DENC   =    -48389.12082474
  -exchange      EXHF   =       564.42070425
  -V(xc)+E(xc)   XCENC  =       602.92622651
  PAW double counting   =     27317.81734198   -27317.79266795
  entropy T*S    EENTRO =        -0.01432548
  eigenvalues    EBANDS =     -3277.87619943
  atomic energy  EATOM  =      9770.39457741
  ---------------------------------------------------
  free energy    TOTEN  =      -630.96907240 eV

  energy without entropy =     -630.95474692  energy(sigma->0) =     -630.96190966
  exchange ACFDT corr.  =        -0.00841624  see jH, gK, PRB 81, 115126


--------------------------------------------------------------------------------------------------------




--------------------------------------- Iteration      1(   5)  ---------------------------------------


    POTLOK:  cpu time    4.7699: real time    4.7726
    SETDIJ:  cpu time    2.5784: real time    2.5793
    TRIAL :  cpu time  534.2533: real time  534.7051
    CORREC:  cpu time    0.0013: real time    0.0013
    CHARGE:  cpu time    1.4625: real time    1.4641
    --------------------------------------------
      LOOP:  cpu time  543.0703: real time  543.5290

 eigenvalue-minimisations  :     0
 total energy-change (2. order) :-0.1235017E+00  (-0.1007175E+00)
 number of electron     250.0000012 magnetization       4.1125869
 augmentation part       12.1141044 magnetization       3.1766181

 DIPCOR: dipole corrections for dipol
 direction  3 min pos     1,
 dipolmoment          -0.003160      0.001251     -0.318401 electrons x Angstroem
 Tr[quadrupol]     -6838.276270

 energy correction for charged system         0.000000 eV
 dipol+quadrupol energy correction            0.002899 eV
 added-field ion interaction          0.000000 eV  (added to PSCEN)


 Free energy of the ion-electron system (eV)
  ---------------------------------------------------
  alpha Z        PSCENC =       105.81224184
  Ewald energy   TEWEN  =     39992.46459046
  -Hartree energ DENC   =    -48391.95653739
  -exchange      EXHF   =       564.72906258
  -V(xc)+E(xc)   XCENC  =       603.00181692
  PAW double counting   =     27420.18565055   -27420.30276651
  entropy T*S    EENTRO =        -0.01405919
  eigenvalues    EBANDS =     -3275.40688450
  atomic energy  EATOM  =      9770.39457741
  ---------------------------------------------------
  free energy    TOTEN  =      -631.09257413 eV

  energy without entropy =     -631.07851493  energy(sigma->0) =     -631.08554453
  exchange ACFDT corr.  =        -0.00760724  see jH, gK, PRB 81, 115126


--------------------------------------------------------------------------------------------------------




--------------------------------------- Iteration      1(   6)  ---------------------------------------


    POTLOK:  cpu time    4.7455: real time    4.7469
    SETDIJ:  cpu time    2.5947: real time    2.5960
    TRIAL :  cpu time  534.2027: real time  534.6294
    CORREC:  cpu time    0.0012: real time    0.0012
    CHARGE:  cpu time    1.4639: real time    1.4642
    --------------------------------------------
      LOOP:  cpu time  543.0130: real time  543.4448

 eigenvalue-minimisations  :     0
 total energy-change (2. order) :-0.8286155E-01  (-0.6764208E-01)
 number of electron     250.0000012 magnetization       4.1082027
 augmentation part       12.1153888 magnetization       3.2001035

 DIPCOR: dipole corrections for dipol
 direction  3 min pos     1,
 dipolmoment          -0.003491      0.001383     -0.351765 electrons x Angstroem
 Tr[quadrupol]     -6838.422041

 energy correction for charged system         0.000000 eV
 dipol+quadrupol energy correction            0.003539 eV
 added-field ion interaction          0.000000 eV  (added to PSCEN)


 Free energy of the ion-electron system (eV)
  ---------------------------------------------------
  alpha Z        PSCENC =       105.81288125
  Ewald energy   TEWEN  =     39992.46459046
  -Hartree energ DENC   =    -48397.77842318
  -exchange      EXHF   =       565.06574067
  -V(xc)+E(xc)   XCENC  =       603.17036037
  PAW double counting   =     27486.69151361   -27486.87654986
  entropy T*S    EENTRO =        -0.01362551
  eigenvalues    EBANDS =     -3270.10606720
  atomic energy  EATOM  =      9770.39457741
  ---------------------------------------------------
  free energy    TOTEN  =      -631.17543567 eV

  energy without entropy =     -631.16181017  energy(sigma->0) =     -631.16862292
  exchange ACFDT corr.  =        -0.00694125  see jH, gK, PRB 81, 115126


--------------------------------------------------------------------------------------------------------




--------------------------------------- Iteration      1(   7)  ---------------------------------------


    POTLOK:  cpu time    4.7349: real time    4.7370
    SETDIJ:  cpu time    2.6015: real time    2.6025
    TRIAL :  cpu time  533.4498: real time  533.8759
    CORREC:  cpu time    0.0012: real time    0.0012
    CHARGE:  cpu time    1.4555: real time    1.4564
    --------------------------------------------
      LOOP:  cpu time  542.2467: real time  542.6785

 eigenvalue-minimisations  :     0
 total energy-change (2. order) :-0.5672299E-01  (-0.4609038E-01)
 number of electron     250.0000012 magnetization       4.1021686
 augmentation part       12.1188962 magnetization       3.2186701

 DIPCOR: dipole corrections for dipol
 direction  3 min pos     1,
 dipolmoment          -0.003707      0.001468     -0.373476 electrons x Angstroem
 Tr[quadrupol]     -6838.534168

 energy correction for charged system         0.000000 eV
 dipol+quadrupol energy correction            0.003989 eV
 added-field ion interaction          0.000000 eV  (added to PSCEN)


 Free energy of the ion-electron system (eV)
  ---------------------------------------------------
  alpha Z        PSCENC =       105.81333154
  Ewald energy   TEWEN  =     39992.46459046
  -Hartree energ DENC   =    -48402.81491121
  -exchange      EXHF   =       565.33970305
  -V(xc)+E(xc)   XCENC  =       603.32588942
  PAW double counting   =     27526.21609615   -27526.40725421
  entropy T*S    EENTRO =        -0.01303573
  eigenvalues    EBANDS =     -3265.55055578
  atomic energy  EATOM  =      9770.39457741
  ---------------------------------------------------
  free energy    TOTEN  =      -631.23215867 eV

  energy without entropy =     -631.21912294  energy(sigma->0) =     -631.22564080
  exchange ACFDT corr.  =        -0.00636104  see jH, gK, PRB 81, 115126


--------------------------------------------------------------------------------------------------------




--------------------------------------- Iteration      1(   8)  ---------------------------------------


    POTLOK:  cpu time    4.7313: real time    4.7329
    SETDIJ:  cpu time    2.5977: real time    2.5990
    TRIAL :  cpu time  533.4359: real time  533.9003
    CORREC:  cpu time    0.0010: real time    0.0010
    CHARGE:  cpu time    1.4454: real time    1.4461
    --------------------------------------------
      LOOP:  cpu time  542.2184: real time  542.6887

 eigenvalue-minimisations  :     0
 total energy-change (2. order) :-0.3970471E-01  (-0.3273064E-01)
 number of electron     250.0000012 magnetization       4.0953990
 augmentation part       12.1247032 magnetization       3.2344672

 DIPCOR: dipole corrections for dipol
 direction  3 min pos     1,
 dipolmoment          -0.003805      0.001507     -0.383436 electrons x Angstroem
 Tr[quadrupol]     -6838.602937

 energy correction for charged system         0.000000 eV
 dipol+quadrupol energy correction            0.004204 eV
 added-field ion interaction          0.000000 eV  (added to PSCEN)


 Free energy of the ion-electron system (eV)
  ---------------------------------------------------
  alpha Z        PSCENC =       105.81354712
  Ewald energy   TEWEN  =     39992.46459046
  -Hartree energ DENC   =    -48406.01883297
  -exchange      EXHF   =       565.52827905
  -V(xc)+E(xc)   XCENC  =       603.43134775
  PAW double counting   =     27547.53727545   -27547.74757288
  entropy T*S    EENTRO =        -0.01236726
  eigenvalues    EBANDS =     -3262.66203903
  atomic energy  EATOM  =      9770.39457741
  ---------------------------------------------------
  free energy    TOTEN  =      -631.27186337 eV

  energy without entropy =     -631.25949612  energy(sigma->0) =     -631.26567974
  exchange ACFDT corr.  =        -0.00582684  see jH, gK, PRB 81, 115126


--------------------------------------------------------------------------------------------------------




--------------------------------------- Iteration      1(   9)  ---------------------------------------


    POTLOK:  cpu time    4.6913: real time    5.1319
    SETDIJ:  cpu time    2.4813: real time    2.4823
    TRIAL :  cpu time  533.1158: real time  533.5413
    CORREC:  cpu time    0.0011: real time    0.0011
    CHARGE:  cpu time    1.4465: real time    1.4474
    --------------------------------------------
      LOOP:  cpu time  541.7445: real time  542.6142

 eigenvalue-minimisations  :     0
 total energy-change (2. order) :-0.2874497E-01  (-0.2374891E-01)
 number of electron     250.0000012 magnetization       4.0887509
 augmentation part       12.1300224 magnetization       3.2479487

 DIPCOR: dipole corrections for dipol
 direction  3 min pos     1,
 dipolmoment          -0.003849      0.001524     -0.387808 electrons x Angstroem
 Tr[quadrupol]     -6838.641660

 energy correction for charged system         0.000000 eV
 dipol+quadrupol energy correction            0.004301 eV
 added-field ion interaction          0.000000 eV  (added to PSCEN)


 Free energy of the ion-electron system (eV)
  ---------------------------------------------------
  alpha Z        PSCENC =       105.81364354
  Ewald energy   TEWEN  =     39992.46459046
  -Hartree energ DENC   =    -48407.73746610
  -exchange      EXHF   =       565.64871301
  -V(xc)+E(xc)   XCENC  =       603.49314580
  PAW double counting   =     27557.96862027   -27558.22822133
  entropy T*S    EENTRO =        -0.01169801
  eigenvalues    EBANDS =     -3261.10584414
  atomic energy  EATOM  =      9770.39457741
  ---------------------------------------------------
  free energy    TOTEN  =      -631.30060834 eV

  energy without entropy =     -631.28891034  energy(sigma->0) =     -631.29475934
  exchange ACFDT corr.  =        -0.00533556  see jH, gK, PRB 81, 115126


--------------------------------------------------------------------------------------------------------




--------------------------------------- Iteration      1(  10)  ---------------------------------------


    POTLOK:  cpu time    4.7137: real time    4.7160
    SETDIJ:  cpu time    2.5857: real time    2.5867
    TRIAL :  cpu time  533.3066: real time  533.7356
    CORREC:  cpu time    0.0011: real time    0.0011
    CHARGE:  cpu time    1.4461: real time    1.4469
    --------------------------------------------
      LOOP:  cpu time  542.0619: real time  542.4971

 eigenvalue-minimisations  :     0
 total energy-change (2. order) :-0.2108923E-01  (-0.1756715E-01)
 number of electron     250.0000012 magnetization       4.0826210
 augmentation part       12.1333223 magnetization       3.2592668

 DIPCOR: dipole corrections for dipol
 direction  3 min pos     1,
 dipolmoment          -0.003891      0.001541     -0.392056 electrons x Angstroem
 Tr[quadrupol]     -6838.666032

 energy correction for charged system         0.000000 eV
 dipol+quadrupol energy correction            0.004396 eV
 added-field ion interaction          0.000000 eV  (added to PSCEN)


 Free energy of the ion-electron system (eV)
  ---------------------------------------------------
  alpha Z        PSCENC =       105.81373827
  Ewald energy   TEWEN  =     39992.46459046
  -Hartree energ DENC   =    -48408.61416257
  -exchange      EXHF   =       565.72767559
  -V(xc)+E(xc)   XCENC  =       603.52970062
  PAW double counting   =     27562.53591544   -27562.84904547
  entropy T*S    EENTRO =        -0.01106737
  eigenvalues    EBANDS =     -3260.31298931
  atomic energy  EATOM  =      9770.39457741
  ---------------------------------------------------
  free energy    TOTEN  =      -631.32169757 eV

  energy without entropy =     -631.31063020  energy(sigma->0) =     -631.31616389
  exchange ACFDT corr.  =        -0.00489696  see jH, gK, PRB 81, 115126


--------------------------------------------------------------------------------------------------------




--------------------------------------- Iteration      1(  11)  ---------------------------------------


    POTLOK:  cpu time    4.7056: real time    4.7078
    SETDIJ:  cpu time    2.5608: real time    2.5615
    TRIAL :  cpu time  532.8723: real time  533.4778
    CORREC:  cpu time    0.0011: real time    0.0011
    CHARGE:  cpu time    1.4408: real time    1.4421
    --------------------------------------------
      LOOP:  cpu time  541.5888: real time  542.2000

 eigenvalue-minimisations  :     0
 total energy-change (2. order) :-0.1572879E-01  (-0.1329571E-01)
 number of electron     250.0000012 magnetization       4.0770621
 augmentation part       12.1350846 magnetization       3.2687353

 DIPCOR: dipole corrections for dipol
 direction  3 min pos     1,
 dipolmoment          -0.003948      0.001564     -0.397849 electrons x Angstroem
 Tr[quadrupol]     -6838.685411

 energy correction for charged system         0.000000 eV
 dipol+quadrupol energy correction            0.004526 eV
 added-field ion interaction          0.000000 eV  (added to PSCEN)


 Free energy of the ion-electron system (eV)
  ---------------------------------------------------
  alpha Z        PSCENC =       105.81386915
  Ewald energy   TEWEN  =     39992.46459046
  -Hartree energ DENC   =    -48409.13588158
  -exchange      EXHF   =       565.78543188
  -V(xc)+E(xc)   XCENC  =       603.55536644
  PAW double counting   =     27564.28439326   -27564.63478927
  entropy T*S    EENTRO =        -0.01048304
  eigenvalues    EBANDS =     -3259.85391674
  atomic energy  EATOM  =      9770.39457741
  ---------------------------------------------------
  free energy    TOTEN  =      -631.33742636 eV

  energy without entropy =     -631.32694332  energy(sigma->0) =     -631.33218484
  exchange ACFDT corr.  =        -0.00451323  see jH, gK, PRB 81, 115126


--------------------------------------------------------------------------------------------------------




--------------------------------------- Iteration      1(  12)  ---------------------------------------


    POTLOK:  cpu time    4.6860: real time    4.6879
    SETDIJ:  cpu time    2.5849: real time    2.5861
    TRIAL :  cpu time  533.0524: real time  533.4754
    CORREC:  cpu time    0.0010: real time    0.0010
    CHARGE:  cpu time    1.4423: real time    1.4430
    --------------------------------------------
      LOOP:  cpu time  541.7788: real time  542.2072

 eigenvalue-minimisations  :     0
 total energy-change (2. order) :-0.1198053E-01  (-0.1023881E-01)
 number of electron     250.0000012 magnetization       4.0720181
 augmentation part       12.1364528 magnetization       3.2767355

 DIPCOR: dipole corrections for dipol
 direction  3 min pos     1,
 dipolmoment          -0.004009      0.001588     -0.403971 electrons x Angstroem
 Tr[quadrupol]     -6838.702692

 energy correction for charged system         0.000000 eV
 dipol+quadrupol energy correction            0.004667 eV
 added-field ion interaction          0.000000 eV  (added to PSCEN)


 Free energy of the ion-electron system (eV)
  ---------------------------------------------------
  alpha Z        PSCENC =       105.81400951
  Ewald energy   TEWEN  =     39992.46459046
  -Hartree energ DENC   =    -48409.54070434
  -exchange      EXHF   =       565.83201051
  -V(xc)+E(xc)   XCENC  =       603.57649844
  PAW double counting   =     27564.95637996   -27565.32855059
  entropy T*S    EENTRO =        -0.00994177
  eigenvalues    EBANDS =     -3259.50773521
  atomic energy  EATOM  =      9770.39457741
  ---------------------------------------------------
  free energy    TOTEN  =      -631.34940689 eV

  energy without entropy =     -631.33946512  energy(sigma->0) =     -631.34443601
  exchange ACFDT corr.  =        -0.00417801  see jH, gK, PRB 81, 115126


--------------------------------------------------------------------------------------------------------




--------------------------------------- Iteration      1(  13)  ---------------------------------------


    POTLOK:  cpu time    4.6652: real time    4.6669
    SETDIJ:  cpu time    2.6004: real time    2.6106
    TRIAL :  cpu time  532.3317: real time  532.7471
    CORREC:  cpu time    0.0013: real time    0.0013
    CHARGE:  cpu time    1.4445: real time    1.4448
    --------------------------------------------
      LOOP:  cpu time  541.0545: real time  541.4839

 eigenvalue-minimisations  :     0
 total energy-change (2. order) :-0.9306274E-02  (-0.8032684E-02)
 number of electron     250.0000012 magnetization       4.0674460
 augmentation part       12.1379524 magnetization       3.2835512

 DIPCOR: dipole corrections for dipol
 direction  3 min pos     1,
 dipolmoment          -0.004057      0.001607     -0.408836 electrons x Angstroem
 Tr[quadrupol]     -6838.717927

 energy correction for charged system         0.000000 eV
 dipol+quadrupol energy correction            0.004780 eV
 added-field ion interaction          0.000000 eV  (added to PSCEN)


 Free energy of the ion-electron system (eV)
  ---------------------------------------------------
  alpha Z        PSCENC =       105.81412260
  Ewald energy   TEWEN  =     39992.46459046
  -Hartree energ DENC   =    -48409.90986029
  -exchange      EXHF   =       565.87108314
  -V(xc)+E(xc)   XCENC  =       603.59461056
  PAW double counting   =     27565.53077543   -27565.92028884
  entropy T*S    EENTRO =        -0.00944137
  eigenvalues    EBANDS =     -3259.18838186
  atomic energy  EATOM  =      9770.39457741
  ---------------------------------------------------
  free energy    TOTEN  =      -631.35871317 eV

  energy without entropy =     -631.34927180  energy(sigma->0) =     -631.35399248
  exchange ACFDT corr.  =        -0.00388304  see jH, gK, PRB 81, 115126


--------------------------------------------------------------------------------------------------------




--------------------------------------- Iteration      1(  14)  ---------------------------------------


    POTLOK:  cpu time    4.6636: real time    4.6750
    SETDIJ:  cpu time    2.5771: real time    2.5780
    TRIAL :  cpu time  532.8744: real time  533.2918
    CORREC:  cpu time    0.0012: real time    0.0012
    CHARGE:  cpu time    1.4413: real time    1.4417
    --------------------------------------------
      LOOP:  cpu time  541.5696: real time  542.0017

 eigenvalue-minimisations  :     0
 total energy-change (2. order) :-0.7377633E-02  (-0.6416612E-02)
 number of electron     250.0000012 magnetization       4.0633246
 augmentation part       12.1393584 magnetization       3.2893395

 DIPCOR: dipole corrections for dipol
 direction  3 min pos     1,
 dipolmoment          -0.004090      0.001620     -0.412074 electrons x Angstroem
 Tr[quadrupol]     -6838.730880

 energy correction for charged system         0.000000 eV
 dipol+quadrupol energy correction            0.004856 eV
 added-field ion interaction          0.000000 eV  (added to PSCEN)


 Free energy of the ion-electron system (eV)
  ---------------------------------------------------
  alpha Z        PSCENC =       105.81419859
  Ewald energy   TEWEN  =     39992.46459046
  -Hartree energ DENC   =    -48410.25490851
  -exchange      EXHF   =       565.90429708
  -V(xc)+E(xc)   XCENC  =       603.60992753
  PAW double counting   =     27566.51263728   -27566.92118307
  entropy T*S    EENTRO =        -0.00898175
  eigenvalues    EBANDS =     -3258.88078621
  atomic energy  EATOM  =      9770.39457741
  ---------------------------------------------------
  free energy    TOTEN  =      -631.36609080 eV

  energy without entropy =     -631.35710905  energy(sigma->0) =     -631.36159993
  exchange ACFDT corr.  =        -0.00362211  see jH, gK, PRB 81, 115126


--------------------------------------------------------------------------------------------------------




--------------------------------------- Iteration      1(  15)  ---------------------------------------


    POTLOK:  cpu time    4.6457: real time    4.6598
    SETDIJ:  cpu time    2.5945: real time    2.5952
    TRIAL :  cpu time  533.1746: real time  534.0743
    CORREC:  cpu time    0.0012: real time    0.0012
    CHARGE:  cpu time    1.4475: real time    1.4588
    --------------------------------------------
      LOOP:  cpu time  541.8766: real time  542.8040

 eigenvalue-minimisations  :     0
 total energy-change (2. order) :-0.5943716E-02  (-0.5211384E-02)
 number of electron     250.0000012 magnetization       4.0596297
 augmentation part       12.1403590 magnetization       3.2942316

 DIPCOR: dipole corrections for dipol
 direction  3 min pos     1,
 dipolmoment          -0.004112      0.001629     -0.414375 electrons x Angstroem
 Tr[quadrupol]     -6838.741791

 energy correction for charged system         0.000000 eV
 dipol+quadrupol energy correction            0.004910 eV
 added-field ion interaction          0.000000 eV  (added to PSCEN)


 Free energy of the ion-electron system (eV)
  ---------------------------------------------------
  alpha Z        PSCENC =       105.81425298
  Ewald energy   TEWEN  =     39992.46459046
  -Hartree energ DENC   =    -48410.56703477
  -exchange      EXHF   =       565.93308279
  -V(xc)+E(xc)   XCENC  =       603.62288801
  PAW double counting   =     27568.04128353   -27568.46827562
  entropy T*S    EENTRO =        -0.00856236
  eigenvalues    EBANDS =     -3258.59841757
  atomic energy  EATOM  =      9770.39457741
  ---------------------------------------------------
  free energy    TOTEN  =      -631.37203451 eV

  energy without entropy =     -631.36347216  energy(sigma->0) =     -631.36775334
  exchange ACFDT corr.  =        -0.00339106  see jH, gK, PRB 81, 115126


--------------------------------------------------------------------------------------------------------




--------------------------------------- Iteration      1(  16)  ---------------------------------------


    POTLOK:  cpu time    4.6594: real time    4.6615
    SETDIJ:  cpu time    2.5906: real time    2.5917
    TRIAL :  cpu time  532.8702: real time  533.2973
    CORREC:  cpu time    0.0016: real time    0.0016
    CHARGE:  cpu time    1.4472: real time    1.4482
    --------------------------------------------
      LOOP:  cpu time  541.5749: real time  542.0079

 eigenvalue-minimisations  :     0
 total energy-change (2. order) :-0.4856363E-02  (-0.4302932E-02)
 number of electron     250.0000012 magnetization       4.0563264
 augmentation part       12.1409961 magnetization       3.2984176

 DIPCOR: dipole corrections for dipol
 direction  3 min pos     1,
 dipolmoment          -0.004133      0.001637     -0.416414 electrons x Angstroem
 Tr[quadrupol]     -6838.750999

 energy correction for charged system         0.000000 eV
 dipol+quadrupol energy correction            0.004959 eV
 added-field ion interaction          0.000000 eV  (added to PSCEN)


 Free energy of the ion-electron system (eV)
  ---------------------------------------------------
  alpha Z        PSCENC =       105.81430143
  Ewald energy   TEWEN  =     39992.46459046
  -Hartree energ DENC   =    -48410.83650261
  -exchange      EXHF   =       565.95851171
  -V(xc)+E(xc)   XCENC  =       603.63405802
  PAW double counting   =     27569.92101530   -27570.36216170
  entropy T*S    EENTRO =        -0.00818117
  eigenvalues    EBANDS =     -3258.35671854
  atomic energy  EATOM  =      9770.39457741
  ---------------------------------------------------
  free energy    TOTEN  =      -631.37689088 eV

  energy without entropy =     -631.36870971  energy(sigma->0) =     -631.37280029
  exchange ACFDT corr.  =        -0.00318653  see jH, gK, PRB 81, 115126


--------------------------------------------------------------------------------------------------------




--------------------------------------- Iteration      1(  17)  ---------------------------------------


    POTLOK:  cpu time    4.6750: real time    4.6772
    SETDIJ:  cpu time    2.5673: real time    2.5679
    TRIAL :  cpu time  532.9010: real time  533.3347
    CORREC:  cpu time    0.0011: real time    0.0011
    CHARGE:  cpu time    1.4457: real time    1.4466
    --------------------------------------------
      LOOP:  cpu time  541.5994: real time  542.0393

 eigenvalue-minimisations  :     0
 total energy-change (2. order) :-0.4029766E-02  (-0.3609439E-02)
 number of electron     250.0000012 magnetization       4.0533763
 augmentation part       12.1414815 magnetization       3.3020848

 DIPCOR: dipole corrections for dipol
 direction  3 min pos     1,
 dipolmoment          -0.004151      0.001644     -0.418303 electrons x Angstroem
 Tr[quadrupol]     -6838.758647

 energy correction for charged system         0.000000 eV
 dipol+quadrupol energy correction            0.005004 eV
 added-field ion interaction          0.000000 eV  (added to PSCEN)


 Free energy of the ion-electron system (eV)
  ---------------------------------------------------
  alpha Z        PSCENC =       105.81434652
  Ewald energy   TEWEN  =     39992.46459046
  -Hartree energ DENC   =    -48411.06005505
  -exchange      EXHF   =       565.98103511
  -V(xc)+E(xc)   XCENC  =       603.64380980
  PAW double counting   =     27571.83071954   -27572.28215658
  entropy T*S    EENTRO =        -0.00783548
  eigenvalues    EBANDS =     -3258.15960667
  atomic energy  EATOM  =      9770.39457741
  ---------------------------------------------------
  free energy    TOTEN  =      -631.38092064 eV

[...]


 VOLUME and BASIS-vectors are now :
 -----------------------------------------------------------------------------
  energy-cutoff  :      500.00
  volume of cell :     3176.88
      direct lattice vectors                 reciprocal lattice vectors
    12.862100000  0.000000000  0.000000000     0.077747802  0.000714593 -0.000768787
    -0.113926083 12.395176454  0.000000000     0.000000000  0.080676544  0.000317092
     0.197760080 -0.078320364 19.926764797     0.000000000  0.000000000  0.050183761

  length of vectors
    12.862100000 12.395700000 19.927900000     0.077754886  0.080677167  0.050183761


 FORCES acting on ions:
    Electron-Ion                     Ewald-Force                    Non-Local-Force
 -----------------------------------------------------------------------------------------------
   0.307E+01 -.223E+01 0.305E+02   -.315E+01 0.212E+01 -.305E+02   0.273E-01 0.101E+00 0.719E-01
   -.705E+00 -.714E+00 0.365E+02   0.920E+00 0.658E+00 -.366E+02   -.194E+00 0.846E-01 0.589E-01
   0.397E+01 -.619E+00 0.314E+02   -.389E+01 0.610E+00 -.313E+02   -.403E-01 -.125E-01 -.629E-01
   0.107E+02 0.653E-01 0.343E+02   -.109E+02 -.186E+00 -.342E+02   0.237E+00 0.104E+00 -.157E+00
   0.461E+01 0.214E+01 0.254E+02   -.459E+01 -.220E+01 -.254E+02   0.262E-01 0.675E-01 0.699E-01
   0.131E+01 0.571E+01 0.325E+02   -.130E+01 -.608E+01 -.325E+02   -.341E-01 0.362E+00 0.597E-01
   0.120E+01 0.429E+01 0.293E+02   -.124E+01 -.446E+01 -.292E+02   -.110E-01 0.140E+00 -.586E-01
   0.129E+02 0.887E+01 0.117E+02   -.131E+02 -.903E+01 -.117E+02   0.209E+00 0.242E-01 0.110E-01
   0.159E+02 0.471E+02 0.144E+02   -.178E+02 -.503E+02 -.153E+02   0.177E+01 0.337E+01 0.101E+01
   0.116E+02 0.470E+01 0.118E+02   -.117E+02 -.466E+01 -.118E+02   0.186E+00 -.776E-02 -.406E-02
   0.135E+02 0.957E+01 0.244E+02   -.138E+02 -.993E+01 -.244E+02   0.282E+00 0.307E+00 0.979E-01
   0.250E+02 -.376E+02 -.188E+02   -.266E+02 0.409E+02 0.182E+02   0.171E+01 -.360E+01 0.591E+00
   0.722E+01 -.623E+01 0.966E+01   -.723E+01 0.654E+01 -.958E+01   0.207E-01 -.317E+00 -.697E-01
   0.165E+02 -.819E+01 0.204E+01   -.169E+02 0.855E+01 -.215E+01   0.295E+00 -.325E+00 0.668E-01
   0.150E+02 -.123E+02 -.289E+02   -.146E+02 0.125E+02 0.289E+02   -.300E+00 -.659E-01 -.404E-01
   0.825E+01 -.785E+01 0.118E+02   -.816E+01 0.797E+01 -.120E+02   -.755E-01 -.349E-01 0.205E+00
   0.132E+01 -.284E+01 0.324E+02   -.108E+01 0.293E+01 -.325E+02   -.168E+00 -.748E-01 0.882E-01
   0.462E+01 -.499E+01 0.205E+02   -.459E+01 0.513E+01 -.205E+02   -.227E-01 -.876E-01 0.696E-01
   0.738E+01 -.560E+01 0.205E+02   -.758E+01 0.570E+01 -.202E+02   0.158E+00 -.119E+00 -.329E+00
   0.408E+00 0.173E+01 0.663E+02   -.791E+00 -.171E+01 -.662E+02   0.351E+00 -.678E-01 -.707E-01
   0.640E+01 0.614E+01 0.568E+02   -.690E+01 -.647E+01 -.568E+02   0.442E+00 0.338E+00 0.832E-01
   0.458E+01 -.681E+00 0.623E+02   -.478E+01 0.601E+00 -.624E+02   0.158E+00 0.328E-01 0.161E+00
   -.533E+01 0.619E+01 0.759E+02   0.542E+01 -.650E+01 -.760E+02   -.944E-01 0.305E+00 0.128E+00
   0.108E+01 0.129E+02 0.738E+02   -.123E+01 -.134E+02 -.737E+02   0.237E+00 0.621E+00 -.133E-01
   0.363E+02 0.312E+02 0.283E+02   -.386E+02 -.344E+02 -.292E+02   0.233E+01 0.313E+01 0.919E+00
   0.795E+01 0.123E+02 0.605E+02   -.841E+01 -.128E+02 -.606E+02   0.303E+00 0.511E+00 0.142E+00
   -.122E+02 0.151E+02 0.786E+02   0.128E+02 -.162E+02 -.793E+02   -.515E+00 0.904E+00 0.670E+00
   -.187E+02 0.174E+02 0.309E+02   0.203E+02 -.205E+02 -.325E+02   -.170E+01 0.330E+01 0.184E+01
   0.267E+02 -.467E+02 -.802E+02   -.278E+02 0.483E+02 0.789E+02   0.112E+01 -.161E+01 0.158E+01
   0.168E+02 -.197E+02 0.140E+02   -.190E+02 0.228E+02 -.145E+02   0.239E+01 -.324E+01 0.593E+00
   0.618E+01 -.418E+01 0.378E+02   -.641E+01 0.415E+01 -.380E+02   0.233E+00 0.797E-01 0.250E+00
   -.641E+00 -.894E+01 0.233E+01   0.106E+00 0.858E+01 -.238E+01   0.459E+00 0.414E+00 0.836E-01
   -.346E+01 -.804E+01 0.544E+02   0.332E+01 0.846E+01 -.547E+02   0.657E-03 -.350E+00 0.309E+00
   -.416E+01 -.107E+01 0.465E+02   0.439E+01 0.109E+01 -.465E+02   -.156E+00 -.253E-01 0.208E-02
   -.504E+01 0.337E+01 0.680E+02   0.510E+01 -.341E+01 -.679E+02   -.838E-01 0.112E+00 -.107E-01
   -.693E+01 0.486E+00 0.558E+02   0.720E+01 -.494E+00 -.559E+02   -.300E+00 -.832E-01 0.106E+00
   -.310E+01 0.275E+01 0.458E+02   0.331E+01 -.280E+01 -.458E+02   -.225E+00 0.514E-01 0.368E-01
   -.600E+01 0.201E+01 0.505E+02   0.636E+01 -.210E+01 -.505E+02   -.236E+00 0.691E-01 -.169E-01
   -.152E+02 0.556E+01 0.619E+02   0.157E+02 -.586E+01 -.618E+02   -.549E+00 0.247E+00 -.930E-01
   -.890E+01 0.573E+01 0.655E+02   0.921E+01 -.602E+01 -.655E+02   -.373E+00 0.285E+00 0.134E+00
   -.245E+01 0.163E+01 0.410E+02   0.259E+01 -.174E+01 -.411E+02   -.146E+00 0.618E-01 0.489E-01
   -.773E+01 0.242E+01 0.353E+02   0.827E+01 -.241E+01 -.353E+02   -.483E+00 -.214E-01 0.916E-01
   -.396E+02 -.183E+02 0.114E+02   0.434E+02 0.182E+02 -.129E+02   -.364E+01 -.912E-01 0.137E+01
   -.164E+02 -.491E+00 0.422E+02   0.172E+02 0.401E+00 -.423E+02   -.709E+00 0.212E+00 0.183E+00
   0.775E+00 -.406E+01 0.142E+02   -.830E+00 0.406E+01 -.141E+02   0.121E-01 -.179E-01 -.656E-01
   -.603E-01 -.814E+00 0.395E+01   0.364E+00 0.877E+00 -.398E+01   -.214E+00 -.596E-01 0.290E-01
   -.357E+02 0.119E+02 0.867E+01   0.393E+02 -.115E+02 -.102E+02   -.352E+01 -.189E+00 0.149E+01
   -.813E+01 -.431E+01 -.591E+01   0.855E+01 0.446E+01 0.523E+01   -.396E+00 -.112E+00 0.628E+00
   0.116E+00 -.584E+00 0.125E+02   0.752E-01 0.629E+00 -.125E+02   -.179E+00 -.493E-01 -.335E-01
   -.481E+01 -.276E+01 0.288E+02   0.527E+01 0.281E+01 -.289E+02   -.414E+00 0.418E-02 0.866E-01
   -.759E+01 -.496E+01 0.439E+02   0.780E+01 0.533E+01 -.438E+02   -.124E+00 -.293E+00 -.850E-01
   -.137E+02 -.343E+01 0.296E+02   0.142E+02 0.369E+01 -.296E+02   -.541E+00 -.350E+00 0.583E-01
   -.195E+01 -.417E+00 0.369E+02   0.208E+01 0.514E+00 -.369E+02   -.182E+00 -.815E-01 0.403E-01
   0.917E+00 0.927E+01 -.254E+02   0.179E+02 -.876E+01 0.272E+02   -.184E+02 -.270E+00 -.221E+01
   0.242E+02 -.770E+00 -.287E+02   -.332E+02 0.164E+02 0.336E+02   0.893E+01 -.150E+02 -.513E+01
   0.843E+01 -.607E+02 -.574E+02   -.196E+02 0.773E+02 0.624E+02   0.105E+02 -.158E+02 -.494E+01
   -.164E+02 -.656E+02 -.478E+03   0.228E+02 0.624E+02 0.496E+03   -.591E+01 0.362E+01 -.180E+02
   0.171E+02 0.388E+02 -.481E+02   -.277E+02 -.545E+02 0.519E+02   0.998E+01 0.151E+02 -.384E+01
   0.181E+02 0.815E+02 -.479E+03   -.163E+02 -.807E+02 0.477E+03   -.193E+01 -.157E+01 0.282E+01
   -.101E+03 0.629E+01 -.459E+03   0.958E+02 -.533E+01 0.452E+03   0.525E+01 -.109E+01 0.725E+01
 -----------------------------------------------------------------------------------------------
   -.637E+01 0.118E+02 0.133E+02   0.583E-12 0.639E-13 0.568E-13   0.576E+01 -.111E+02 -.117E+02
 
 
 POSITION                                       TOTAL-FORCE (eV/Angst)
 -----------------------------------------------------------------------------------
      2.94451     -0.03069      9.81360        -0.054225     -0.004275      0.022458
      0.81291      1.20791      9.72244         0.008636      0.029802      0.022541
      1.51824     -0.03576      9.77112         0.040762     -0.020484      0.029606
      3.65189      1.22095      9.78593         0.065003     -0.014201      0.011278
      2.95550      2.48261      9.84111         0.044246      0.009716      0.026420
      0.78054      3.68611      9.80233        -0.020259      0.012086     -0.006367
      1.51879      2.45904      9.78293        -0.057241     -0.025256     -0.000035
      3.67461      3.73649      9.99060         0.052251     -0.148507     -0.051442
      2.88300      4.97402     10.08636        -0.107870      0.389626      0.161219
      0.71558      6.16956      9.97596         0.091293      0.036679      0.006771
      1.46090      4.93658      9.93501         0.046244     -0.033960      0.087084
      2.81572      7.41034     10.27405         0.103752     -0.508571      0.030976
      0.68257      8.64285      9.97759         0.012212     -0.026610      0.001312
      1.40373      7.41542     10.07182        -0.084606      0.019001     -0.037003
      3.53955      8.66704     10.34910         0.082266      0.082261     -0.032441
      2.83169      9.88273     10.04941         0.003861      0.074685     -0.016760
      0.69347     11.11500      9.79984         0.070564      0.009746      0.044128
      1.40283      9.87962      9.92896         0.012954      0.048098      0.023443
      3.54327     11.12632      9.93310        -0.031327     -0.016935     -0.001103
      7.10891     12.33428      9.68297        -0.011257     -0.049303      0.068888
      5.07511      1.19377      9.72519        -0.042315      0.036199      0.051075
      5.68222     12.34992      9.73509        -0.035825     -0.048976      0.063824
      7.94436      1.16555      9.60002        -0.010109      0.011307      0.050916
      7.22641      2.38829      9.66391         0.103311      0.118879      0.087888
      5.12784      3.66202      9.99372         0.130151      0.019979      0.065355
      5.79792      2.42001      9.75432        -0.144052      0.023554      0.087642
      7.96068      3.59991      9.74470         0.058405     -0.190185      0.033691
      7.26820      4.77375     10.08460        -0.207269      0.324720      0.395754
      4.94387      8.79524     10.72197         0.086595     -0.088487      0.372787
      7.13974      9.90799     10.12109         0.295793     -0.236799      0.182029
      4.97846     11.12247      9.92737         0.013996      0.064493      0.052479
      5.70121      9.92613     10.22187        -0.062678      0.084776      0.047507
      7.83366     11.11127      9.81026        -0.136593      0.045179      0.038929
     11.41558     12.34439      9.66857         0.066005     -0.007352      0.024735
      9.37677      1.17259      9.58788        -0.024542      0.071209      0.075733
      9.98264     12.33600      9.64585        -0.052547     -0.094108      0.042423
     12.24441      1.19420      9.66065        -0.025940      0.010911      0.026250
     11.52231      2.42630      9.64941         0.102477     -0.016982      0.032820
      9.37743      3.63103      9.70297        -0.043327     -0.041424      0.061481
     10.09478      2.40801      9.60992        -0.083470      0.004075      0.057123
     12.21456      3.67638      9.73528        -0.011370     -0.045223      0.006390
     11.48031      4.90670      9.81193         0.026523     -0.005097      0.019996
      9.29478      6.06739     10.07552         0.014320     -0.208092     -0.013726
     10.05655      4.88073      9.83416        -0.024310      0.132185      0.078871
     12.14776      6.16033      9.92334        -0.041687     -0.027494     -0.009522
     11.39128      7.38697      9.98323         0.085213      0.003210     -0.004392
      9.24430      8.66214     10.09785        -0.102107      0.144417      0.020290
      9.94242      7.37368     10.08365         0.009323      0.028147     -0.016603
     12.11266      8.62789      9.93320         0.002345     -0.003722      0.008458
     11.40780      9.86709      9.84131         0.028211      0.043124      0.014540
      9.26582     11.10780      9.76727         0.081200      0.062409      0.013702
      9.97849      9.87172      9.88445        -0.025689     -0.103613      0.031592
     12.12476     11.10603      9.75375        -0.054819      0.013035      0.022337
      3.47217      6.19473     10.34930        -1.144602      0.211997     -0.566174
      5.91352      4.76953     10.28291         0.683805     -0.775522     -0.650100
      7.93901      5.94196     10.33828         0.237932     -0.589589     -0.401934
      5.55742      7.96864     11.61395        -0.016020      0.699412     -0.845808
      7.87663      8.75014     10.35254         0.194074      0.688062     -0.431684
      5.17335      6.26083     11.16127         0.238458     -0.183409      0.486304
      7.34621      7.36729     11.60146        -0.436125     -0.038802     -0.003953
 -----------------------------------------------------------------------------------
    total drift:                                0.004242      0.004580     -0.003287


--------------------------------------------------------------------------------------------------------



  FREE ENERGIE OF THE ION-ELECTRON SYSTEM (eV)
  ---------------------------------------------------
  free  energy   TOTEN  =      -631.42963425 eV

  energy  without entropy=     -631.42507841  energy(sigma->0) =     -631.42735633
 


--------------------------------------------------------------------------------------------------------


    POTLOK:  cpu time    7.2603: real time    7.2630


--------------------------------------------------------------------------------------------------------


 stress matrix after NEB project (eV)
    -42.32173      0.37073     -0.39977
      0.37181    -42.30385      0.61175
     -0.39869      0.61385     -1.87668
  FORCES: max atom, RMS     1.294454    0.359486
  FORCE total and by dimension    2.784569    1.144602
  Stress total and by dimension   59.879977   42.321727
 writing wavefunctions
     LOOP+:  cpu time65597.3521: real time65654.5086
    4ORBIT:  cpu time    0.0000: real time    0.0000
 


 total charge     
 
# of ion       s       p       d       tot
------------------------------------------
    1        0.864   1.756   0.000   2.620
    2        0.863   1.758   0.000   2.621
    3        0.863   1.770   0.000   2.633
    4        0.860   1.763   0.000   2.623
    5        0.858   1.730   0.000   2.588
    6        0.864   1.763   0.000   2.628
    7        0.860   1.758   0.000   2.618
    8        0.844   1.729   0.000   2.573
    9        0.850   1.706   0.000   2.557
   10        0.865   1.755   0.000   2.619
   11        0.863   1.765   0.000   2.628
   12        0.856   1.713   0.000   2.570
   13        0.864   1.765   0.000   2.629
   14        0.867   1.781   0.000   2.647
   15        0.853   1.750   0.000   2.604
   16        0.863   1.745   0.000   2.608
   17        0.864   1.760   0.000   2.624
   18        0.863   1.764   0.000   2.627
   19        0.860   1.764   0.000   2.623
   20        0.867   1.770   0.000   2.637
   21        0.867   1.767   0.000   2.634
   22        0.863   1.771   0.000   2.635
   23        0.866   1.778   0.000   2.644
   24        0.869   1.774   0.000   2.643
   25        0.853   1.707   0.000   2.560
   26        0.865   1.777   0.000   2.642
   27        0.873   1.815   0.000   2.688
   28        0.864   1.729   0.000   2.593
   29        0.860   1.695   0.000   2.555
   30        0.856   1.717   0.000   2.573
   31        0.866   1.755   0.000   2.622
   32        0.859   1.767   0.000   2.626
   33        0.866   1.778   0.000   2.644
   34        0.863   1.760   0.000   2.624
   35        0.866   1.762   0.000   2.628
   36        0.864   1.771   0.000   2.635
   37        0.864   1.763   0.000   2.627
   38        0.866   1.766   0.000   2.632
   39        0.870   1.775   0.000   2.645
   40        0.866   1.778   0.000   2.644
   41        0.863   1.764   0.000   2.627
   42        0.865   1.769   0.000   2.635
   43        0.855   1.710   0.000   2.565
   44        0.865   1.781   0.000   2.646
   45        0.862   1.767   0.000   2.628
   46        0.858   1.733   0.000   2.592
   47        0.851   1.704   0.000   2.554
   48        0.845   1.733   0.000   2.579
   49        0.862   1.764   0.000   2.626
   50        0.864   1.763   0.000   2.627
   51        0.866   1.760   0.000   2.626
   52        0.864   1.771   0.000   2.635
   53        0.864   1.763   0.000   2.627
   54        1.231   2.693   0.000   3.925
   55        1.230   2.712   0.000   3.942
   56        1.234   2.696   0.000   3.930
   57        1.259   2.590   0.000   3.849
   58        1.230   2.680   0.000   3.910
   59        0.510   0.653   6.239   7.402
   60        0.482   0.627   3.715   4.824
--------------------------------------------------
tot         52.858 107.705   9.954 170.517
 


 magnetization (x)
 
# of ion       s       p       d       tot
------------------------------------------
    1       -0.002  -0.023   0.000  -0.024
    2       -0.002  -0.030   0.000  -0.032
    3        0.001   0.013   0.000   0.014
    4        0.001   0.011   0.000   0.012
    5       -0.002  -0.018   0.000  -0.020
    6       -0.002  -0.033   0.000  -0.035
    7        0.002   0.020   0.000   0.022
    8        0.002   0.019   0.000   0.022
    9       -0.003  -0.046   0.000  -0.048
   10       -0.002  -0.032   0.000  -0.034
   11        0.002   0.019   0.000   0.021
   12       -0.001  -0.022   0.000  -0.023
   13       -0.002  -0.034   0.000  -0.037
   14        0.002   0.020   0.000   0.022
   15        0.001   0.003   0.000   0.004
   16       -0.002  -0.022   0.000  -0.024
   17       -0.002  -0.021   0.000  -0.023
   18        0.001   0.012   0.000   0.013
   19        0.001   0.012   0.000   0.014
   20       -0.001  -0.017   0.000  -0.018
   21       -0.001  -0.018   0.000  -0.019
   22        0.000   0.001   0.000   0.001
   23        0.001   0.009   0.000   0.010
   24       -0.001  -0.013   0.000  -0.014
   25       -0.001  -0.028   0.000  -0.029
   26        0.001   0.007   0.000   0.008
   27        0.000   0.002   0.000   0.002
   28        0.001   0.005   0.000   0.006
   29        0.003  -0.009   0.000  -0.005
   30        0.000  -0.011   0.000  -0.011
   31       -0.001  -0.010   0.000  -0.011
   32        0.000   0.006   0.000   0.006
   33        0.001   0.004   0.000   0.005
   34       -0.002  -0.034   0.000  -0.037
   35       -0.001  -0.015   0.000  -0.017
   36        0.001   0.011   0.000   0.012
   37        0.002   0.017   0.000   0.019
   38       -0.002  -0.030   0.000  -0.033
   39       -0.001  -0.017   0.000  -0.018
   40        0.001   0.014   0.000   0.015
   41        0.002   0.017   0.000   0.019
   42       -0.003  -0.041   0.000  -0.044
   43       -0.002  -0.039   0.000  -0.041
   44        0.002   0.014   0.000   0.015
   45        0.002   0.021   0.000   0.023
   46       -0.002  -0.025   0.000  -0.026
   47       -0.002  -0.041   0.000  -0.043
   48        0.002   0.017   0.000   0.019
   49        0.002   0.016   0.000   0.017
   50       -0.002  -0.029   0.000  -0.031
   51       -0.002  -0.025   0.000  -0.026
   52        0.002   0.015   0.000   0.017
   53        0.002   0.018   0.000   0.020
   54        0.001   0.019   0.000   0.019
   55       -0.001  -0.020   0.000  -0.021
   56       -0.004  -0.022   0.000  -0.026
   57       -0.006  -0.061   0.000  -0.067
   58       -0.006  -0.057   0.000  -0.063
   59        0.025   0.054   2.862   2.941
   60        0.021   0.016   1.664   1.700
--------------------------------------------------
tot          0.026  -0.434   4.526   4.118
 

 total amount of memory used by VASP MPI-rank0   322170. kBytes
=======================================================================

   base      :      30000. kBytes
   nonl-proj :      10794. kBytes
   fftplans  :      26523. kBytes
   grid      :      69087. kBytes
   one-center:        124. kBytes
   HF        :         23. kBytes
   nonlr-proj:      27321. kBytes
   wavefun   :     158298. kBytes
 
  
  
 General timing and accounting informations for this job:
 ========================================================
  
                  Total CPU time used (sec):    65665.117
                            User time (sec):    65619.144
                          System time (sec):       45.977
                         Elapsed time (sec):    65729.208
  
                   Maximum memory used (kb):      571072.
                   Average memory used (kb):           0.
  
                          Minor page faults:      2535259
                          Major page faults:          226
                 Voluntary context switches:        87153
