 vasp.5.4.4.18Apr17-6-g9f103f2a35 (build Feb 25 2019 10:51:38) complex          
  
 executed on             LinuxIFC date 2021.03.10  02:57:59
 running on   80 total cores
 distrk:  each k-point on   40 cores,    2 groups
 distr:  one band on NCORES_PER_BAND=  40 cores,    1 groups


--------------------------------------------------------------------------------------------------------


 INCAR:
 POTCAR:    PAW_PBE C 08Apr2002                   
 POTCAR:    PAW_PBE N 08Apr2002                   
 POTCAR:    PAW_PBE Fe 06Sep2000                  
 POTCAR:    PAW_PBE Ni 02Aug2007                  

 ----------------------------------------------------------------------------- 
|                                                                             |
|           W    W    AA    RRRRR   N    N  II  N    N   GGGG   !!!           |
|           W    W   A  A   R    R  NN   N  II  NN   N  G    G  !!!           |
|           W    W  A    A  R    R  N N  N  II  N N  N  G       !!!           |
|           W WW W  AAAAAA  RRRRR   N  N N  II  N  N N  G  GGG   !            |
|           WW  WW  A    A  R   R   N   NN  II  N   NN  G    G                |
|           W    W  A    A  R    R  N    N  II  N    N   GGGG   !!!           |
|                                                                             |
|      For optimal performance we recommend to set                            |
|        NCORE= 4 - approx SQRT( number of cores)                             |
|      NCORE specifies how many cores store one orbital (NPAR=cpu/NCORE).     |
|      This setting can  greatly improve the performance of VASP for DFT.     |
|      The default,   NCORE=1            might be grossly inefficient         |
|      on modern multi-core architectures or massively parallel machines.     |
|      Do your own testing !!!!                                               |
|      Unfortunately you need to use the default for GW and RPA calculations. |
|      (for HF NCORE is supported but not extensively tested yet)             |
|                                                                             |
 ----------------------------------------------------------------------------- 


 ----------------------------------------------------------------------------- 
|                                                                             |
|           W    W    AA    RRRRR   N    N  II  N    N   GGGG   !!!           |
|           W    W   A  A   R    R  NN   N  II  NN   N  G    G  !!!           |
|           W    W  A    A  R    R  N N  N  II  N N  N  G       !!!           |
|           W WW W  AAAAAA  RRRRR   N  N N  II  N  N N  G  GGG   !            |
|           WW  WW  A    A  R   R   N   NN  II  N   NN  G    G                |
|           W    W  A    A  R    R  N    N  II  N    N   GGGG   !!!           |
|                                                                             |
|      You have enabled k-point parallelism (KPAR>1).                         |
|      This developmental code was originally  written by Paul Kent at ORNL,  |
|      and carefully double checked in Vienna.                                |
|      GW as well as linear response parallelism added by Martijn Marsman     |
|      and Georg Kresse.                                                      |
|      Carefully verify results versus KPAR=1.                                |
|      Report problems to Paul Kent and Vienna.                               |
|                                                                             |
 ----------------------------------------------------------------------------- 

 POTCAR:    PAW_PBE C 08Apr2002                   
   VRHFIN =C: s2p2                                                              
   LEXCH  = PE                                                                  
   EATOM  =   147.1560 eV,   10.8157 Ry                                         
                                                                                
   TITEL  = PAW_PBE C 08Apr2002                                                 
   LULTRA =        F    use ultrasoft PP ?                                      
   IUNSCR =        1    unscreen: 0-lin 1-nonlin 2-no                           
   RPACOR =    1.200    partial core radius                                     
   POMASS =   12.011; ZVAL   =    4.000    mass and valenz                      
   RCORE  =    1.500    outmost cutoff radius                                   
   RWIGS  =    1.630; RWIGS  =    0.863    wigner-seitz radius (au A)           
   ENMAX  =  400.000; ENMIN  =  300.000 eV                                      
   ICORE  =        2    local potential                                         
   LCOR   =        T    correct aug charges                                     
   LPAW   =        T    paw PP                                                  
   EAUG   =  644.873                                                            
   DEXC   =    0.000                                                            
   RMAX   =    1.529    core radius for proj-oper                               
   RAUG   =    1.300    factor for augmentation sphere                          
   RDEP   =    1.501    radius for radial grids                                 
   RDEPT  =    1.300    core radius for aug-charge                              
                                                                                
   Atomic configuration                                                         
    4 entries                                                                   
     n  l   j            E        occ.                                          
     1  0  0.50      -273.3789   2.0000                                         
     2  0  0.50       -13.7508   2.0000                                         
     2  1  0.50        -5.2854   2.0000                                         
     3  2  1.50        -5.4423   0.0000                                         
   Description                                                                  
     l       E           TYP  RCUT    TYP  RCUT                                 
     0    -13.7508458     23  1.200                                             
     0     -8.2022199     23  1.200                                             
     1     -5.2854383     23  1.500                                             
     1     34.0145650     23  1.500                                             
     2     -5.4423304      7  1.500                                             
  local pseudopotential read in
  partial core-charges read in
  partial kinetic energy density read in
  atomic valenz-charges read in
  non local Contribution for L=           0  read in
    real space projection operators read in
  non local Contribution for L=           0  read in
    real space projection operators read in
  non local Contribution for L=           1  read in
    real space projection operators read in
  non local Contribution for L=           1  read in
    real space projection operators read in
    PAW grid and wavefunctions read in
 
   number of l-projection  operators is LMAX  =           4
   number of lm-projection operators is LMMAX =           8
 
 POTCAR:    PAW_PBE N 08Apr2002                   
   VRHFIN =N: s2p3                                                              
   LEXCH  = PE                                                                  
   EATOM  =   264.5486 eV,   19.4438 Ry                                         
                                                                                
   TITEL  = PAW_PBE N 08Apr2002                                                 
   LULTRA =        F    use ultrasoft PP ?                                      
   IUNSCR =        1    unscreen: 0-lin 1-nonlin 2-no                           
   RPACOR =    1.200    partial core radius                                     
   POMASS =   14.001; ZVAL   =    5.000    mass and valenz                      
   RCORE  =    1.500    outmost cutoff radius                                   
   RWIGS  =    1.400; RWIGS  =    0.741    wigner-seitz radius (au A)           
   ENMAX  =  400.000; ENMIN  =  300.000 eV                                      
   ICORE  =        2    local potential                                         
   LCOR   =        T    correct aug charges                                     
   LPAW   =        T    paw PP                                                  
   EAUG   =  627.112                                                            
   DEXC   =    0.000                                                            
   RMAX   =    1.529    core radius for proj-oper                               
   RAUG   =    1.300    factor for augmentation sphere                          
   RDEP   =    1.514    radius for radial grids                                 
   RDEPT  =    1.338    core radius for aug-charge                              
                                                                                
   Atomic configuration                                                         
    4 entries                                                                   
     n  l   j            E        occ.                                          
     1  0  0.50      -384.7179   2.0000                                         
     2  0  0.50       -18.5828   2.0000                                         
     2  1  0.50        -7.0898   3.0000                                         
     3  2  1.50        -6.8029   0.0000                                         
   Description                                                                  
     l       E           TYP  RCUT    TYP  RCUT                                 
     0    -18.5828119     23  1.200                                             
     0    -13.5018863     23  1.200                                             
     1     -7.0897853     23  1.500                                             
     1      9.5240782     23  1.500                                             
     2     -6.8029130      7  1.500                                             
  local pseudopotential read in
  partial core-charges read in
  partial kinetic energy density read in
  atomic valenz-charges read in
  non local Contribution for L=           0  read in
    real space projection operators read in
  non local Contribution for L=           0  read in
    real space projection operators read in
  non local Contribution for L=           1  read in
    real space projection operators read in
  non local Contribution for L=           1  read in
    real space projection operators read in
    PAW grid and wavefunctions read in
 
   number of l-projection  operators is LMAX  =           4
   number of lm-projection operators is LMMAX =           8
 
 POTCAR:    PAW_PBE Fe 06Sep2000                  
   VRHFIN =Fe:  d7 s1                                                           
   LEXCH  = PE                                                                  
   EATOM  =   594.3153 eV,   43.6809 Ry                                         
                                                                                
   TITEL  = PAW_PBE Fe 06Sep2000                                                
   LULTRA =        F    use ultrasoft PP ?                                      
   IUNSCR =        1    unscreen: 0-lin 1-nonlin 2-no                           
   RPACOR =    2.000    partial core radius                                     
   POMASS =   55.847; ZVAL   =    8.000    mass and valenz                      
   RCORE  =    2.300    outmost cutoff radius                                   
   RWIGS  =    2.460; RWIGS  =    1.302    wigner-seitz radius (au A)           
   ENMAX  =  267.882; ENMIN  =  200.911 eV                                      
   RCLOC  =    1.701    cutoff for local pot                                    
   LCOR   =        T    correct aug charges                                     
   LPAW   =        T    paw PP                                                  
   EAUG   =  511.368                                                            
   DEXC   =    0.000                                                            
   RMAX   =    2.356    core radius for proj-oper                               
   RAUG   =    1.300    factor for augmentation sphere                          
   RDEP   =    2.442    radius for radial grids                                 
   RDEPT  =    1.890    core radius for aug-charge                              
                                                                                
   Atomic configuration                                                         
    9 entries                                                                   
     n  l   j            E        occ.                                          
     1  0  0.50     -6993.8440   2.0000                                         
     2  0  0.50      -814.6047   2.0000                                         
     2  1  1.50      -693.3689   6.0000                                         
     3  0  0.50       -89.4732   2.0000                                         
     3  1  1.50       -55.6373   6.0000                                         
     3  2  2.50        -3.8151   7.0000                                         
     4  0  0.50        -4.2551   1.0000                                         
     4  1  1.50        -3.4015   0.0000                                         
     4  3  2.50        -1.3606   0.0000                                         
   Description                                                                  
     l       E           TYP  RCUT    TYP  RCUT                                 
     2     -3.8151135     23  2.300                                             
     2     -5.1756961     23  2.300                                             
     0     -4.2550963     23  2.300                                             
     0      7.2035603     23  2.300                                             
     1     -2.7211652     23  2.300                                             
     1     18.4316424     23  2.300                                             
  local pseudopotential read in
  partial core-charges read in
  partial kinetic energy density read in
  atomic valenz-charges read in
  non local Contribution for L=           2  read in
    real space projection operators read in
  non local Contribution for L=           2  read in
    real space projection operators read in
  non local Contribution for L=           0  read in
    real space projection operators read in
  non local Contribution for L=           0  read in
    real space projection operators read in
  non local Contribution for L=           1  read in
    real space projection operators read in
  non local Contribution for L=           1  read in
    real space projection operators read in
    PAW grid and wavefunctions read in
 
   number of l-projection  operators is LMAX  =           6
   number of lm-projection operators is LMMAX =          18
 
 POTCAR:    PAW_PBE Ni 02Aug2007                  
   VRHFIN =Ni:                                                                  
   LEXCH  = PE                                                                  
   EATOM  =  1077.6739 eV,   79.2068 Ry                                         
                                                                                
   TITEL  = PAW_PBE Ni 02Aug2007                                                
   LULTRA =        F    use ultrasoft PP ?                                      
   IUNSCR =        1    unscreen: 0-lin 1-nonlin 2-no                           
   RPACOR =    2.000    partial core radius                                     
   POMASS =   58.690; ZVAL   =   10.000    mass and valenz                      
   RCORE  =    2.300    outmost cutoff radius                                   
   RWIGS  =    2.430; RWIGS  =    1.286    wigner-seitz radius (au A)           
   ENMAX  =  269.532; ENMIN  =  202.149 eV                                      
   RCLOC  =    1.201    cutoff for local pot                                    
   LCOR   =        T    correct aug charges                                     
   LPAW   =        T    paw PP                                                  
   EAUG   =  544.565                                                            
   DEXC   =    0.000                                                            
   RMAX   =    2.357    core radius for proj-oper                               
   RAUG   =    1.300    factor for augmentation sphere                          
   RDEP   =    2.390    radius for radial grids                                 
   RDEPT  =    1.838    core radius for aug-charge                              
                                                                                
   Atomic configuration                                                         
    9 entries                                                                   
     n  l   j            E        occ.                                          
     1  0  0.50     -8206.4253   2.0000                                         
     2  0  0.50      -976.1748   2.0000                                         
     2  1  1.50      -839.0571   6.0000                                         
     3  0  0.50      -105.9991   2.0000                                         
     3  1  1.50       -66.4603   6.0000                                         
     3  2  2.50        -4.6458   9.0000                                         
     4  0  0.50        -4.4926   1.0000                                         
     4  1  1.50        -4.0817   0.0000                                         
     4  3  2.50        -1.3606   0.0000                                         
   Description                                                                  
     l       E           TYP  RCUT    TYP  RCUT                                 
     2     -4.6457903     23  2.300                                             
     2     -6.0063729     23  2.300                                             
     0     -4.4925590     23  2.300                                             
     0      5.0102601     23  2.300                                             
     1     -2.7211652     23  2.300                                             
     1     16.5183231     23  2.300                                             
  local pseudopotential read in
  partial core-charges read in
  partial kinetic energy density read in
  atomic valenz-charges read in
  non local Contribution for L=           2  read in
    real space projection operators read in
  non local Contribution for L=           2  read in
    real space projection operators read in
  non local Contribution for L=           0  read in
    real space projection operators read in
  non local Contribution for L=           0  read in
    real space projection operators read in
  non local Contribution for L=           1  read in
    real space projection operators read in
  non local Contribution for L=           1  read in
    real space projection operators read in
    PAW grid and wavefunctions read in
 
   number of l-projection  operators is LMAX  =           6
   number of lm-projection operators is LMMAX =          18
 

 ----------------------------------------------------------------------------- 
|                                                                             |
|  ADVICE TO THIS USER RUNNING 'VASP/VAMP'   (HEAR YOUR MASTER'S VOICE ...):  |
|                                                                             |
|      You have a (more or less) 'large supercell' and for larger cells       |
|      it might be more efficient to use real space projection opertators     |
|      So try LREAL= Auto  in the INCAR   file.                               |
|      Mind:          For very  accurate calculation you might also keep the  |
|      reciprocal projection scheme          (i.e. LREAL=.FALSE.)             |
|                                                                             |
 ----------------------------------------------------------------------------- 

  PAW_PBE C 08Apr2002                   :
 energy of atom  1       EATOM= -147.1560
 kinetic energy error for atom=    0.0076 (will be added to EATOM!!)
  PAW_PBE N 08Apr2002                   :
 energy of atom  2       EATOM= -264.5486
 kinetic energy error for atom=    0.0138 (will be added to EATOM!!)
  PAW_PBE Fe 06Sep2000                  :
 energy of atom  3       EATOM= -594.3153
 kinetic energy error for atom=    0.0026 (will be added to EATOM!!)
  PAW_PBE Ni 02Aug2007                  :
 energy of atom  4       EATOM=-1077.6739
 kinetic energy error for atom=    0.0030 (will be added to EATOM!!)
 
 
 POSCAR:  C  N Fe Ni                             
  positions in cartesian coordinates
  No initial velocities read in
 exchange correlation table for  LEXCH =        8
   RHO(1)=    0.500       N(1)  =     2000
   RHO(2)=  100.500       N(2)  =     4000

 VTST: version 3.2, (02/03/18)

 CHAIN: initializing optimizer
 
 OPT: Using VASP Conjugate-Gradient optimizer
 CHAIN: Read ICHAIN            0
 
 POSCAR:  C  N Fe Ni                             
  positions in cartesian coordinates
  No initial velocities read in
 


--------------------------------------------------------------------------------------------------------


 ion  position               nearest neighbor table
   1  0.221  0.004  0.499-  19 1.43   4 1.43   3 1.43
   2  0.056  0.103  0.499-   3 1.42   7 1.43  38 1.43
   3  0.110  0.003  0.499-   2 1.42  17 1.43   1 1.43
   4  0.278  0.104  0.499-   1 1.43  21 1.43   5 1.44
   5  0.224  0.206  0.499-   7 1.43   4 1.44   8 1.45
   6  0.058  0.303  0.499-   7 1.43  11 1.43  42 1.43
   7  0.113  0.204  0.499-   6 1.43   2 1.43   5 1.43
   8  0.281  0.309  0.499-  25 1.44   5 1.45   9 1.45
   9  0.224  0.410  0.500-  55 1.39  11 1.44   8 1.45
  10  0.054  0.502  0.499-  46 1.42  14 1.42  11 1.43
  11  0.113  0.405  0.499-   6 1.43  10 1.43   9 1.44
  12  0.216  0.605  0.501-  55 1.39  14 1.40  15 1.42
  13  0.052  0.703  0.499-  18 1.41  50 1.42  14 1.42
  14  0.107  0.604  0.500-  12 1.40  10 1.42  13 1.42
  15  0.272  0.705  0.502-  58 1.38  16 1.41  12 1.42
  16  0.218  0.804  0.500-  15 1.41  19 1.42  18 1.42
  17  0.053  0.903  0.498-  18 1.42   3 1.43  54 1.43
  18  0.107  0.803  0.499-  13 1.41  17 1.42  16 1.42
  19  0.275  0.903  0.500-  16 1.42   1 1.43  32 1.43
  20  0.553  0.997  0.498-  23 1.43  22 1.43  34 1.44
  21  0.389  0.101  0.499-  26 1.43   4 1.43  22 1.45
  22  0.443  0.999  0.499-  20 1.43  32 1.43  21 1.45
  23  0.611  0.097  0.499-  24 1.43  20 1.43  36 1.43
  24  0.556  0.198  0.500-  27 1.41  23 1.43  26 1.43
  25  0.393  0.305  0.498-  56 1.38   8 1.44  26 1.45
  26  0.446  0.202  0.499-  21 1.43  24 1.43  25 1.45
  27  0.615  0.296  0.502-  24 1.41  40 1.42  28 1.42
  28  0.560  0.396  0.503-  56 1.40  27 1.42  29 1.44  60 2.07
  29  0.616  0.498  0.502-  57 1.40  44 1.41  28 1.44  60 2.09
  30  0.607  0.692  0.496-  57 1.38  48 1.44  31 1.45
  31  0.549  0.792  0.498-  33 1.45  34 1.45  30 1.45
  32  0.386  0.899  0.499-  19 1.43  22 1.43  33 1.45
  33  0.437  0.795  0.500-  58 1.39  31 1.45  32 1.45
  34  0.607  0.895  0.498-  20 1.44  52 1.44  31 1.45
  35  0.887  0.000  0.498-  54 1.42  38 1.43  37 1.44
  36  0.722  0.098  0.499-  37 1.42  41 1.43  23 1.43
  37  0.776  0.998  0.498-  36 1.42  52 1.43  35 1.44
  38  0.945  0.101  0.499-  39 1.42  35 1.43   2 1.43
  39  0.890  0.200  0.500-  38 1.42  42 1.43  41 1.43
  40  0.725  0.298  0.502-  27 1.42  41 1.42  45 1.42
  41  0.779  0.198  0.500-  40 1.42  36 1.43  39 1.43
  42  0.946  0.301  0.500-  43 1.42  39 1.43   6 1.43
  43  0.890  0.400  0.500-  46 1.42  45 1.42  42 1.42
  44  0.726  0.498  0.501-  49 1.41  29 1.41  45 1.42
  45  0.780  0.398  0.501-  40 1.42  43 1.42  44 1.42
  46  0.944  0.501  0.499-  10 1.42  43 1.42  47 1.43
  47  0.888  0.600  0.498-  50 1.42  49 1.42  46 1.43
  48  0.719  0.697  0.497-  53 1.42  49 1.43  30 1.44
  49  0.778  0.599  0.498-  44 1.41  47 1.42  48 1.43
  50  0.942  0.702  0.498-  47 1.42  13 1.42  51 1.42
  51  0.885  0.800  0.497-  50 1.42  54 1.43  53 1.43
  52  0.718  0.897  0.497-  53 1.43  37 1.43  34 1.44
  53  0.774  0.798  0.497-  48 1.42  52 1.43  51 1.43
  54  0.942  0.901  0.498-  35 1.42  51 1.43  17 1.43
  55  0.274  0.511  0.502-   9 1.39  12 1.39  59 1.89
  56  0.452  0.400  0.497-  25 1.38  28 1.40  59 1.91  60 2.30
  57  0.558  0.592  0.495-  30 1.38  29 1.40  59 1.89  60 2.35
  58  0.379  0.700  0.502-  15 1.38  33 1.39  59 1.91
  59  0.417  0.550  0.503-  57 1.89  55 1.89  56 1.91  58 1.91  60 2.39
  60  0.530  0.490  0.589-  28 2.07  29 2.09  56 2.30  57 2.35  59 2.39
 
  LATTYP: Found a triclinic cell.
 ALAT       =    12.2966000000
 B/A-ratio  =     1.4377908688
 C/A-ratio  =     2.2141298814
 COS(alpha) =     0.0101942360
 COS(beta)  =     0.5001088667
 COS(gamma) =     0.6846169898
  
  Lattice vectors:
  
 A1 = (  -0.1837689738,  12.2952267374,   0.0000000000)
 A2 = (  12.7046310262,  12.2952267374,   0.0000000000)
 A3 = ( -12.6101482908,  13.4291436692, -20.0477432967)


Analysis of symmetry for initial positions (statically):
=====================================================================
 Subroutine PRICEL returns:
 Original cell was already a primitive cell.
 

 Routine SETGRP: Setting up the symmetry group for a 
 triclinic supercell.


 Subroutine GETGRP returns: Found  1 space group operations
 (whereof  1 operations were pure point group operations)
 out of a pool of  2 trial point group operations.


The static configuration has the point symmetry C_1 .


Analysis of symmetry for dynamics (positions and initial velocities):
=====================================================================
 Subroutine PRICEL returns:
 Original cell was already a primitive cell.
 

 Routine SETGRP: Setting up the symmetry group for a 
 triclinic supercell.


 Subroutine GETGRP returns: Found  1 space group operations
 (whereof  1 operations were pure point group operations)
 out of a pool of  2 trial point group operations.


The dynamic configuration has the point symmetry C_1 .


Analysis of structural, dynamic, and magnetic symmetry:
=====================================================================
 Subroutine PRICEL returns:
 Original cell was already a primitive cell.
 

 Routine SETGRP: Setting up the symmetry group for a 
 triclinic supercell.


 Subroutine GETGRP returns: Found  1 space group operations
 (whereof  1 operations were pure point group operations)
 out of a pool of  2 trial point group operations.


The magnetic configuration has the point symmetry C_1 .


 Subroutine INISYM returns: Found  1 space group operations
 (whereof  1 operations are pure point group operations),
 and found     1 'primitive' translations

 
 
 KPOINTS: KPOINTS created by Atomic Simulation Env

Automatic generation of k-mesh.
Space group operators:
 irot       det(A)        alpha          n_x          n_y          n_z        tau_x        tau_y        tau_z
    1     1.000000     0.000000     1.000000     0.000000     0.000000     0.000000     0.000000     0.000000
 
 Subroutine IBZKPT returns following result:
 ===========================================
 
 Found      2 irreducible k-points:
 
 Following reciprocal coordinates:
            Coordinates               Weight
  0.250000  0.250000  0.000000      2.000000
 -0.250000  0.250000 -0.000000      2.000000
 
 Following cartesian coordinates:
            Coordinates               Weight
  0.019397  0.020623  0.001613      2.000000
 -0.019397  0.020043  0.000687      2.000000
 
 
 Subroutine IBZKPT_HF returns following result:
 ==============================================
 
 Found      4 k-points in 1st BZ
 the following      4 k-points will be used (e.g. in the exchange kernel)
 Following reciprocal coordinates:   # in IRBZ
  0.250000  0.250000  0.000000    0.25000000   1 t-inv F
 -0.250000  0.250000 -0.000000    0.25000000   2 t-inv F
 -0.250000 -0.250000  0.000000    0.25000000   1 t-inv T
  0.250000 -0.250000  0.000000    0.25000000   2 t-inv T


--------------------------------------------------------------------------------------------------------




 Dimension of arrays:
   k-points           NKPTS =      2   k-points in BZ     NKDIM =      4   number of bands    NBANDS=    160
   number of dos      NEDOS =    301   number of ions     NIONS =     60
   non local maximal  LDIM  =      6   non local SUM 2l+1 LMDIM =     18
   total plane-waves  NPLWV = ******
   max r-space proj   IRMAX =      1   max aug-charges    IRDMAX=  14730
   dimension x,y,z NGX =    96 NGY =   90 NGZ =  150
   dimension x,y,z NGXF=   192 NGYF=  180 NGZF=  300
   support grid    NGXF=   192 NGYF=  180 NGZF=  300
   ions per type =              54   4   1   1
   NGX,Y,Z   is equivalent  to a cutoff of  12.38, 12.17, 12.42 a.u.
   NGXF,Y,Z  is equivalent  to a cutoff of  24.77, 24.34, 24.83 a.u.

 SYSTEM =  unknown system                          
 POSCAR =   C  N Fe Ni                             

 Startparameter for this run:
   NWRITE =      2    write-flag & timer
   PREC   = accura    normal or accurate (medium, high low for compatibility)
   ISTART =      1    job   : 0-new  1-cont  2-samecut
   ICHARG =      0    charge: 1-file 2-atom 10-const
   ISPIN  =      2    spin polarized calculation?
   LNONCOLLINEAR =      F non collinear calculations
   LSORBIT =      F    spin-orbit coupling
   INIWAV =      1    electr: 0-lowe 1-rand  2-diag
   LASPH  =      T    aspherical Exc in radial PAW
   METAGGA=      F    non-selfconsistent MetaGGA calc.

 Electronic Relaxation 1
   ENCUT  =  500.0 eV  36.75 Ry    6.06 a.u.  23.50 22.42 36.62*2*pi/ulx,y,z
   ENINI  =  500.0     initial cutoff
   ENAUG  =  644.9 eV  augmentation charge cutoff
   NELM   =    250;   NELMIN=  2; NELMDL=  0     # of ELM steps 
   EDIFF  = 0.1E-03   stopping-criterion for ELM
   LREAL  =      F    real-space projection
   NLSPLINE    = F    spline interpolate recip. space projectors
   LCOMPAT=      F    compatible to vasp.4.4
   GGA_COMPAT  = T    GGA compatible to vasp.4.4-vasp.4.6
   LMAXPAW     = -100 max onsite density
   LMAXMIX     =    2 max onsite mixed and CHGCAR
   VOSKOWN=      0    Vosko Wilk Nusair interpolation
   ROPT   =    0.00000   0.00000   0.00000   0.00000
 Ionic relaxation
   EDIFFG = -.3E-01   stopping-criterion for IOM
   NSW    =      0    number of steps for IOM
   NBLOCK =      1;   KBLOCK =      1    inner block; outer block 
   IBRION =     -1    ionic relax: 0-MD 1-quasi-New 2-CG
   NFREE  =      1    steps in history (QN), initial steepest desc. (CG)
   ISIF   =      2    stress and relaxation
   IWAVPR =     10    prediction:  0-non 1-charg 2-wave 3-comb
   ISYM   =      3    0-nonsym 1-usesym 2-fastsym
   LCORR  =      T    Harris-Foulkes like correction to forces

   POTIM  = 0.5000    time-step for ionic-motion
   TEIN   =    0.0    initial temperature
   TEBEG  =    0.0;   TEEND  =   0.0 temperature during run
   SMASS  =  -3.00    Nose mass-parameter (am)
   estimated Nose-frequenzy (Omega)   =  0.10E-29 period in steps =****** mass=  -0.380E-26a.u.
   SCALEE = 1.0000    scale energy and forces
   NPACO  =    256;   APACO  = 16.0  distance and # of slots for P.C.
   PSTRESS=    0.0 pullay stress

  Mass of Ions in am
   POMASS =  12.01 14.00 55.85 58.69
  Ionic Valenz
   ZVAL   =   4.00  5.00  8.00 10.00
  Atomic Wigner-Seitz radii
   RWIGS  =  -1.00 -1.00 -1.00 -1.00
  virtual crystal weights 
   VCA    =   1.00  1.00  1.00  1.00
   NELECT =     254.0000    total number of electrons
   NUPDOWN=      -1.0000    fix difference up-down

 DOS related values:
   EMIN   =  10.00;   EMAX   =-10.00  energy-range for DOS
   EFERMI =   0.00
   ISMEAR =     0;   SIGMA  =   0.10  broadening in eV -4-tet -1-fermi 0-gaus

 Electronic relaxation 2 (details)
   IALGO  =     53    algorithm
   LDIAG  =      T    sub-space diagonalisation (order eigenvalues)
   LSUBROT=      F    optimize rotation matrix (better conditioning)
   TURBO    =      0    0=normal 1=particle mesh
   IRESTART =      0    0=no restart 2=restart with 2 vectors
   NREBOOT  =      0    no. of reboots
   NMIN     =      0    reboot dimension
   EREF     =   0.00    reference energy to select bands
   IMIX   =      4    mixing-type and parameters
     AMIX     =   0.40;   BMIX     =  1.00
     AMIX_MAG =   1.60;   BMIX_MAG =  1.00
     AMIN     =   0.10
     WC   =   100.;   INIMIX=   1;  MIXPRE=   1;  MAXMIX= -45

 Intra band minimization:
   WEIMIN = 0.0000     energy-eigenvalue tresh-hold
   EBREAK =  0.16E-06  absolut break condition
   DEPER  =   0.30     relativ break condition  

   TIME   =   0.20     timestep for ELM

  volume/ion in A,a.u.               =      52.95       357.31
  Fermi-wavevector in a.u.,A,eV,Ry     =   0.705265  1.332758  6.767522  0.497399
  Thomas-Fermi vector in A             =   1.790730
 
 Write flags
   LWAVE        =      T    write WAVECAR
   LDOWNSAMPLE  =      F    k-point downsampling of WAVECAR
   LCHARG       =      T    write CHGCAR
   LVTOT        =      F    write LOCPOT, total local potential
   LVHAR        =      T    write LOCPOT, Hartree potential only
   LELF         =      F    write electronic localiz. function (ELF)
   LORBIT       =     11    0 simple, 1 ext, 2 COOP (PROOUT), +10 PAW based schemes


 Dipole corrections
   LMONO  =      F    monopole corrections only (constant potential shift)
   LDIPOL =      T    correct potential (dipole corrections)
   IDIPOL =      3    1-x, 2-y, 3-z, 4-all directions 
   EPSILON=  1.0000000 bulk dielectric constant

 Exchange correlation treatment:
   GGA     =    PE    GGA type
   LEXCH   =     8    internal setting for exchange type
   VOSKOWN=      0    Vosko Wilk Nusair interpolation
   EXXOEP  =     0    0=HF, 1=EXX-LHF (local Hartree Fock) 2=EXX OEP
   LHFCALC =     T    Hartree Fock is set to
   LSYMGRAD=     F    symmetrize gradient (conserves proper symmetry)
   PRECFOCK=normal    Normal, Fast or Accurate (Low or Medium for compatibility)
   LRHFCALC=     F    long range Hartree Fock
   LRSCOR  =     F    long range correlation only (use DFT for short range part)
   LTHOMAS =     F    Thomas Fermi screening in HF
   LMODELHF=     F    short range full HF, long range fraction AEXX
   ENCUT4O =  -1.0   cutoff for four orbital integrals eV
   LMAXFOCK=     4    L truncation for augmentation on plane wave grid
   LMAXFOCKAE=  -1    L truncation for all-electron charge restoration on plane wave grid
   NMAXFOCKAE=   1    number of basis functions for all-electron charge restoration
   LFOCKAEDFT=     F  apply the AE augmentation even for DFT
   NKREDX  =     1    reduce k-point grid by
   NKREDY  =     1    reduce k-point grid by
   NKREDZ  =     1    reduce k-point grid by
   SHIFTRED=     F    shift reduced grid of Gamma
   HFKIDENT=     F    idential grid for each k-point
   ODDONLY =     F    use only odd q-grid points
   EVENONLY=     F    use only even q-grid points
   HFALPHA =   -1.0000 decay constant for conv. correction
   MCALPHA =    0.0000 extent of test-charge in conv. correction in multipole expansion
   AEXX    =    0.2500 exact exchange contribution
   HFSCREEN=    0.2000 screening length (either q_TF or 0.3 A-1)
   HFSCREENC=   0.2000 screening length for correlation (either q_TF or 0.3 A-1)
   HFRCUT  =    0.0000 spherical cutoff for potential kernel
   ALDAX   =    0.7500 LDA exchange part
   AGGAX   =    0.7500 GGA exchange part
   ALDAC   =    1.0000 LDA correlation
   AGGAC   =    1.0000 GGA correlation
   ENCUTFOCK=  -1.0 apply spherical cutoff to Coloumb kernel
   NBANDSGWLOW=     1    first orbital included in HF term
   NBLOCK_FOCK=    64    blocking factor in FOCK_ACC
 Linear response parameters
   LEPSILON=     F    determine dielectric tensor
   LRPA    =     F    only Hartree local field effects (RPA)
   LNABLA  =     F    use nabla operator in PAW spheres
   LVEL    =     F    velocity operator in full k-point grid
   LINTERFAST=   F  fast interpolation
   KINTER  =     0    interpolate to denser k-point grid
   CSHIFT  =0.1000    complex shift for real part using Kramers Kronig
   OMEGAMAX=  -1.0    maximum frequency
   DEG_THRESHOLD= 0.2000000E-02 threshold for treating states as degnerate
   RTIME   =   -0.100 relaxation time in fs
  (WPLASMAI=    0.000 imaginary part of plasma frequency in eV, 0.658/RTIME)
   DFIELD  = 0.0000000 0.0000000 0.0000000 field for delta impulse in time
 
 Orbital magnetization related:
   ORBITALMAG=     F  switch on orbital magnetization
   LCHIMAG   =     F  perturbation theory with respect to B field
   DQ        =  0.001000  dq finite difference perturbation B field
   LLRAUG    =     F  two centre corrections for induced B field



--------------------------------------------------------------------------------------------------------


 Static calculation
 charge density and potential will be updated during run
 spin polarized calculation
 Conjugate gradient for all bands (Freysoldt, et al. PRB 79, 241103 (2009))
 perform sub-space diagonalisation
    before iterative eigenvector-optimisation
 modified Broyden-mixing scheme, WC =      100.0
 initial mixing is a Kerker type mixing with AMIX =  0.4000 and BMIX =      1.0000
 Hartree-type preconditioning will be used
 using additional bands           33
 reciprocal scheme for non local part
 use partial core corrections
 no Harris-corrections to forces 
 use gradient corrections 
 use of overlap-Matrix (Vanderbilt PP)
 Gauss-broadening in eV      SIGMA  =   0.10


--------------------------------------------------------------------------------------------------------


  energy-cutoff  :      500.00
  volume of cell :     3176.88
      direct lattice vectors                 reciprocal lattice vectors
    12.888400000  0.000000000  0.000000000     0.077589150  0.001159676  0.001853713
    -0.183768974 12.295226737  0.000000000     0.000000000  0.081332376  0.004600226
    -0.462020683 -1.133916932 20.047743297     0.000000000  0.000000000  0.049880926

  length of vectors
    12.888400000 12.296600000 20.085100000     0.077619954  0.081462368  0.049880926


 
 old parameters found on file WAVECAR:
  energy-cutoff  :      500.00
  volume of cell :     3176.88
      direct lattice vectors                 reciprocal lattice vectors
    12.888400000  0.000000000  0.000000000     0.077589150  0.001159676  0.001853713
    -0.183768974 12.295226737  0.000000000     0.000000000  0.081332376  0.004600226
    -0.462020683 -1.133916932 20.047743297     0.000000000  0.000000000  0.049880926

  length of vectors

 
 k-points in units of 2pi/SCALE and weight: KPOINTS created by Atomic Simulation Env
   0.01939729  0.02062301  0.00161348       0.500
  -0.01939729  0.02004317  0.00068663       0.500
 
 k-points in reciprocal lattice and weights: KPOINTS created by Atomic Simulation Env
   0.25000000  0.25000000  0.00000000       0.500
  -0.25000000  0.25000000 -0.00000000       0.500
 
 position of ions in fractional coordinates (direct lattice) 
   0.22095083  0.00385703  0.49912532
   0.05588745  0.10274121  0.49889477
   0.10990198  0.00294489  0.49885395
   0.27783201  0.10440145  0.49877949
   0.22449275  0.20636988  0.49880922
   0.05757869  0.30297423  0.49924115
   0.11315788  0.20364797  0.49907252
   0.28142230  0.30884217  0.49879807
   0.22443606  0.40983181  0.50011861
   0.05406802  0.50247590  0.49915187
   0.11271675  0.40458350  0.49944483
   0.21608079  0.60502224  0.50141640
   0.05177982  0.70342936  0.49858426
   0.10725096  0.60414298  0.49956785
   0.27154104  0.70546531  0.50155132
   0.21750652  0.80414639  0.50017663
   0.05258978  0.90288517  0.49847483
   0.10708358  0.80349135  0.49904910
   0.27504179  0.90341743  0.49974423
   0.55349061  0.99654163  0.49838233
   0.38858471  0.10138879  0.49871175
   0.44277135  0.99929551  0.49875091
   0.61060163  0.09700813  0.49911584
   0.55649969  0.19750959  0.49986184
   0.39328576  0.30505400  0.49790107
   0.44559554  0.20173675  0.49871541
   0.61460356  0.29623119  0.50214401
   0.55972180  0.39567283  0.50303083
   0.61599114  0.49778472  0.50235048
   0.60736307  0.69234907  0.49623902
   0.54931816  0.79245895  0.49759610
   0.38567232  0.89891094  0.49940874
   0.43732085  0.79501492  0.49973782
   0.60665138  0.89468448  0.49759611
   0.88691841  0.00035028  0.49815217
   0.72158768  0.09817761  0.49931112
   0.77556098  0.99822224  0.49810281
   0.94455282  0.10070418  0.49885733
   0.88989884  0.20019263  0.49971564
   0.72464442  0.29779493  0.50175763
   0.77914245  0.19832489  0.50036379
   0.94641877  0.30093426  0.49972381
   0.89027040  0.39975326  0.49996674
   0.72563929  0.49775297  0.50122604
   0.78021524  0.39824306  0.50139052
   0.94419953  0.50092127  0.49883214
   0.88782695  0.60040896  0.49784118
   0.71912849  0.69689053  0.49684237
   0.77794633  0.59896801  0.49818804
   0.94162472  0.70153827  0.49751384
   0.88533066  0.80029420  0.49728758
   0.71813949  0.89741026  0.49722851
   0.77408829  0.79820174  0.49687279
   0.94177815  0.90098899  0.49781754
   0.27403286  0.51087192  0.50238388
   0.45152059  0.40023963  0.49666532
   0.55763150  0.59198754  0.49506682
   0.37863328  0.70007486  0.50232095
   0.41666292  0.55049493  0.50336160
   0.52975638  0.48962678  0.58880315
 
 position of ions in cartesian coordinates  (Angst):
   2.61638761 -0.51854359 10.00633625
   0.47091940  0.69752128 10.00171422
   1.18543863 -0.52945080 10.00089585
   3.33117783  0.71806504  9.99940320
   2.62496783  1.97175619  9.99999917
   0.45576025  3.15903888 10.00865838
   1.19041796  1.93799121 10.00527782
   3.33987259  3.23168888  9.99977571
   2.58624214  4.47188204 10.02624953
   0.37389232  5.61205837 10.00686861
   1.14763486  4.40811689 10.01274173
   2.44208654  6.87032110 10.05226729
   0.30773427  8.08347035  9.99548925
   1.04045980  6.86160647 10.01520796
   3.13835988  8.10513842 10.05497206
   2.42444189  9.32000349 10.02741277
   0.28157015 10.53594886  9.99329543
   1.00190823  9.31322805 10.00480831
   3.14793632 10.54105364 10.01874400
   6.72021206 11.68758117  9.99144111
   4.75918790  0.68110043  9.99804512
   5.29254154 11.72102276  9.99883024
   7.62124906  0.62678100 10.00614630
   6.90514793  1.86162344 10.02110180
   4.78272420  3.18612964  9.98179284
   5.47552372  1.91489726  9.99811852
   7.63481755  3.07284007 10.06685411
   6.90879536  4.29449199 10.08463300
   7.61556649  5.55075223 10.07099350
   7.47143325  7.94989498  9.94847250
   6.70430317  9.17922981  9.97567895
   4.57476998 10.48602586 10.01201812
   5.25937777  9.20822755 10.01861547
   7.42445067 10.43611594  9.97567911
  11.20073824 -0.56055642  9.98682692
   9.05137660  0.64093868 10.01006110
   9.58216409 11.70856162  9.98583718
  11.92478581  0.67251801 10.00096372
  11.20170411  1.89477778 10.01817090
   9.05295922  3.09250470 10.05910813
   9.77427520  1.87107854 10.03116482
  11.91163853  3.13340963 10.01833463
  11.16970381  4.34813620 10.02320492
   9.02928104  5.55163690 10.04845107
   9.75088864  4.32795356 10.05174849
  11.84669668  5.59330639 10.00045879
  11.10231945  6.81765376  9.98059218
   8.91079729  8.00504908  9.96056823
   9.68623856  6.79954369  9.98754591
  11.77725333  8.06143272  9.97402983
  11.03366933  9.27591581  9.96949373
   8.86102294 10.47004680  9.96830944
   9.60050933  9.25065892  9.96117809
  11.74243770 10.51338024  9.98011823
   3.20585102  5.71162448 10.07166309
   5.51635665  4.35785982  9.95701875
   6.84945777  6.71725639  9.92497255
   4.51924250  8.03798893 10.07040155
   5.03639104  6.19768969 10.09126414
   6.46569473  5.35241841 11.80417449
 


--------------------------------------------------------------------------------------------------------


 k-point  1 :   0.2500 0.2500 0.0000  plane waves:   80685
 k-point  2 :  -0.2500 0.2500-0.0000  plane waves:   80655

 maximum and minimum number of plane-waves per node :      2038     1969

 maximum number of plane-waves:     80685
 maximum index in each direction: 
   IXMAX=   23   IYMAX=   22   IZMAX=   36
   IXMIN=  -23   IYMIN=  -22   IZMIN=  -36


 parallel 3D FFT for wavefunctions:
    minimum data exchange during FFTs selected (reduces bandwidth)
 parallel 3D FFT for charge:
    minimum data exchange during FFTs selected (reduces bandwidth)


 FFT grid for exact exchange (Hartree Fock) 
  NGX = 72; NGY = 70; NGZ =112

 
 Radii for the augmentation spheres in the non-local exchange
 for species   1 augmentation radius   0.874 (default was   0.699)
       energy cutoff for augmentation   2000.0
 for species   2 augmentation radius   0.886 (default was   0.709)
       energy cutoff for augmentation   2000.0
 for species   3 augmentation radius   1.263 (default was   1.010)
       energy cutoff for augmentation   2000.0
 for species   4 augmentation radius   1.224 (default was   0.979)
       energy cutoff for augmentation   2000.0

 real space projection operators:
  total allocation   :       2579.20 KBytes
  max/ min on nodes  :         91.95         42.61

 Maximum index for augmentation-charges in exchange          138
  SETUP_FOCK is finished

 total amount of memory used by VASP MPI-rank0   140246. kBytes
=======================================================================

   base      :      30000. kBytes
   nonl-proj :       4321. kBytes
   fftplans  :      11188. kBytes
   grid      :      29312. kBytes
   one-center:         62. kBytes
   HF        :         23. kBytes
   nonlr-proj:       1689. kBytes
   wavefun   :      63651. kBytes
 
     INWAV:  cpu time    4.1652: real time    4.1765
 Broyden mixing: mesh for mixing (old mesh)
   NGX = 47   NGY = 45   NGZ = 73
  (NGX  =192   NGY  =180   NGZ  =300)
  gives a total of 154395 points

 charge density for first step will be calculated from the start-wavefunctions


--------------------------------------------------------------------------------------------------------


 Maximum index for augmentation-charges          700 (set IRDMAX)


--------------------------------------------------------------------------------------------------------


 initial charge from wavefunction
 First call to EWALD:  gamma=   0.121
 Maximum number of real-space cells 3x 3x 2
 Maximum number of reciprocal cells 2x 2x 4

    FEWALD:  cpu time    0.0021: real time    0.0021


--------------------------------------- Iteration      1(   1)  ---------------------------------------


    POTLOK:  cpu time    0.8509: real time    0.8534
    SETDIJ:  cpu time    0.9689: real time    0.9718
    TRIAL :  cpu time  173.6530: real time  174.1519
    CORREC:  cpu time    0.0007: real time    0.0007
    CHARGE:  cpu time    0.7598: real time    0.7618
    --------------------------------------------
      LOOP:  cpu time  176.2531: real time  176.7617

 eigenvalue-minimisations  :     0
 total energy-change (2. order) :-0.6262649E+03  (-0.4917391E+00)
 number of electron     254.0000011 magnetization       1.9999956
 augmentation part       16.5614756 magnetization       1.7412440

 DIPCOR: dipole corrections for dipol
 direction  3 min pos     1,
 dipolmoment           0.004110      0.010086     -0.178326 electrons x Angstroem
 Tr[quadrupol]     -7241.373965

 energy correction for charged system         0.000000 eV
 dipol+quadrupol energy correction           -0.000916 eV
 added-field ion interaction          0.147404 eV  (added to PSCEN)


 Free energy of the ion-electron system (eV)
  ---------------------------------------------------
  alpha Z        PSCENC =       106.68887145
  Ewald energy   TEWEN  =     42229.94240875
  -Hartree energ DENC   =    -51396.72477936
  -exchange      EXHF   =       578.82295138
  -V(xc)+E(xc)   XCENC  =       659.07365921
  PAW double counting   =     27867.71121256   -27967.23855634
  entropy T*S    EENTRO =        -0.00007357
  eigenvalues    EBANDS =     -3265.39218872
  atomic energy  EATOM  =     10560.85170134
  ---------------------------------------------------
  free energy    TOTEN  =      -626.26494398 eV

  energy without entropy =     -626.26487041  energy(sigma->0) =     -626.26490720
  exchange ACFDT corr.  =        -0.00015852  see jH, gK, PRB 81, 115126


--------------------------------------------------------------------------------------------------------




--------------------------------------- Iteration      1(   2)  ---------------------------------------


    POTLOK:  cpu time    0.8636: real time    0.8665
    SETDIJ:  cpu time    0.9882: real time    0.9910
    TRIAL :  cpu time  172.5126: real time  173.1085
    CORREC:  cpu time    0.0007: real time    0.0007
    CHARGE:  cpu time    0.7577: real time    0.7595
    --------------------------------------------
      LOOP:  cpu time  175.1245: real time  175.7313

 eigenvalue-minimisations  :     0
 total energy-change (2. order) :-0.3762257E+00  (-0.4238932E+00)
 number of electron     254.0000011 magnetization       2.0000042
 augmentation part       16.5362186 magnetization       1.7861399

 DIPCOR: dipole corrections for dipol
 direction  3 min pos     1,
 dipolmoment           0.003346      0.008212     -0.145188 electrons x Angstroem
 Tr[quadrupol]     -7241.191529

 energy correction for charged system         0.000000 eV
 dipol+quadrupol energy correction           -0.000607 eV
 added-field ion interaction          0.120012 eV  (added to PSCEN)


 Free energy of the ion-electron system (eV)
  ---------------------------------------------------
  alpha Z        PSCENC =       106.66178813
  Ewald energy   TEWEN  =     42229.94240875
  -Hartree energ DENC   =    -51388.95695631
  -exchange      EXHF   =       578.83164627
  -V(xc)+E(xc)   XCENC  =       658.86220037
  PAW double counting   =     28005.49812647   -28106.04546924
  entropy T*S    EENTRO =        -0.00001620
  eigenvalues    EBANDS =     -3272.28654190
  atomic energy  EATOM  =     10560.85170134
  ---------------------------------------------------
  free energy    TOTEN  =      -626.64116970 eV

  energy without entropy =     -626.64115349  energy(sigma->0) =     -626.64116159
  exchange ACFDT corr.  =        -0.00007779  see jH, gK, PRB 81, 115126


--------------------------------------------------------------------------------------------------------




--------------------------------------- Iteration      1(   3)  ---------------------------------------


    POTLOK:  cpu time    0.8698: real time    0.8730
    SETDIJ:  cpu time    0.9943: real time    0.9970
    TRIAL :  cpu time  172.0701: real time  172.5242
    CORREC:  cpu time    0.0007: real time    0.0007
    CHARGE:  cpu time    0.7560: real time    0.7578
    --------------------------------------------
      LOOP:  cpu time  174.6927: real time  175.1577

 eigenvalue-minimisations  :     0
 total energy-change (2. order) :-0.3275856E+00  (-0.2450077E+00)
 number of electron     254.0000011 magnetization       2.0000073
 augmentation part       16.5064814 magnetization       1.8286300

 DIPCOR: dipole corrections for dipol
 direction  3 min pos     1,
 dipolmoment           0.005027      0.012337     -0.218121 electrons x Angstroem
 Tr[quadrupol]     -7241.144664

 energy correction for charged system         0.000000 eV
 dipol+quadrupol energy correction           -0.001370 eV
 added-field ion interaction          0.180299 eV  (added to PSCEN)


 Free energy of the ion-electron system (eV)
  ---------------------------------------------------
  alpha Z        PSCENC =       106.72131167
  Ewald energy   TEWEN  =     42229.94240875
  -Hartree energ DENC   =    -51375.29461150
  -exchange      EXHF   =       578.75193034
  -V(xc)+E(xc)   XCENC  =       658.43579259
  PAW double counting   =     28168.84783855   -28268.39244932
  entropy T*S    EENTRO =        -0.00000612
  eigenvalues    EBANDS =     -3286.83266155
  atomic energy  EATOM  =     10560.85170134
  ---------------------------------------------------
  free energy    TOTEN  =      -626.96875533 eV

  energy without entropy =     -626.96874921  energy(sigma->0) =     -626.96875227
  exchange ACFDT corr.  =        -0.00001014  see jH, gK, PRB 81, 115126


--------------------------------------------------------------------------------------------------------




--------------------------------------- Iteration      1(   4)  ---------------------------------------


    POTLOK:  cpu time    0.8683: real time    0.8751
    SETDIJ:  cpu time    1.0026: real time    1.0060
    TRIAL :  cpu time  172.0830: real time  172.5579
    CORREC:  cpu time    0.0007: real time    0.0007
    CHARGE:  cpu time    0.7561: real time    0.7581
    --------------------------------------------
      LOOP:  cpu time  174.7120: real time  175.2029

 eigenvalue-minimisations  :     0
 total energy-change (2. order) :-0.1864597E+00  (-0.1474543E+00)
 number of electron     254.0000011 magnetization       2.0000078
 augmentation part       16.5175602 magnetization       1.8591997

 DIPCOR: dipole corrections for dipol
 direction  3 min pos     1,
 dipolmoment           0.005934      0.014562     -0.257464 electrons x Angstroem
 Tr[quadrupol]     -7241.155798

 energy correction for charged system         0.000000 eV
 dipol+quadrupol energy correction           -0.001909 eV
 added-field ion interaction          0.212819 eV  (added to PSCEN)


 Free energy of the ion-electron system (eV)
  ---------------------------------------------------
  alpha Z        PSCENC =       106.75329331
  Ewald energy   TEWEN  =     42229.94240875
  -Hartree energ DENC   =    -51367.08918118
  -exchange      EXHF   =       578.84950146
  -V(xc)+E(xc)   XCENC  =       658.20832041
  PAW double counting   =     28309.67673475   -28408.24979731
  entropy T*S    EENTRO =        -0.00000372
  eigenvalues    EBANDS =     -3296.09819041
  atomic energy  EATOM  =     10560.85170134
  ---------------------------------------------------
  free energy    TOTEN  =      -627.15521501 eV

  energy without entropy =     -627.15521129  energy(sigma->0) =     -627.15521315
  exchange ACFDT corr.  =        -0.00000183  see jH, gK, PRB 81, 115126


--------------------------------------------------------------------------------------------------------




--------------------------------------- Iteration      1(   5)  ---------------------------------------


    POTLOK:  cpu time    0.8734: real time    0.8763
    SETDIJ:  cpu time    0.9788: real time    0.9814
    TRIAL :  cpu time  172.2701: real time  172.7235
    CORREC:  cpu time    0.0006: real time    0.0006
    CHARGE:  cpu time    0.7556: real time    0.7581
    --------------------------------------------
      LOOP:  cpu time  174.8799: real time  175.3446

 eigenvalue-minimisations  :     0
 total energy-change (2. order) :-0.1182084E+00  (-0.9442643E-01)
 number of electron     254.0000011 magnetization       2.0000073
 augmentation part       16.5369788 magnetization       1.8815228

 DIPCOR: dipole corrections for dipol
 direction  3 min pos     1,
 dipolmoment           0.005928      0.014548     -0.257214 electrons x Angstroem
 Tr[quadrupol]     -7241.231615

 energy correction for charged system         0.000000 eV
 dipol+quadrupol energy correction           -0.001905 eV
 added-field ion interaction          0.212613 eV  (added to PSCEN)


 Free energy of the ion-electron system (eV)
  ---------------------------------------------------
  alpha Z        PSCENC =       106.75309062
  Ewald energy   TEWEN  =     42229.94240875
  -Hartree energ DENC   =    -51369.60093374
  -exchange      EXHF   =       579.16615791
  -V(xc)+E(xc)   XCENC  =       658.28894911
  PAW double counting   =     28416.48483240   -28515.24698306
  entropy T*S    EENTRO =        -0.00000280
  eigenvalues    EBANDS =     -3293.91264296
  atomic energy  EATOM  =     10560.85170134
  ---------------------------------------------------
  free energy    TOTEN  =      -627.27342336 eV

  energy without entropy =     -627.27342055  energy(sigma->0) =     -627.27342195
  exchange ACFDT corr.  =        -0.00000163  see jH, gK, PRB 81, 115126


--------------------------------------------------------------------------------------------------------




--------------------------------------- Iteration      1(   6)  ---------------------------------------


    POTLOK:  cpu time    0.8726: real time    0.8766
    SETDIJ:  cpu time    1.0031: real time    1.0059
    TRIAL :  cpu time  171.6853: real time  172.1376
    CORREC:  cpu time    0.0007: real time    0.0007
    CHARGE:  cpu time    0.7549: real time    0.7569
    --------------------------------------------
      LOOP:  cpu time  174.3184: real time  174.7829

 eigenvalue-minimisations  :     0
 total energy-change (2. order) :-0.7904885E-01  (-0.6484875E-01)
 number of electron     254.0000012 magnetization       2.0000069
 augmentation part       16.5440152 magnetization       1.8990199

 DIPCOR: dipole corrections for dipol
 direction  3 min pos     1,
 dipolmoment           0.006215      0.015253     -0.269678 electrons x Angstroem
 Tr[quadrupol]     -7241.358140

 energy correction for charged system         0.000000 eV
 dipol+quadrupol energy correction           -0.002094 eV
 added-field ion interaction          0.222916 eV  (added to PSCEN)


 Free energy of the ion-electron system (eV)
  ---------------------------------------------------
  alpha Z        PSCENC =       106.76320420
  Ewald energy   TEWEN  =     42229.94240875
  -Hartree energ DENC   =    -51375.91698997
  -exchange      EXHF   =       579.50499629
  -V(xc)+E(xc)   XCENC  =       658.45350257
  PAW double counting   =     28487.41903075   -28586.48343742
  entropy T*S    EENTRO =        -0.00000243
  eigenvalues    EBANDS =     -3287.88688592
  atomic energy  EATOM  =     10560.85170134
  ---------------------------------------------------
  free energy    TOTEN  =      -627.35247220 eV

  energy without entropy =     -627.35246977  energy(sigma->0) =     -627.35247099
  exchange ACFDT corr.  =        -0.00000121  see jH, gK, PRB 81, 115126


--------------------------------------------------------------------------------------------------------




--------------------------------------- Iteration      1(   7)  ---------------------------------------


    POTLOK:  cpu time    0.8697: real time    0.8734
    SETDIJ:  cpu time    1.0034: real time    1.0064
    TRIAL :  cpu time  171.7607: real time  172.2149
    CORREC:  cpu time    0.0006: real time    0.0006
    CHARGE:  cpu time    0.7555: real time    0.7575
    --------------------------------------------
      LOOP:  cpu time  174.3912: real time  174.8577

 eigenvalue-minimisations  :     0
 total energy-change (2. order) :-0.5560941E-01  (-0.4489956E-01)
 number of electron     254.0000012 magnetization       2.0000067
 augmentation part       16.5451981 magnetization       1.9132001

 DIPCOR: dipole corrections for dipol
 direction  3 min pos     1,
 dipolmoment           0.006730      0.016518     -0.292046 electrons x Angstroem
 Tr[quadrupol]     -7241.471358

 energy correction for charged system         0.000000 eV
 dipol+quadrupol energy correction           -0.002456 eV
 added-field ion interaction          0.241405 eV  (added to PSCEN)


 Free energy of the ion-electron system (eV)
  ---------------------------------------------------
  alpha Z        PSCENC =       106.78133164
  Ewald energy   TEWEN  =     42229.94240875
  -Hartree energ DENC   =    -51380.61103813
  -exchange      EXHF   =       579.75982207
  -V(xc)+E(xc)   XCENC  =       658.57407034
  PAW double counting   =     28529.28087489   -28628.32785087
  entropy T*S    EENTRO =        -0.00000227
  eigenvalues    EBANDS =     -3283.65939922
  atomic energy  EATOM  =     10560.85170134
  ---------------------------------------------------
  free energy    TOTEN  =      -627.40808162 eV

  energy without entropy =     -627.40807935  energy(sigma->0) =     -627.40808048
  exchange ACFDT corr.  =        -0.00000059  see jH, gK, PRB 81, 115126


--------------------------------------------------------------------------------------------------------




--------------------------------------- Iteration      1(   8)  ---------------------------------------


    POTLOK:  cpu time    0.8654: real time    0.8690
    SETDIJ:  cpu time    0.9827: real time    0.9860
    TRIAL :  cpu time  171.7320: real time  172.1922
    CORREC:  cpu time    0.0007: real time    0.0007
    CHARGE:  cpu time    0.7548: real time    0.7567
    --------------------------------------------
      LOOP:  cpu time  174.3374: real time  174.8099

 eigenvalue-minimisations  :     0
 total energy-change (2. order) :-0.3948329E-01  (-0.3252046E-01)
 number of electron     254.0000012 magnetization       2.0000064
 augmentation part       16.5485211 magnetization       1.9256694

 DIPCOR: dipole corrections for dipol
 direction  3 min pos     1,
 dipolmoment           0.007072      0.017356     -0.306861 electrons x Angstroem
 Tr[quadrupol]     -7241.539174

 energy correction for charged system         0.000000 eV
 dipol+quadrupol energy correction           -0.002711 eV
 added-field ion interaction          0.253651 eV  (added to PSCEN)


 Free energy of the ion-electron system (eV)
  ---------------------------------------------------
  alpha Z        PSCENC =       106.79332263
  Ewald energy   TEWEN  =     42229.94240875
  -Hartree energ DENC   =    -51383.19953570
  -exchange      EXHF   =       579.93667289
  -V(xc)+E(xc)   XCENC  =       658.65212283
  PAW double counting   =     28552.28036329   -28651.28008641
  entropy T*S    EENTRO =        -0.00000214
  eigenvalues    EBANDS =     -3281.42453227
  atomic energy  EATOM  =     10560.85170134
  ---------------------------------------------------
  free energy    TOTEN  =      -627.44756491 eV

  energy without entropy =     -627.44756277  energy(sigma->0) =     -627.44756384
  exchange ACFDT corr.  =        -0.00000055  see jH, gK, PRB 81, 115126


--------------------------------------------------------------------------------------------------------




--------------------------------------- Iteration      1(   9)  ---------------------------------------


    POTLOK:  cpu time    0.8632: real time    0.8674
    SETDIJ:  cpu time    0.9822: real time    0.9855
    TRIAL :  cpu time  172.1584: real time  172.6200
    CORREC:  cpu time    0.0006: real time    0.0006
    CHARGE:  cpu time    0.7566: real time    0.7586
    --------------------------------------------
      LOOP:  cpu time  174.7633: real time  175.2382

 eigenvalue-minimisations  :     0
 total energy-change (2. order) :-0.2905971E-01  (-0.2405840E-01)
 number of electron     254.0000012 magnetization       2.0000061
 augmentation part       16.5527940 magnetization       1.9374669

 DIPCOR: dipole corrections for dipol
 direction  3 min pos     1,
 dipolmoment           0.007248      0.017788     -0.314496 electrons x Angstroem
 Tr[quadrupol]     -7241.576076

 energy correction for charged system         0.000000 eV
 dipol+quadrupol energy correction           -0.002848 eV
 added-field ion interaction          0.259962 eV  (added to PSCEN)


 Free energy of the ion-electron system (eV)
  ---------------------------------------------------
  alpha Z        PSCENC =       106.79949707
  Ewald energy   TEWEN  =     42229.94240875
  -Hartree energ DENC   =    -51384.73576831
  -exchange      EXHF   =       580.06156907
  -V(xc)+E(xc)   XCENC  =       658.70569791
  PAW double counting   =     28564.81138511   -28663.88955003
  entropy T*S    EENTRO =        -0.00000203
  eigenvalues    EBANDS =     -3280.02356339
  atomic energy  EATOM  =     10560.85170134
  ---------------------------------------------------
  free energy    TOTEN  =      -627.47662462 eV

  energy without entropy =     -627.47662259  energy(sigma->0) =     -627.47662361
  exchange ACFDT corr.  =        -0.00000051  see jH, gK, PRB 81, 115126


--------------------------------------------------------------------------------------------------------




--------------------------------------- Iteration      1(  10)  ---------------------------------------


    POTLOK:  cpu time    0.8621: real time    0.8647
    SETDIJ:  cpu time    0.9829: real time    0.9862
    TRIAL :  cpu time  172.0553: real time  172.5110
    CORREC:  cpu time    0.0006: real time    0.0006
    CHARGE:  cpu time    0.7598: real time    0.7617
    --------------------------------------------
      LOOP:  cpu time  174.6625: real time  175.1301

 eigenvalue-minimisations  :     0
 total energy-change (2. order) :-0.2182489E-01  (-0.1828919E-01)
 number of electron     254.0000012 magnetization       2.0000060
 augmentation part       16.5553443 magnetization       1.9487654

 DIPCOR: dipole corrections for dipol
 direction  3 min pos     1,
 dipolmoment           0.007406      0.018176     -0.321348 electrons x Angstroem
 Tr[quadrupol]     -7241.602309

 energy correction for charged system         0.000000 eV
 dipol+quadrupol energy correction           -0.002973 eV
 added-field ion interaction          0.265626 eV  (added to PSCEN)


 Free energy of the ion-electron system (eV)
  ---------------------------------------------------
  alpha Z        PSCENC =       106.80503558
  Ewald energy   TEWEN  =     42229.94240875
  -Hartree energ DENC   =    -51385.66133449
  -exchange      EXHF   =       580.14846288
  -V(xc)+E(xc)   XCENC  =       658.73726883
  PAW double counting   =     28571.39875844   -28670.58031972
  entropy T*S    EENTRO =        -0.00000197
  eigenvalues    EBANDS =     -3279.14042909
  atomic energy  EATOM  =     10560.85170134
  ---------------------------------------------------
  free energy    TOTEN  =      -627.49844951 eV

  energy without entropy =     -627.49844753  energy(sigma->0) =     -627.49844852
  exchange ACFDT corr.  =        -0.00000048  see jH, gK, PRB 81, 115126


--------------------------------------------------------------------------------------------------------




--------------------------------------- Iteration      1(  11)  ---------------------------------------


    POTLOK:  cpu time    0.8651: real time    0.8692
    SETDIJ:  cpu time    1.0027: real time    1.0061
    TRIAL :  cpu time  171.9499: real time  172.4108
    CORREC:  cpu time    0.0006: real time    0.0006
    CHARGE:  cpu time    0.7552: real time    0.7577
    --------------------------------------------
      LOOP:  cpu time  174.5749: real time  175.0505

 eigenvalue-minimisations  :     0
 total energy-change (2. order) :-0.1676844E-01  (-0.1413236E-01)
 number of electron     254.0000012 magnetization       2.0000060
 augmentation part       16.5561269 magnetization       1.9593327

 DIPCOR: dipole corrections for dipol
 direction  3 min pos     1,
 dipolmoment           0.007569      0.018577     -0.328439 electrons x Angstroem
 Tr[quadrupol]     -7241.624900

 energy correction for charged system         0.000000 eV
 dipol+quadrupol energy correction           -0.003106 eV
 added-field ion interaction          0.271487 eV  (added to PSCEN)


 Free energy of the ion-electron system (eV)
  ---------------------------------------------------
  alpha Z        PSCENC =       106.81076376
  Ewald energy   TEWEN  =     42229.94240875
  -Hartree energ DENC   =    -51386.13237521
  -exchange      EXHF   =       580.21059793
  -V(xc)+E(xc)   XCENC  =       658.75297415
  PAW double counting   =     28574.54039463   -28673.77620724
  entropy T*S    EENTRO =        -0.00000199
  eigenvalues    EBANDS =     -3278.71547408
  atomic energy  EATOM  =     10560.85170134
  ---------------------------------------------------
  free energy    TOTEN  =      -627.51521795 eV

  energy without entropy =     -627.51521596  energy(sigma->0) =     -627.51521695
  exchange ACFDT corr.  =        -0.00000047  see jH, gK, PRB 81, 115126


--------------------------------------------------------------------------------------------------------




--------------------------------------- Iteration      1(  12)  ---------------------------------------


    POTLOK:  cpu time    0.8705: real time    0.8751
    SETDIJ:  cpu time    0.9911: real time    0.9937
    TRIAL :  cpu time  171.9790: real time  172.4323
    CORREC:  cpu time    0.0007: real time    0.0007
    CHARGE:  cpu time    0.7541: real time    0.7560
    --------------------------------------------
      LOOP:  cpu time  174.5970: real time  175.0629

 eigenvalue-minimisations  :     0
 total energy-change (2. order) :-0.1308965E-01  (-0.1115325E-01)
 number of electron     254.0000012 magnetization       2.0000062
 augmentation part       16.5564733 magnetization       1.9689332

 DIPCOR: dipole corrections for dipol
 direction  3 min pos     1,
 dipolmoment           0.007695      0.018885     -0.333895 electrons x Angstroem
 Tr[quadrupol]     -7241.643765

 energy correction for charged system         0.000000 eV
 dipol+quadrupol energy correction           -0.003210 eV
 added-field ion interaction          0.275997 eV  (added to PSCEN)


 Free energy of the ion-electron system (eV)
  ---------------------------------------------------
  alpha Z        PSCENC =       106.81516942
  Ewald energy   TEWEN  =     42229.94240875
  -Hartree energ DENC   =    -51386.36278802
  -exchange      EXHF   =       580.26056172
  -V(xc)+E(xc)   XCENC  =       658.76303861
  PAW double counting   =     28576.00997754   -28675.26699575
  entropy T*S    EENTRO =        -0.00000204
  eigenvalues    EBANDS =     -3278.54137921
  atomic energy  EATOM  =     10560.85170134
  ---------------------------------------------------
  free energy    TOTEN  =      -627.52830760 eV

  energy without entropy =     -627.52830555  energy(sigma->0) =     -627.52830658
  exchange ACFDT corr.  =        -0.00000047  see jH, gK, PRB 81, 115126


--------------------------------------------------------------------------------------------------------




--------------------------------------- Iteration      1(  13)  ---------------------------------------


    POTLOK:  cpu time    0.8551: real time    0.8588
    SETDIJ:  cpu time    1.0028: real time    1.0054
    TRIAL :  cpu time  172.3662: real time  172.8202
    CORREC:  cpu time    0.0007: real time    0.0007
    CHARGE:  cpu time    0.7549: real time    0.7568
    --------------------------------------------
      LOOP:  cpu time  174.9813: real time  175.4470

 eigenvalue-minimisations  :     0
 total energy-change (2. order) :-0.1041513E-01  (-0.8941964E-02)
 number of electron     254.0000012 magnetization       2.0000065
 augmentation part       16.5571132 magnetization       1.9775363

 DIPCOR: dipole corrections for dipol
 direction  3 min pos     1,
 dipolmoment           0.007781      0.019096     -0.337617 electrons x Angstroem
 Tr[quadrupol]     -7241.659509

 energy correction for charged system         0.000000 eV
 dipol+quadrupol energy correction           -0.003282 eV
 added-field ion interaction          0.279074 eV  (added to PSCEN)


 Free energy of the ion-electron system (eV)
  ---------------------------------------------------
  alpha Z        PSCENC =       106.81817429
  Ewald energy   TEWEN  =     42229.94240875
  -Hartree energ DENC   =    -51386.56998243
  -exchange      EXHF   =       580.30537280
  -V(xc)+E(xc)   XCENC  =       658.77365578
  PAW double counting   =     28577.06212393   -28676.34242468
  entropy T*S    EENTRO =        -0.00000212
  eigenvalues    EBANDS =     -3278.37975048
  atomic energy  EATOM  =     10560.85170134
  ---------------------------------------------------
  free energy    TOTEN  =      -627.53872273 eV

  energy without entropy =     -627.53872061  energy(sigma->0) =     -627.53872167
  exchange ACFDT corr.  =        -0.00000048  see jH, gK, PRB 81, 115126


--------------------------------------------------------------------------------------------------------




--------------------------------------- Iteration      1(  14)  ---------------------------------------


    POTLOK:  cpu time    0.8544: real time    0.8574
    SETDIJ:  cpu time    0.9916: real time    0.9949
    TRIAL :  cpu time  171.6511: real time  172.1037
    CORREC:  cpu time    0.0007: real time    0.0007
    CHARGE:  cpu time    0.7540: real time    0.7564
    --------------------------------------------
      LOOP:  cpu time  174.2525: real time  174.7176

 eigenvalue-minimisations  :     0
 total energy-change (2. order) :-0.8403931E-02  (-0.7282962E-02)
 number of electron     254.0000012 magnetization       2.0000067
 augmentation part       16.5579448 magnetization       1.9852346

 DIPCOR: dipole corrections for dipol
 direction  3 min pos     1,
 dipolmoment           0.007858      0.019286     -0.340982 electrons x Angstroem
 Tr[quadrupol]     -7241.673760

 energy correction for charged system         0.000000 eV
 dipol+quadrupol energy correction           -0.003348 eV
 added-field ion interaction          0.281856 eV  (added to PSCEN)


 Free energy of the ion-electron system (eV)
  ---------------------------------------------------
  alpha Z        PSCENC =       106.82089054
  Ewald energy   TEWEN  =     42229.94240875
  -Hartree energ DENC   =    -51386.83298842
  -exchange      EXHF   =       580.34626596
  -V(xc)+E(xc)   XCENC  =       658.78494458
  PAW double counting   =     28578.32974700   -28677.64277369
  entropy T*S    EENTRO =        -0.00000220
  eigenvalues    EBANDS =     -3278.14732060
  atomic energy  EATOM  =     10560.85170134
  ---------------------------------------------------
  free energy    TOTEN  =      -627.54712666 eV

  energy without entropy =     -627.54712445  energy(sigma->0) =     -627.54712556
  exchange ACFDT corr.  =        -0.00000050  see jH, gK, PRB 81, 115126


--------------------------------------------------------------------------------------------------------




--------------------------------------- Iteration      1(  15)  ---------------------------------------


    POTLOK:  cpu time    0.8602: real time    0.8631
    SETDIJ:  cpu time    0.9854: real time    0.9887
    TRIAL :  cpu time  172.2577: real time  172.7194
    CORREC:  cpu time    0.0007: real time    0.0007
    CHARGE:  cpu time    0.7540: real time    0.7558
    --------------------------------------------
      LOOP:  cpu time  174.8590: real time  175.3326

 eigenvalue-minimisations  :     0
 total energy-change (2. order) :-0.6885534E-02  (-0.6019585E-02)
 number of electron     254.0000012 magnetization       2.0000070
 augmentation part       16.5586031 magnetization       1.9921491

 DIPCOR: dipole corrections for dipol
 direction  3 min pos     1,
 dipolmoment           0.007942      0.019492     -0.344624 electrons x Angstroem
 Tr[quadrupol]     -7241.687263

 energy correction for charged system         0.000000 eV
 dipol+quadrupol energy correction           -0.003420 eV
 added-field ion interaction          0.284866 eV  (added to PSCEN)


 Free energy of the ion-electron system (eV)
  ---------------------------------------------------
  alpha Z        PSCENC =       106.82382871
  Ewald energy   TEWEN  =     42229.94240875
  -Hartree energ DENC   =    -51387.12153194
  -exchange      EXHF   =       580.38266722
  -V(xc)+E(xc)   XCENC  =       658.79519059
  PAW double counting   =     28579.96226662   -28679.30903356
  entropy T*S    EENTRO =        -0.00000229
  eigenvalues    EBANDS =     -3277.88150772
  atomic energy  EATOM  =     10560.85170134
  ---------------------------------------------------
  free energy    TOTEN  =      -627.55401219 eV

  energy without entropy =     -627.55400990  energy(sigma->0) =     -627.55401105
  exchange ACFDT corr.  =        -0.00000052  see jH, gK, PRB 81, 115126


--------------------------------------------------------------------------------------------------------




--------------------------------------- Iteration      1(  16)  ---------------------------------------


    POTLOK:  cpu time    0.8542: real time    0.8577
    SETDIJ:  cpu time    0.9839: real time    0.9872
    TRIAL :  cpu time  171.9482: real time  172.4025
    CORREC:  cpu time    0.0007: real time    0.0007
    CHARGE:  cpu time    0.7549: real time    0.7567
    --------------------------------------------
      LOOP:  cpu time  174.5435: real time  175.0099

 eigenvalue-minimisations  :     0
 total energy-change (2. order) :-0.5716527E-02  (-0.5031836E-02)
 number of electron     254.0000012 magnetization       2.0000074
 augmentation part       16.5589183 magnetization       1.9983993

 DIPCOR: dipole corrections for dipol
 direction  3 min pos     1,
 dipolmoment           0.008022      0.019687     -0.348076 electrons x Angstroem
 Tr[quadrupol]     -7241.699525

 energy correction for charged system         0.000000 eV
 dipol+quadrupol energy correction           -0.003488 eV
 added-field ion interaction          0.287719 eV  (added to PSCEN)


 Free energy of the ion-electron system (eV)
  ---------------------------------------------------
  alpha Z        PSCENC =       106.82661366
  Ewald energy   TEWEN  =     42229.94240875
  -Hartree energ DENC   =    -51387.37849078
  -exchange      EXHF   =       580.41461778
  -V(xc)+E(xc)   XCENC  =       658.80365704
  PAW double counting   =     28581.83682565   -28681.21158232
  entropy T*S    EENTRO =        -0.00000239
  eigenvalues    EBANDS =     -3277.64547755
  atomic energy  EATOM  =     10560.85170134
  ---------------------------------------------------
  free energy    TOTEN  =      -627.55972872 eV

  energy without entropy =     -627.55972633  energy(sigma->0) =     -627.55972752
  exchange ACFDT corr.  =        -0.00000054  see jH, gK, PRB 81, 115126


--------------------------------------------------------------------------------------------------------




--------------------------------------- Iteration      1(  17)  ---------------------------------------


    POTLOK:  cpu time    0.8526: real time    0.8556
    SETDIJ:  cpu time    0.9935: real time    0.9970
    TRIAL :  cpu time  171.9884: real time  172.4414
    CORREC:  cpu time    0.0007: real time    0.0007
    CHARGE:  cpu time    0.7545: real time    0.7563
    --------------------------------------------
      LOOP:  cpu time  174.5909: real time  175.0560

 eigenvalue-minimisations  :     0
 total energy-change (2. order) :-0.4797874E-02  (-0.4253246E-02)
 number of electron     254.0000012 magnetization       2.0000077
 augmentation part       16.5589862 magnetization       2.0040922

 DIPCOR: dipole corrections for dipol
 direction  3 min pos     1,
 dipolmoment           0.008085      0.019842     -0.350802 electrons x Angstroem
 Tr[quadrupol]     -7241.709877

 energy correction for charged system         0.000000 eV
 dipol+quadrupol energy correction           -0.003543 eV
 added-field ion interaction          0.289973 eV  (added to PSCEN)


 Free energy of the ion-electron system (eV)
  ---------------------------------------------------
  alpha Z        PSCENC =       106.82881202
  Ewald energy   TEWEN  =     42229.94240875
  -Hartree energ DENC   =    -51387.57273088
  -exchange      EXHF   =       580.44276291
  -V(xc)+E(xc)   XCENC  =       658.81061041
  PAW double counting   =     28583.72762203   -28683.12406489
  entropy T*S    EENTRO =        -0.00000251
  eigenvalues    EBANDS =     -3277.47164589
  atomic energy  EATOM  =     10560.85170134
  ---------------------------------------------------
  free energy    TOTEN  =      -627.56452659 eV

[...]
  energy-cutoff  :      500.00
  volume of cell :     3176.88
      direct lattice vectors                 reciprocal lattice vectors
    12.888400000  0.000000000  0.000000000     0.077589150  0.001159676  0.001853713
    -0.183768974 12.295226737  0.000000000     0.000000000  0.081332376  0.004600226
    -0.462020683 -1.133916932 20.047743297     0.000000000  0.000000000  0.049880926

  length of vectors
    12.888400000 12.296600000 20.085100000     0.077619954  0.081462368  0.049880926


 FORCES acting on ions:
    Electron-Ion                     Ewald-Force                    Non-Local-Force
 -----------------------------------------------------------------------------------------------
   0.618E+01 -.480E+01 0.532E+01   -.639E+01 0.496E+01 -.536E+01   0.200E+00 -.246E+00 0.299E-01
   0.306E+01 -.957E+00 0.555E+01   -.300E+01 0.904E+00 -.558E+01   -.807E-01 0.105E-01 0.230E-01
   0.186E+01 -.233E+01 0.529E+01   -.190E+01 0.237E+01 -.530E+01   0.232E-01 -.121E-01 0.586E-02
   0.971E+01 0.390E+01 0.914E+01   -.983E+01 -.383E+01 -.917E+01   0.160E+00 -.251E-01 0.298E-01
   0.101E+02 0.105E+02 0.103E+02   -.101E+02 -.104E+02 -.103E+02   0.418E-01 -.107E+00 0.350E-01
   0.449E+01 0.943E+01 0.742E+01   -.444E+01 -.979E+01 -.749E+01   -.826E-01 0.279E+00 0.664E-01
   0.309E+01 0.980E+01 0.609E+01   -.304E+01 -.990E+01 -.609E+01   -.568E-01 0.132E+00 -.548E-02
   0.289E+02 0.258E+02 0.193E+02   -.289E+02 -.259E+02 -.193E+02   0.197E+00 -.109E-01 0.490E-01
   0.348E+02 0.488E+02 0.126E+02   -.362E+02 -.517E+02 -.127E+02   0.129E+01 0.308E+01 0.165E+00
   0.116E+02 0.819E+01 0.931E+01   -.119E+02 -.830E+01 -.932E+01   0.282E+00 0.176E+00 0.275E-01
   0.143E+02 0.157E+02 0.872E+01   -.143E+02 -.159E+02 -.872E+01   0.207E+00 0.244E+00 0.943E-02
   0.509E+02 -.257E+02 0.248E+01   -.527E+02 0.284E+02 -.257E+01   0.173E+01 -.262E+01 0.754E-01
   0.993E+01 -.670E+01 0.938E+01   -.101E+02 0.708E+01 -.939E+01   0.982E-01 -.333E+00 0.115E-01
   0.264E+02 -.828E+01 0.790E+01   -.268E+02 0.857E+01 -.793E+01   0.448E+00 -.272E+00 0.421E-01
   0.495E+02 -.348E+02 0.131E+01   -.528E+02 0.350E+02 -.141E+01   0.318E+01 -.188E+00 0.849E-01
   0.196E+02 -.234E+02 0.302E+01   -.201E+02 0.237E+02 -.304E+01   0.456E+00 -.312E+00 0.251E-01
   0.561E+01 -.892E+01 0.716E+01   -.563E+01 0.905E+01 -.718E+01   0.169E-01 -.127E+00 0.289E-01
   0.869E+01 -.135E+02 0.609E+01   -.902E+01 0.135E+02 -.611E+01   0.320E+00 -.582E-01 0.123E-01
   0.644E+01 -.202E+02 0.342E+01   -.660E+01 0.207E+02 -.342E+01   0.713E-01 -.394E+00 -.137E-01
   -.336E+01 0.372E+01 0.111E+02   0.347E+01 -.386E+01 -.111E+02   -.871E-01 0.958E-01 0.419E-01
   0.597E+01 0.167E+02 0.113E+02   -.628E+01 -.169E+02 -.113E+02   0.234E+00 0.174E+00 0.179E-01
   0.307E+01 -.420E+01 0.956E+01   -.283E+01 0.429E+01 -.960E+01   -.220E+00 -.940E-01 0.362E-01
   -.585E+01 0.169E+02 0.102E+02   0.605E+01 -.172E+02 -.102E+02   -.169E+00 0.365E+00 0.456E-01
   -.303E+01 0.424E+02 0.165E+02   0.312E+01 -.431E+02 -.165E+02   0.962E-01 0.640E+00 0.409E-01
   0.510E+02 0.690E+02 0.404E+02   -.535E+02 -.724E+02 -.403E+02   0.240E+01 0.310E+01 -.280E-01
   0.138E+02 0.359E+02 0.212E+02   -.140E+02 -.362E+02 -.212E+02   0.684E-01 0.481E+00 0.112E-01
   -.319E+02 0.527E+02 0.179E+02   0.327E+02 -.537E+02 -.182E+02   -.657E+00 0.865E+00 0.302E+00
   -.622E+02 0.855E+02 0.784E+02   0.656E+02 -.868E+02 -.802E+02   -.311E+01 0.146E+01 0.147E+01
   -.101E+03 0.824E+01 0.784E+02   0.104E+03 -.104E+02 -.801E+02   -.277E+01 0.185E+01 0.142E+01
   -.291E+02 -.789E+02 0.457E+02   0.308E+02 0.827E+02 -.455E+02   -.144E+01 -.357E+01 -.734E-01
   -.826E+01 -.347E+02 0.230E+02   0.823E+01 0.348E+02 -.231E+02   0.872E-01 -.155E+00 0.404E-01
   -.219E+01 -.178E+02 0.720E+01   0.230E+01 0.181E+02 -.722E+01   -.279E-01 -.306E+00 0.169E-01
   -.201E+02 -.564E+02 0.125E+02   0.220E+02 0.591E+02 -.127E+02   -.204E+01 -.271E+01 0.183E+00
   -.419E+01 -.987E+01 0.148E+02   0.421E+01 0.984E+01 -.148E+02   -.387E-02 0.111E+00 0.156E-01
   -.506E+00 -.265E+01 0.852E+01   0.462E+00 0.267E+01 -.853E+01   -.298E-02 -.422E-01 0.227E-01
   -.682E+01 0.101E+02 0.640E+01   0.687E+01 -.102E+02 -.641E+01   -.498E-01 0.776E-01 0.506E-02
   -.717E+01 0.385E+01 0.975E+01   0.719E+01 -.387E+01 -.978E+01   0.378E-01 0.660E-01 0.303E-01
   -.558E+01 0.569E+01 0.613E+01   0.567E+01 -.572E+01 -.615E+01   -.571E-01 0.880E-01 0.285E-01
   -.765E+01 0.741E+01 0.415E+01   0.776E+01 -.751E+01 -.417E+01   -.105E+00 0.795E-01 0.200E-01
   -.289E+02 0.263E+02 0.602E+01   0.294E+02 -.265E+02 -.615E+01   -.518E+00 0.176E+00 0.130E+00
   -.158E+02 0.175E+02 0.404E+01   0.160E+02 -.178E+02 -.410E+01   -.152E+00 0.239E+00 0.511E-01
   -.924E+01 0.991E+01 0.490E+01   0.939E+01 -.100E+02 -.491E+01   -.110E+00 0.112E+00 -.756E-03
   -.158E+02 0.916E+01 0.693E+01   0.160E+02 -.919E+01 -.698E+01   -.209E+00 0.560E-01 0.531E-01
   -.601E+02 0.244E+01 0.207E+02   0.612E+02 -.257E+01 -.211E+02   -.102E+01 0.154E+00 0.302E+00
   -.348E+02 0.136E+02 0.759E+01   0.352E+02 -.139E+02 -.771E+01   -.335E+00 0.373E+00 0.125E+00
   -.521E+01 -.118E+01 0.112E+02   0.515E+01 0.120E+01 -.112E+02   0.876E-01 -.396E-01 0.415E-01
   -.146E+02 -.364E+01 0.168E+02   0.148E+02 0.367E+01 -.168E+02   -.242E+00 -.183E-01 0.466E-01
   -.244E+02 -.304E+02 0.275E+02   0.245E+02 0.308E+02 -.275E+02   -.374E+00 -.343E+00 0.172E-01
   -.333E+02 -.208E+02 0.237E+02   0.338E+02 0.211E+02 -.238E+02   -.453E+00 -.419E+00 0.831E-01
   -.219E+01 -.105E+02 0.147E+02   0.224E+01 0.106E+02 -.148E+02   0.283E-02 -.840E-01 0.723E-01
   -.176E+01 -.105E+02 0.129E+02   0.170E+01 0.107E+02 -.129E+02   0.100E-01 -.104E+00 -.143E-01
   -.393E+01 -.109E+02 0.149E+02   0.386E+01 0.110E+02 -.150E+02   0.819E-01 -.124E+00 0.426E-01
   -.118E+02 -.162E+02 0.174E+02   0.118E+02 0.166E+02 -.174E+02   0.221E-01 -.299E+00 0.269E-01
   -.144E+01 -.461E+01 0.962E+01   0.146E+01 0.468E+01 -.965E+01   -.668E-03 -.563E-01 0.241E-01
   0.314E+02 0.281E+02 0.393E+01   -.121E+02 -.273E+02 -.314E+01   -.183E+02 -.813E+00 -.772E+00
   0.814E+02 0.633E+02 0.148E+03   -.913E+02 -.467E+02 -.154E+03   0.948E+01 -.154E+02 0.560E+01
   -.128E+02 -.979E+02 0.155E+03   -.630E+01 0.976E+02 -.161E+03   0.179E+02 0.159E-01 0.564E+01
   -.101E+02 -.396E+02 0.221E+01   0.196E+02 0.223E+02 -.140E+01   -.890E+01 0.164E+02 -.789E+00
   0.114E+03 -.676E+02 0.907E+02   -.115E+03 0.685E+02 -.909E+02   0.915E+00 -.548E+00 -.597E+00
   -.210E+02 0.761E+01 -.119E+04   0.193E+02 -.681E+01 0.119E+04   0.140E+01 -.649E+00 0.619E+01
 -----------------------------------------------------------------------------------------------
   -.284E+00 0.298E-01 -.214E+02   0.412E-12 0.270E-12 0.000E+00   0.143E-01 0.479E+00 0.206E+02
 
 
 POSITION                                       TOTAL-FORCE (eV/Angst)
 -----------------------------------------------------------------------------------
      2.61639     -0.51854     10.00634         0.002414     -0.105383     -0.005974
      0.47092      0.69752     10.00171        -0.021242     -0.052792     -0.002977
      1.18544     -0.52945     10.00090        -0.017658      0.020428     -0.005151
      3.33118      0.71807      9.99940         0.044199      0.026652     -0.002906
      2.62497      1.97176     10.00000        -0.027049     -0.060397     -0.003513
      0.45576      3.15904     10.00866        -0.037092     -0.074599      0.000976
      1.19042      1.93799     10.00528        -0.014901      0.036688     -0.004546
      3.33987      3.23169      9.99978         0.137065     -0.087711     -0.014940
      2.58624      4.47188     10.02625        -0.082319      0.294686      0.019427
      0.37389      5.61206     10.00687        -0.034632      0.079196      0.024392
      1.14763      4.40812     10.01274         0.132729     -0.025577      0.012589
      2.44209      6.87032     10.05227         0.079471     -0.093643     -0.003589
      0.30773      8.08347      9.99549        -0.041816      0.035038      0.003423
      1.04046      6.86161     10.01521         0.047688     -0.015589      0.019266
      3.13836      8.10514     10.05497         0.085578      0.001965     -0.008184
      2.42444      9.32000     10.02741        -0.017277     -0.085139      0.001848
      0.28157     10.53595      9.99330        -0.006323     -0.015935      0.003554
      1.00191      9.31323     10.00481         0.005294     -0.006785     -0.003744
      3.14794     10.54105     10.01874        -0.082471      0.036509     -0.008744
      6.72021     11.68758      9.99144         0.009179     -0.047808      0.001513
      4.75919      0.68110      9.99805        -0.065807     -0.003807     -0.005124
      5.29254     11.72102      9.99883         0.012352     -0.026737     -0.002237
      7.62125      0.62678     10.00615         0.012960      0.089957     -0.000966
      6.90515      1.86162     10.02110         0.187106      0.023393     -0.006346
      4.78272      3.18613      9.98179         0.004596     -0.158061      0.085132
      5.47552      1.91490      9.99812        -0.183214      0.168475      0.005395
      7.63482      3.07284     10.06685         0.051905     -0.065022     -0.038200
      6.90880      4.29449     10.08463         0.129043      0.192770     -0.208831
      7.61557      5.55075     10.07099        -0.107792     -0.202655     -0.230103
      7.47143      7.94989      9.94847         0.181446      0.016167      0.088453
      6.70430      9.17923      9.97568         0.067398     -0.035440     -0.012462
      4.57477     10.48603     10.01202         0.069248     -0.012168      0.000445
      5.25938      9.20823     10.01862        -0.221174     -0.155626      0.016248
      7.42445     10.43612      9.97568         0.024301      0.090324      0.000707
     11.20074     -0.56056      9.98683        -0.043659     -0.033802      0.012274
      9.05138      0.64094     10.01006         0.004251      0.007399     -0.006815
      9.58216     11.70856      9.98584         0.045740      0.044454      0.002905
     11.92479      0.67252     10.00096         0.019025      0.055329      0.009858
     11.20170      1.89478     10.01817        -0.002746     -0.028999     -0.007422
      9.05296      3.09250     10.05911        -0.084442     -0.032591      0.001880
      9.77428      1.87108     10.03116         0.003286     -0.029130     -0.006578
     11.91164      3.13341     10.01833         0.030854      0.003600     -0.005491
     11.16970      4.34814     10.02320         0.000829      0.024589      0.004509
      9.02928      5.55164     10.04845         0.077126      0.034100     -0.033196
      9.75089      4.32795     10.05175         0.026578      0.050578      0.003729
     11.84670      5.59331     10.00046         0.041784     -0.031833      0.024016
     11.10232      6.81765      9.98059        -0.056388      0.015528      0.020568
      8.91080      8.00505      9.96057        -0.279487      0.056035      0.017354
      9.68624      6.79954      9.98755         0.061362     -0.172993      0.010317
     11.77725      8.06143      9.97403         0.044897     -0.013162      0.012475
     11.03367      9.27592      9.96949        -0.048717     -0.001227     -0.003877
      8.86102     10.47005      9.96831         0.010361     -0.057453      0.009585
      9.60051      9.25066      9.96118         0.038115      0.103622      0.008119
     11.74244     10.51338      9.98012         0.009137      0.013615      0.004242
      3.20585      5.71162     10.07166        -0.613957     -0.113606     -0.039392
      5.51636      4.35786      9.95702         0.434889     -0.057912      0.293419
      6.84946      6.71726      9.92497         0.393503     -0.298586      0.333947
      4.51924      8.03799     10.07040        -0.185964      0.567141     -0.036046
      5.03639      6.19769     10.09126        -0.399296      0.197917     -0.579655
      6.46569      5.35242     11.80417         0.149713     -0.083985      0.234447
 -----------------------------------------------------------------------------------
    total drift:                                0.127156      0.305229      0.014688


--------------------------------------------------------------------------------------------------------



  FREE ENERGIE OF THE ION-ELECTRON SYSTEM (eV)
  ---------------------------------------------------
  free  energy   TOTEN  =      -627.60638324 eV

  energy  without entropy=     -627.60637164  energy(sigma->0) =     -627.60637744
 


--------------------------------------------------------------------------------------------------------


    POTLOK:  cpu time    1.8285: real time    1.8353


--------------------------------------------------------------------------------------------------------


 stress matrix after NEB project (eV)
    -36.77585     -1.68644      0.12943
     -1.68641    -35.21176     -0.08740
      0.13122     -0.08754     -0.11026
  FORCES: max atom, RMS     0.731169    0.219586
  FORCE total and by dimension    1.700903    0.613957
  Stress total and by dimension   50.971370   36.775848
 writing wavefunctions
     LOOP+:  cpu time13689.5920: real time13735.2010
 vacuum level on the upper side and lower side of the slab         1.290         1.719
    4ORBIT:  cpu time    0.0000: real time    0.0000
 


 total charge     
 
# of ion       s       p       d       tot
------------------------------------------
    1        0.865   1.769   0.000   2.634
    2        0.866   1.765   0.000   2.630
    3        0.866   1.779   0.000   2.645
    4        0.864   1.763   0.000   2.626
    5        0.859   1.739   0.000   2.598
    6        0.866   1.767   0.000   2.633
    7        0.863   1.767   0.000   2.630
    8        0.850   1.752   0.000   2.602
    9        0.852   1.705   0.000   2.557
   10        0.870   1.782   0.000   2.653
   11        0.863   1.766   0.000   2.630
   12        0.868   1.772   0.000   2.639
   13        0.869   1.793   0.000   2.662
   14        0.874   1.800   0.000   2.674
   15        0.867   1.771   0.000   2.638
   16        0.872   1.795   0.000   2.667
   17        0.868   1.777   0.000   2.645
   18        0.870   1.794   0.000   2.664
   19        0.868   1.773   0.000   2.641
   20        0.864   1.767   0.000   2.631
   21        0.863   1.758   0.000   2.621
   22        0.863   1.757   0.000   2.619
   23        0.865   1.769   0.000   2.634
   24        0.868   1.777   0.000   2.644
   25        0.853   1.712   0.000   2.565
   26        0.861   1.763   0.000   2.625
   27        0.872   1.793   0.000   2.664
   28        0.859   1.760   0.000   2.619
   29        0.860   1.759   0.000   2.618
   30        0.854   1.711   0.000   2.565
   31        0.850   1.753   0.000   2.603
   32        0.862   1.762   0.000   2.624
   33        0.853   1.703   0.000   2.556
   34        0.859   1.740   0.000   2.599
   35        0.866   1.770   0.000   2.635
   36        0.866   1.777   0.000   2.643
   37        0.865   1.765   0.000   2.630
   38        0.866   1.771   0.000   2.636
   39        0.868   1.775   0.000   2.643
   40        0.870   1.791   0.000   2.661
   41        0.868   1.778   0.000   2.645
   42        0.866   1.771   0.000   2.637
   43        0.871   1.784   0.000   2.655
   44        0.873   1.798   0.000   2.672
   45        0.869   1.790   0.000   2.659
   46        0.868   1.786   0.000   2.654
   47        0.868   1.787   0.000   2.655
   48        0.862   1.769   0.000   2.632
   49        0.870   1.785   0.000   2.655
   50        0.871   1.785   0.000   2.656
   51        0.866   1.771   0.000   2.637
   52        0.862   1.766   0.000   2.628
   53        0.866   1.769   0.000   2.635
   54        0.868   1.777   0.000   2.645
   55        1.228   2.674   0.000   3.902
   56        1.231   2.662   0.000   3.892
   57        1.230   2.666   0.000   3.896
   58        1.230   2.670   0.000   3.901
   59        0.491   0.681   6.328   7.500
   60        0.271   0.229   8.644   9.144
--------------------------------------------------
tot         52.375 107.059  14.972 174.406
 


 magnetization (x)
 
# of ion       s       p       d       tot
------------------------------------------
    1        0.000   0.000   0.000   0.000
    2        0.000  -0.001   0.000  -0.001
    3       -0.000  -0.007   0.000  -0.007
    4        0.000  -0.000   0.000  -0.000
    5       -0.000  -0.001   0.000  -0.001
    6       -0.000  -0.001   0.000  -0.001
    7       -0.000  -0.004   0.000  -0.004
    8        0.001   0.010   0.000   0.011
    9       -0.001  -0.011   0.000  -0.012
   10       -0.001  -0.010   0.000  -0.010
   11       -0.000  -0.004   0.000  -0.004
   12        0.000  -0.003   0.000  -0.003
   13        0.000   0.001   0.000   0.001
   14        0.000   0.001   0.000   0.001
   15       -0.001  -0.019   0.000  -0.020
   16        0.000   0.003   0.000   0.003
   17        0.000   0.002   0.000   0.002
   18       -0.000  -0.005   0.000  -0.006
   19       -0.001  -0.014   0.000  -0.015
   20       -0.001  -0.011   0.000  -0.012
   21       -0.000  -0.002   0.000  -0.002
   22        0.000  -0.000   0.000  -0.000
   23        0.000   0.003   0.000   0.003
   24       -0.001  -0.013   0.000  -0.014
   25       -0.002  -0.022   0.000  -0.023
   26        0.000  -0.002   0.000  -0.002
   27        0.000   0.000   0.000   0.000
   28       -0.000  -0.010   0.000  -0.011
   29        0.001   0.003   0.000   0.004
   30       -0.001  -0.014   0.000  -0.015
   31        0.000   0.003   0.000   0.003
   32        0.000  -0.001   0.000  -0.001
   33       -0.000  -0.007   0.000  -0.007
   34        0.000  -0.000   0.000  -0.000
   35        0.000   0.001   0.000   0.001
   36        0.000   0.000   0.000   0.000
   37       -0.000  -0.003   0.000  -0.003
   38       -0.000  -0.003   0.000  -0.003
   39       -0.000  -0.001   0.000  -0.001
   40        0.000   0.001   0.000   0.001
   41        0.000   0.000   0.000   0.000
   42       -0.000  -0.002   0.000  -0.002
   43       -0.000  -0.007   0.000  -0.008
   44       -0.001  -0.010   0.000  -0.011
   45        0.000   0.004   0.000   0.005
   46        0.000   0.003   0.000   0.003
   47        0.000   0.001   0.000   0.001
   48       -0.000  -0.004   0.000  -0.004
   49       -0.000  -0.003   0.000  -0.003
   50       -0.000  -0.007   0.000  -0.007
   51        0.000  -0.001   0.000  -0.001
   52        0.000   0.002   0.000   0.002
   53       -0.000  -0.004   0.000  -0.004
   54       -0.000  -0.001   0.000  -0.001
   55       -0.005  -0.052   0.000  -0.058
   56       -0.004  -0.019   0.000  -0.023
   57       -0.003  -0.010   0.000  -0.013
   58       -0.005  -0.054   0.000  -0.060
   59        0.010   0.009   1.818   1.837
   60       -0.046  -0.002   0.777   0.729
--------------------------------------------------
tot         -0.060  -0.301   2.595   2.234
 

 total amount of memory used by VASP MPI-rank0   154565. kBytes
=======================================================================

   base      :      30000. kBytes
   nonl-proj :       4321. kBytes
   fftplans  :      11188. kBytes
   grid      :      29312. kBytes
   one-center:         62. kBytes
   HF        :         23. kBytes
   nonlr-proj:      16008. kBytes
   wavefun   :      63651. kBytes
 
  
  
 General timing and accounting informations for this job:
 ========================================================
  
                  Total CPU time used (sec):    13741.495
                            User time (sec):    13689.324
                          System time (sec):       52.171
                         Elapsed time (sec):    13794.716
  
                   Maximum memory used (kb):      395668.
                   Average memory used (kb):           0.
  
                          Minor page faults:      1199867
                          Major page faults:            1
                 Voluntary context switches:       237350
