 vasp.5.4.4.18Apr17-6-g9f103f2a35 (build Feb 25 2019 10:51:38) complex          
  
 executed on             LinuxIFC date 2021.07.23  14:49:23
 running on   32 total cores
 distrk:  each k-point on   32 cores,    1 groups
 distr:  one band on NCORES_PER_BAND=  32 cores,    1 groups


--------------------------------------------------------------------------------------------------------


 INCAR:
 POTCAR:    PAW_PBE C 08Apr2002                   
 POTCAR:    PAW_PBE N 08Apr2002                   
 POTCAR:    PAW_PBE Fe 06Sep2000                  
 POTCAR:    PAW_PBE Sc_sv 07Sep2000               

 ----------------------------------------------------------------------------- 
|                                                                             |
|           W    W    AA    RRRRR   N    N  II  N    N   GGGG   !!!           |
|           W    W   A  A   R    R  NN   N  II  NN   N  G    G  !!!           |
|           W    W  A    A  R    R  N N  N  II  N N  N  G       !!!           |
|           W WW W  AAAAAA  RRRRR   N  N N  II  N  N N  G  GGG   !            |
|           WW  WW  A    A  R   R   N   NN  II  N   NN  G    G                |
|           W    W  A    A  R    R  N    N  II  N    N   GGGG   !!!           |
|                                                                             |
|      For optimal performance we recommend to set                            |
|        NCORE= 4 - approx SQRT( number of cores)                             |
|      NCORE specifies how many cores store one orbital (NPAR=cpu/NCORE).     |
|      This setting can  greatly improve the performance of VASP for DFT.     |
|      The default,   NCORE=1            might be grossly inefficient         |
|      on modern multi-core architectures or massively parallel machines.     |
|      Do your own testing !!!!                                               |
|      Unfortunately you need to use the default for GW and RPA calculations. |
|      (for HF NCORE is supported but not extensively tested yet)             |
|                                                                             |
 ----------------------------------------------------------------------------- 

 POTCAR:    PAW_PBE C 08Apr2002                   
   VRHFIN =C: s2p2                                                              
   LEXCH  = PE                                                                  
   EATOM  =   147.1560 eV,   10.8157 Ry                                         
                                                                                
   TITEL  = PAW_PBE C 08Apr2002                                                 
   LULTRA =        F    use ultrasoft PP ?                                      
   IUNSCR =        1    unscreen: 0-lin 1-nonlin 2-no                           
   RPACOR =    1.200    partial core radius                                     
   POMASS =   12.011; ZVAL   =    4.000    mass and valenz                      
   RCORE  =    1.500    outmost cutoff radius                                   
   RWIGS  =    1.630; RWIGS  =    0.863    wigner-seitz radius (au A)           
   ENMAX  =  400.000; ENMIN  =  300.000 eV                                      
   ICORE  =        2    local potential                                         
   LCOR   =        T    correct aug charges                                     
   LPAW   =        T    paw PP                                                  
   EAUG   =  644.873                                                            
   DEXC   =    0.000                                                            
   RMAX   =    1.529    core radius for proj-oper                               
   RAUG   =    1.300    factor for augmentation sphere                          
   RDEP   =    1.501    radius for radial grids                                 
   RDEPT  =    1.300    core radius for aug-charge                              
                                                                                
   Atomic configuration                                                         
    4 entries                                                                   
     n  l   j            E        occ.                                          
     1  0  0.50      -273.3789   2.0000                                         
     2  0  0.50       -13.7508   2.0000                                         
     2  1  0.50        -5.2854   2.0000                                         
     3  2  1.50        -5.4423   0.0000                                         
   Description                                                                  
     l       E           TYP  RCUT    TYP  RCUT                                 
     0    -13.7508458     23  1.200                                             
     0     -8.2022199     23  1.200                                             
     1     -5.2854383     23  1.500                                             
     1     34.0145650     23  1.500                                             
     2     -5.4423304      7  1.500                                             
  local pseudopotential read in
  partial core-charges read in
  partial kinetic energy density read in
  atomic valenz-charges read in
  non local Contribution for L=           0  read in
    real space projection operators read in
  non local Contribution for L=           0  read in
    real space projection operators read in
  non local Contribution for L=           1  read in
    real space projection operators read in
  non local Contribution for L=           1  read in
    real space projection operators read in
    PAW grid and wavefunctions read in
 
   number of l-projection  operators is LMAX  =           4
   number of lm-projection operators is LMMAX =           8
 
 POTCAR:    PAW_PBE N 08Apr2002                   
   VRHFIN =N: s2p3                                                              
   LEXCH  = PE                                                                  
   EATOM  =   264.5486 eV,   19.4438 Ry                                         
                                                                                
   TITEL  = PAW_PBE N 08Apr2002                                                 
   LULTRA =        F    use ultrasoft PP ?                                      
   IUNSCR =        1    unscreen: 0-lin 1-nonlin 2-no                           
   RPACOR =    1.200    partial core radius                                     
   POMASS =   14.001; ZVAL   =    5.000    mass and valenz                      
   RCORE  =    1.500    outmost cutoff radius                                   
   RWIGS  =    1.400; RWIGS  =    0.741    wigner-seitz radius (au A)           
   ENMAX  =  400.000; ENMIN  =  300.000 eV                                      
   ICORE  =        2    local potential                                         
   LCOR   =        T    correct aug charges                                     
   LPAW   =        T    paw PP                                                  
   EAUG   =  627.112                                                            
   DEXC   =    0.000                                                            
   RMAX   =    1.529    core radius for proj-oper                               
   RAUG   =    1.300    factor for augmentation sphere                          
   RDEP   =    1.514    radius for radial grids                                 
   RDEPT  =    1.338    core radius for aug-charge                              
                                                                                
   Atomic configuration                                                         
    4 entries                                                                   
     n  l   j            E        occ.                                          
     1  0  0.50      -384.7179   2.0000                                         
     2  0  0.50       -18.5828   2.0000                                         
     2  1  0.50        -7.0898   3.0000                                         
     3  2  1.50        -6.8029   0.0000                                         
   Description                                                                  
     l       E           TYP  RCUT    TYP  RCUT                                 
     0    -18.5828119     23  1.200                                             
     0    -13.5018863     23  1.200                                             
     1     -7.0897853     23  1.500                                             
     1      9.5240782     23  1.500                                             
     2     -6.8029130      7  1.500                                             
  local pseudopotential read in
  partial core-charges read in
  partial kinetic energy density read in
  atomic valenz-charges read in
  non local Contribution for L=           0  read in
    real space projection operators read in
  non local Contribution for L=           0  read in
    real space projection operators read in
  non local Contribution for L=           1  read in
    real space projection operators read in
  non local Contribution for L=           1  read in
    real space projection operators read in
    PAW grid and wavefunctions read in
 
   number of l-projection  operators is LMAX  =           4
   number of lm-projection operators is LMMAX =           8
 
 POTCAR:    PAW_PBE Fe 06Sep2000                  
   VRHFIN =Fe:  d7 s1                                                           
   LEXCH  = PE                                                                  
   EATOM  =   594.3153 eV,   43.6809 Ry                                         
                                                                                
   TITEL  = PAW_PBE Fe 06Sep2000                                                
   LULTRA =        F    use ultrasoft PP ?                                      
   IUNSCR =        1    unscreen: 0-lin 1-nonlin 2-no                           
   RPACOR =    2.000    partial core radius                                     
   POMASS =   55.847; ZVAL   =    8.000    mass and valenz                      
   RCORE  =    2.300    outmost cutoff radius                                   
   RWIGS  =    2.460; RWIGS  =    1.302    wigner-seitz radius (au A)           
   ENMAX  =  267.882; ENMIN  =  200.911 eV                                      
   RCLOC  =    1.701    cutoff for local pot                                    
   LCOR   =        T    correct aug charges                                     
   LPAW   =        T    paw PP                                                  
   EAUG   =  511.368                                                            
   DEXC   =    0.000                                                            
   RMAX   =    2.356    core radius for proj-oper                               
   RAUG   =    1.300    factor for augmentation sphere                          
   RDEP   =    2.442    radius for radial grids                                 
   RDEPT  =    1.890    core radius for aug-charge                              
                                                                                
   Atomic configuration                                                         
    9 entries                                                                   
     n  l   j            E        occ.                                          
     1  0  0.50     -6993.8440   2.0000                                         
     2  0  0.50      -814.6047   2.0000                                         
     2  1  1.50      -693.3689   6.0000                                         
     3  0  0.50       -89.4732   2.0000                                         
     3  1  1.50       -55.6373   6.0000                                         
     3  2  2.50        -3.8151   7.0000                                         
     4  0  0.50        -4.2551   1.0000                                         
     4  1  1.50        -3.4015   0.0000                                         
     4  3  2.50        -1.3606   0.0000                                         
   Description                                                                  
     l       E           TYP  RCUT    TYP  RCUT                                 
     2     -3.8151135     23  2.300                                             
     2     -5.1756961     23  2.300                                             
     0     -4.2550963     23  2.300                                             
     0      7.2035603     23  2.300                                             
     1     -2.7211652     23  2.300                                             
     1     18.4316424     23  2.300                                             
  local pseudopotential read in
  partial core-charges read in
  partial kinetic energy density read in
  atomic valenz-charges read in
  non local Contribution for L=           2  read in
    real space projection operators read in
  non local Contribution for L=           2  read in
    real space projection operators read in
  non local Contribution for L=           0  read in
    real space projection operators read in
  non local Contribution for L=           0  read in
    real space projection operators read in
  non local Contribution for L=           1  read in
    real space projection operators read in
  non local Contribution for L=           1  read in
    real space projection operators read in
    PAW grid and wavefunctions read in
 
   number of l-projection  operators is LMAX  =           6
   number of lm-projection operators is LMMAX =          18
 
 POTCAR:    PAW_PBE Sc_sv 07Sep2000               
   VRHFIN =Sc: 3p4s3d                                                           
   LEXCH  = PE                                                                  
   EATOM  =  1273.2868 eV,   93.5839 Ry                                         
                                                                                
   TITEL  = PAW_PBE Sc_sv 07Sep2000                                             
   LULTRA =        F    use ultrasoft PP ?                                      
   IUNSCR =        1    unscreen: 0-lin 1-nonlin 2-no                           
   RPACOR =    2.200    partial core radius                                     
   POMASS =   44.956; ZVAL   =   11.000    mass and valenz                      
   RCORE  =    2.500    outmost cutoff radius                                   
   RWIGS  =    2.700; RWIGS  =    1.429    wigner-seitz radius (au A)           
   ENMAX  =  222.660; ENMIN  =  166.995 eV                                      
   RCLOC  =    1.805    cutoff for local pot                                    
   LCOR   =        T    correct aug charges                                     
   LPAW   =        T    paw PP                                                  
   EAUG   =  443.063                                                            
   RMAX   =    2.551    core radius for proj-oper                               
   RAUG   =    1.300    factor for augmentation sphere                          
   RDEP   =    2.650    radius for radial grids                                 
   RDEPT  =    2.038    core radius for aug-charge                              
                                                                                
   Atomic configuration                                                         
    8 entries                                                                   
     n  l   j            E        occ.                                          
     1  0  0.50     -4394.2533   2.0000                                         
     2  0  0.50      -471.0040   2.0000                                         
     2  1  1.50      -384.9788   6.0000                                         
     3  0  0.50       -52.1410   2.0000                                         
     4  0  0.50        -3.5584   1.0000                                         
     3  1  1.50       -30.8841   6.0000                                         
     3  2  2.50        -1.3655   2.0000                                         
     4  3  2.50        -1.3606   0.0000                                         
   Description                                                                  
     l       E           TYP  RCUT    TYP  RCUT                                 
     0    -52.1409870     23  1.800                                             
     0     -3.5583698     23  2.500                                             
     1    -30.8840697     23  2.300                                             
     1      4.0817478     23  2.300                                             
     2     -1.3655397     23  2.500                                             
     2      0.3564476     23  2.500                                             
  local pseudopotential read in
  partial core-charges read in
  partial kinetic energy density read in
  atomic valenz-charges read in
  non local Contribution for L=           0  read in
    real space projection operators read in
  non local Contribution for L=           0  read in
    real space projection operators read in
  non local Contribution for L=           1  read in
    real space projection operators read in
  non local Contribution for L=           1  read in
    real space projection operators read in
  non local Contribution for L=           2  read in
    real space projection operators read in
  non local Contribution for L=           2  read in
    real space projection operators read in
    PAW grid and wavefunctions read in
 
   number of l-projection  operators is LMAX  =           6
   number of lm-projection operators is LMMAX =          18
 

 ----------------------------------------------------------------------------- 
|                                                                             |
|  ADVICE TO THIS USER RUNNING 'VASP/VAMP'   (HEAR YOUR MASTER'S VOICE ...):  |
|                                                                             |
|      You have a (more or less) 'large supercell' and for larger cells       |
|      it might be more efficient to use real space projection opertators     |
|      So try LREAL= Auto  in the INCAR   file.                               |
|      Mind:          For very  accurate calculation you might also keep the  |
|      reciprocal projection scheme          (i.e. LREAL=.FALSE.)             |
|                                                                             |
 ----------------------------------------------------------------------------- 

  PAW_PBE C 08Apr2002                   :
 energy of atom  1       EATOM= -147.1560
 kinetic energy error for atom=    0.0076 (will be added to EATOM!!)
  PAW_PBE N 08Apr2002                   :
 energy of atom  2       EATOM= -264.5486
 kinetic energy error for atom=    0.0138 (will be added to EATOM!!)
  PAW_PBE Fe 06Sep2000                  :
 energy of atom  3       EATOM= -594.3153
 kinetic energy error for atom=    0.0026 (will be added to EATOM!!)
  PAW_PBE Sc_sv 07Sep2000               :
 energy of atom  4       EATOM=-1273.2868
 kinetic energy error for atom=    0.0031 (will be added to EATOM!!)
 
 
 POSCAR:  C  N Fe Sc                             
  positions in cartesian coordinates
  No initial velocities read in
 exchange correlation table for  LEXCH =        8
   RHO(1)=    0.500       N(1)  =     2000
   RHO(2)=  100.500       N(2)  =     4000

 VTST: version 3.2, (02/03/18)

 CHAIN: initializing optimizer
 
 OPT: Using VASP Conjugate-Gradient optimizer
 CHAIN: Read ICHAIN            0
 
 POSCAR:  C  N Fe Sc                             
  positions in cartesian coordinates
  No initial velocities read in
 


--------------------------------------------------------------------------------------------------------


 ion  position               nearest neighbor table
   1  0.222  0.998  0.500-   3 1.42  17 1.42   4 1.43
   2  0.054  0.098  0.500-  34 1.42   7 1.42   3 1.43
   3  0.111  0.998  0.500-   1 1.42  15 1.43   2 1.43
   4  0.277  0.097  0.500-   5 1.42  19 1.42   1 1.43
   5  0.220  0.195  0.500-   8 1.41   7 1.41   4 1.42
   6  0.054  0.298  0.499-  38 1.42  10 1.43   7 1.44
   7  0.108  0.197  0.500-   5 1.41   2 1.42   6 1.44
   8  0.274  0.293  0.500-  53 1.38   5 1.41  51 1.41  57 2.48
   9  0.062  0.498  0.498-  10 1.44  42 1.45  12 1.46
  10  0.113  0.395  0.499-  53 1.36   6 1.43   9 1.44
  11  0.060  0.698  0.498-  46 1.43  16 1.43  12 1.45
  12  0.120  0.598  0.498-  54 1.40  11 1.45   9 1.46
  13  0.279  0.701  0.499-  54 1.39  14 1.42  25 1.43
  14  0.224  0.800  0.500-  13 1.42  16 1.42  17 1.43
  15  0.056  0.899  0.500-  50 1.42  16 1.43   3 1.43
  16  0.112  0.799  0.499-  14 1.42  15 1.43  11 1.43
  17  0.278  0.899  0.500-  28 1.41   1 1.42  14 1.43
  18  0.556  0.000  0.500-  20 1.41  30 1.43  21 1.43
  19  0.389  0.101  0.501-   4 1.42  20 1.43  23 1.46
  20  0.444  0.001  0.501-  18 1.41  19 1.43  28 1.44
  21  0.610  0.100  0.502-  32 1.42  22 1.42  18 1.43
  22  0.556  0.200  0.505-  55 1.38  21 1.42  23 1.45
  23  0.443  0.203  0.502-  22 1.45  51 1.45  19 1.46
  24  0.556  0.604  0.495-  56 1.39  26 1.43  52 1.44  58 2.56
  25  0.391  0.700  0.499-  13 1.43  29 1.43  52 1.44
  26  0.612  0.703  0.496-  27 1.42  44 1.42  24 1.43
  27  0.556  0.802  0.498-  29 1.42  26 1.42  30 1.43
  28  0.390  0.901  0.500-  17 1.41  29 1.43  20 1.44
  29  0.445  0.801  0.499-  27 1.42  28 1.43  25 1.43
  30  0.611  0.901  0.499-  48 1.42  27 1.43  18 1.43
  31  0.889  0.999  0.500-  33 1.42  34 1.43  50 1.44
  32  0.722  0.100  0.501-  21 1.42  37 1.43  33 1.43
  33  0.777  1.000  0.500-  31 1.42  48 1.43  32 1.43
  34  0.942  0.099  0.500-   2 1.42  31 1.43  35 1.44
  35  0.887  0.200  0.500-  37 1.42  38 1.44  34 1.44
  36  0.717  0.299  0.504-  55 1.38  37 1.45  41 1.46
  37  0.775  0.200  0.501-  35 1.42  32 1.43  36 1.45
  38  0.942  0.300  0.500-   6 1.42  39 1.44  35 1.44
  39  0.887  0.400  0.500-  38 1.44  41 1.45  42 1.45
  40  0.720  0.503  0.497-  56 1.37  45 1.44  41 1.44
  41  0.773  0.401  0.501-  40 1.44  39 1.45  36 1.46
  42  0.947  0.499  0.498-  43 1.44   9 1.45  39 1.45
  43  0.892  0.599  0.497-  45 1.43  46 1.44  42 1.44
  44  0.724  0.701  0.496-  26 1.42  49 1.43  45 1.44
  45  0.779  0.601  0.496-  43 1.43  40 1.44  44 1.44
  46  0.948  0.698  0.498-  11 1.43  43 1.44  47 1.44
  47  0.891  0.799  0.498-  49 1.43  50 1.43  46 1.44
  48  0.723  0.900  0.498-  30 1.42  33 1.43  49 1.44
  49  0.779  0.800  0.497-  47 1.43  44 1.43  48 1.44
  50  0.945  0.899  0.499-  15 1.42  47 1.43  31 1.44
  51  0.384  0.303  0.502-   8 1.41  23 1.45  58 2.28  57 2.33
  52  0.443  0.597  0.497-  24 1.44  25 1.44  57 2.04  58 2.46
  53  0.220  0.388  0.499-  10 1.36   8 1.38  57 1.85
  54  0.230  0.602  0.497-  13 1.39  12 1.40  57 1.98
  55  0.609  0.296  0.511-  36 1.38  22 1.38  58 2.23
  56  0.613  0.509  0.494-  40 1.37  24 1.39  58 2.05
  57  0.332  0.481  0.493-  53 1.85  54 1.98  52 2.04  51 2.33  58 2.46   8 2.48
  58  0.499  0.425  0.544-  56 2.05  55 2.23  51 2.28  52 2.46  57 2.46  24 2.56
 
  LATTYP: Found a triclinic cell.
 ALAT       =    17.9069083105
 B/A-ratio  =     0.6989090346
 C/A-ratio  =     1.1147597147
 COS(alpha) =     0.0000261799
 COS(beta)  =     0.0001248898
 COS(gamma) =     0.7040688048
  
  Lattice vectors:
  
 A1 = ( -12.8075329377, -12.5149696480,   0.0000000000)
 A2 = (  -0.0909329377, -12.5149696480,   0.0000000000)
 A3 = (  -0.0029962476,  -0.0005008446,  19.9618997689)


Analysis of symmetry for initial positions (statically):
=====================================================================
 Subroutine PRICEL returns:
 Original cell was already a primitive cell.
 

 Routine SETGRP: Setting up the symmetry group for a 
 triclinic supercell.


 Subroutine GETGRP returns: Found  1 space group operations
 (whereof  1 operations were pure point group operations)
 out of a pool of  2 trial point group operations.


The static configuration has the point symmetry C_1 .


Analysis of symmetry for dynamics (positions and initial velocities):
=====================================================================
 Subroutine PRICEL returns:
 Original cell was already a primitive cell.
 

 Routine SETGRP: Setting up the symmetry group for a 
 triclinic supercell.


 Subroutine GETGRP returns: Found  1 space group operations
 (whereof  1 operations were pure point group operations)
 out of a pool of  2 trial point group operations.


The dynamic configuration has the point symmetry C_1 .


Analysis of structural, dynamic, and magnetic symmetry:
=====================================================================
 Subroutine PRICEL returns:
 Original cell was already a primitive cell.
 

 Routine SETGRP: Setting up the symmetry group for a 
 triclinic supercell.


 Subroutine GETGRP returns: Found  1 space group operations
 (whereof  1 operations were pure point group operations)
 out of a pool of  2 trial point group operations.


The magnetic configuration has the point symmetry C_1 .


 Subroutine INISYM returns: Found  1 space group operations
 (whereof  1 operations are pure point group operations),
 and found     1 'primitive' translations

 
 
 KPOINTS: KPOINTS created by Atomic Simulation Env

Automatic generation of k-mesh.
Space group operators:
 irot       det(A)        alpha          n_x          n_y          n_z        tau_x        tau_y        tau_z
    1     1.000000     0.000001     1.000000     0.000000     0.000000     0.000000     0.000000     0.000000
 
 Subroutine IBZKPT returns following result:
 ===========================================
 
 Found      2 irreducible k-points:
 
 Following reciprocal coordinates:
            Coordinates               Weight
  0.250000  0.250000 -0.000000      2.000000
 -0.250000  0.250000  0.000000      2.000000
 
 Following cartesian coordinates:
            Coordinates               Weight
  0.019659  0.019833  0.000003      2.000000
 -0.019659  0.020119 -0.000002      2.000000
 
 
 Subroutine IBZKPT_HF returns following result:
 ==============================================
 
 Found      4 k-points in 1st BZ
 the following      4 k-points will be used (e.g. in the exchange kernel)
 Following reciprocal coordinates:   # in IRBZ
  0.250000  0.250000 -0.000000    0.25000000   1 t-inv F
 -0.250000  0.250000  0.000000    0.25000000   2 t-inv F
 -0.250000 -0.250000  0.000000    0.25000000   1 t-inv T
  0.250000 -0.250000 -0.000000    0.25000000   2 t-inv T


--------------------------------------------------------------------------------------------------------




 Dimension of arrays:
   k-points           NKPTS =      2   k-points in BZ     NKDIM =      4   number of bands    NBANDS=    157
   number of dos      NEDOS =    301   number of ions     NIONS =     58
   non local maximal  LDIM  =      6   non local SUM 2l+1 LMDIM =     18
   total plane-waves  NPLWV = ******
   max r-space proj   IRMAX =      1   max aug-charges    IRDMAX=  19417
   dimension x,y,z NGX =    96 NGY =   96 NGZ =  150
   dimension x,y,z NGXF=   192 NGYF=  192 NGZF=  300
   support grid    NGXF=   192 NGYF=  192 NGZF=  300
   ions per type =              52   4   1   1
   NGX,Y,Z   is equivalent  to a cutoff of  12.55, 12.75, 12.49 a.u.
   NGXF,Y,Z  is equivalent  to a cutoff of  25.10, 25.50, 24.98 a.u.

 SYSTEM =  unknown system                          
 POSCAR =   C  N Fe Sc                             

 Startparameter for this run:
   NWRITE =      2    write-flag & timer
   PREC   = accura    normal or accurate (medium, high low for compatibility)
   ISTART =      1    job   : 0-new  1-cont  2-samecut
   ICHARG =      0    charge: 1-file 2-atom 10-const
   ISPIN  =      2    spin polarized calculation?
   LNONCOLLINEAR =      F non collinear calculations
   LSORBIT =      F    spin-orbit coupling
   INIWAV =      1    electr: 0-lowe 1-rand  2-diag
   LASPH  =      T    aspherical Exc in radial PAW
   METAGGA=      F    non-selfconsistent MetaGGA calc.

 Electronic Relaxation 1
   ENCUT  =  500.0 eV  36.75 Ry    6.06 a.u.  23.19 22.82 36.40*2*pi/ulx,y,z
   ENINI  =  500.0     initial cutoff
   ENAUG  =  644.9 eV  augmentation charge cutoff
   NELM   =    250;   NELMIN=  2; NELMDL=  0     # of ELM steps 
   EDIFF  = 0.1E-03   stopping-criterion for ELM
   LREAL  =      F    real-space projection
   NLSPLINE    = F    spline interpolate recip. space projectors
   LCOMPAT=      F    compatible to vasp.4.4
   GGA_COMPAT  = T    GGA compatible to vasp.4.4-vasp.4.6
   LMAXPAW     = -100 max onsite density
   LMAXMIX     =    2 max onsite mixed and CHGCAR
   VOSKOWN=      0    Vosko Wilk Nusair interpolation
   ROPT   =    0.00000   0.00000   0.00000   0.00000
 Ionic relaxation
   EDIFFG = -.3E-01   stopping-criterion for IOM
   NSW    =      0    number of steps for IOM
   NBLOCK =      1;   KBLOCK =      1    inner block; outer block 
   IBRION =     -1    ionic relax: 0-MD 1-quasi-New 2-CG
   NFREE  =      1    steps in history (QN), initial steepest desc. (CG)
   ISIF   =      2    stress and relaxation
   IWAVPR =     10    prediction:  0-non 1-charg 2-wave 3-comb
   ISYM   =      3    0-nonsym 1-usesym 2-fastsym
   LCORR  =      T    Harris-Foulkes like correction to forces

   POTIM  = 0.5000    time-step for ionic-motion
   TEIN   =    0.0    initial temperature
   TEBEG  =    0.0;   TEEND  =   0.0 temperature during run
   SMASS  =  -3.00    Nose mass-parameter (am)
   estimated Nose-frequenzy (Omega)   =  0.10E-29 period in steps =****** mass=  -0.370E-26a.u.
   SCALEE = 1.0000    scale energy and forces
   NPACO  =    256;   APACO  = 16.0  distance and # of slots for P.C.
   PSTRESS=    0.0 pullay stress

  Mass of Ions in am
   POMASS =  12.01 14.00 55.85 44.96
  Ionic Valenz
   ZVAL   =   4.00  5.00  8.00 11.00
  Atomic Wigner-Seitz radii
   RWIGS  =  -1.00 -1.00 -1.00 -1.00
  virtual crystal weights 
   VCA    =   1.00  1.00  1.00  1.00
   NELECT =     247.0000    total number of electrons
   NUPDOWN=      -1.0000    fix difference up-down

 DOS related values:
   EMIN   =  10.00;   EMAX   =-10.00  energy-range for DOS
   EFERMI =   0.00
   ISMEAR =     0;   SIGMA  =   0.10  broadening in eV -4-tet -1-fermi 0-gaus

 Electronic relaxation 2 (details)
   IALGO  =     53    algorithm
   LDIAG  =      T    sub-space diagonalisation (order eigenvalues)
   LSUBROT=      F    optimize rotation matrix (better conditioning)
   TURBO    =      0    0=normal 1=particle mesh
   IRESTART =      0    0=no restart 2=restart with 2 vectors
   NREBOOT  =      0    no. of reboots
   NMIN     =      0    reboot dimension
   EREF     =   0.00    reference energy to select bands
   IMIX   =      4    mixing-type and parameters
     AMIX     =   0.40;   BMIX     =  1.00
     AMIX_MAG =   1.60;   BMIX_MAG =  1.00
     AMIN     =   0.10
     WC   =   100.;   INIMIX=   1;  MIXPRE=   1;  MAXMIX= -45

 Intra band minimization:
   WEIMIN = 0.0000     energy-eigenvalue tresh-hold
   EBREAK =  0.16E-06  absolut break condition
   DEPER  =   0.30     relativ break condition  

   TIME   =   0.20     timestep for ELM

  volume/ion in A,a.u.               =      54.77       369.63
  Fermi-wavevector in a.u.,A,eV,Ry     =   0.698725  1.320399  6.642590  0.488217
  Thomas-Fermi vector in A             =   1.782408
 
 Write flags
   LWAVE        =      T    write WAVECAR
   LDOWNSAMPLE  =      F    k-point downsampling of WAVECAR
   LCHARG       =      T    write CHGCAR
   LVTOT        =      F    write LOCPOT, total local potential
   LVHAR        =      F    write LOCPOT, Hartree potential only
   LELF         =      F    write electronic localiz. function (ELF)
   LORBIT       =     11    0 simple, 1 ext, 2 COOP (PROOUT), +10 PAW based schemes


 Dipole corrections
   LMONO  =      F    monopole corrections only (constant potential shift)
   LDIPOL =      T    correct potential (dipole corrections)
   IDIPOL =      3    1-x, 2-y, 3-z, 4-all directions 
   EPSILON=  1.0000000 bulk dielectric constant

 Exchange correlation treatment:
   GGA     =    PE    GGA type
   LEXCH   =     8    internal setting for exchange type
   VOSKOWN=      0    Vosko Wilk Nusair interpolation
   EXXOEP  =     0    0=HF, 1=EXX-LHF (local Hartree Fock) 2=EXX OEP
   LHFCALC =     T    Hartree Fock is set to
   LSYMGRAD=     F    symmetrize gradient (conserves proper symmetry)
   PRECFOCK=normal    Normal, Fast or Accurate (Low or Medium for compatibility)
   LRHFCALC=     F    long range Hartree Fock
   LRSCOR  =     F    long range correlation only (use DFT for short range part)
   LTHOMAS =     F    Thomas Fermi screening in HF
   LMODELHF=     F    short range full HF, long range fraction AEXX
   ENCUT4O =  -1.0   cutoff for four orbital integrals eV
   LMAXFOCK=     4    L truncation for augmentation on plane wave grid
   LMAXFOCKAE=  -1    L truncation for all-electron charge restoration on plane wave grid
   NMAXFOCKAE=   1    number of basis functions for all-electron charge restoration
   LFOCKAEDFT=     F  apply the AE augmentation even for DFT
   NKREDX  =     1    reduce k-point grid by
   NKREDY  =     1    reduce k-point grid by
   NKREDZ  =     1    reduce k-point grid by
   SHIFTRED=     F    shift reduced grid of Gamma
   HFKIDENT=     F    idential grid for each k-point
   ODDONLY =     F    use only odd q-grid points
   EVENONLY=     F    use only even q-grid points
   HFALPHA =   -1.0000 decay constant for conv. correction
   MCALPHA =    0.0000 extent of test-charge in conv. correction in multipole expansion
   AEXX    =    0.2500 exact exchange contribution
   HFSCREEN=    0.2000 screening length (either q_TF or 0.3 A-1)
   HFSCREENC=   0.2000 screening length for correlation (either q_TF or 0.3 A-1)
   HFRCUT  =    0.0000 spherical cutoff for potential kernel
   ALDAX   =    0.7500 LDA exchange part
   AGGAX   =    0.7500 GGA exchange part
   ALDAC   =    1.0000 LDA correlation
   AGGAC   =    1.0000 GGA correlation
   ENCUTFOCK=  -1.0 apply spherical cutoff to Coloumb kernel
   NBANDSGWLOW=     1    first orbital included in HF term
   NBLOCK_FOCK=    64    blocking factor in FOCK_ACC
 Linear response parameters
   LEPSILON=     F    determine dielectric tensor
   LRPA    =     F    only Hartree local field effects (RPA)
   LNABLA  =     F    use nabla operator in PAW spheres
   LVEL    =     F    velocity operator in full k-point grid
   LINTERFAST=   F  fast interpolation
   KINTER  =     0    interpolate to denser k-point grid
   CSHIFT  =0.1000    complex shift for real part using Kramers Kronig
   OMEGAMAX=  -1.0    maximum frequency
   DEG_THRESHOLD= 0.2000000E-02 threshold for treating states as degnerate
   RTIME   =   -0.100 relaxation time in fs
  (WPLASMAI=    0.000 imaginary part of plasma frequency in eV, 0.658/RTIME)
   DFIELD  = 0.0000000 0.0000000 0.0000000 field for delta impulse in time
 
 Orbital magnetization related:
   ORBITALMAG=     F  switch on orbital magnetization
   LCHIMAG   =     F  perturbation theory with respect to B field
   DQ        =  0.001000  dq finite difference perturbation B field
   LLRAUG    =     F  two centre corrections for induced B field



--------------------------------------------------------------------------------------------------------


 Static calculation
 charge density and potential will be updated during run
 spin polarized calculation
 Conjugate gradient for all bands (Freysoldt, et al. PRB 79, 241103 (2009))
 perform sub-space diagonalisation
    before iterative eigenvector-optimisation
 modified Broyden-mixing scheme, WC =      100.0
 initial mixing is a Kerker type mixing with AMIX =  0.4000 and BMIX =      1.0000
 Hartree-type preconditioning will be used
 using additional bands           33
 reciprocal scheme for non local part
 use partial core corrections
 no Harris-corrections to forces 
 use gradient corrections 
 use of overlap-Matrix (Vanderbilt PP)
 Gauss-broadening in eV      SIGMA  =   0.10


--------------------------------------------------------------------------------------------------------


  energy-cutoff  :      500.00
  volume of cell :     3176.89
      direct lattice vectors                 reciprocal lattice vectors
    12.716600000  0.000000000  0.000000000     0.078637372 -0.000571374  0.000011789
     0.090932938 12.514969648  0.000000000     0.000000000  0.079904309  0.000002005
    -0.002996248 -0.000500845 19.961899769     0.000000000  0.000000000  0.050095432

  length of vectors
    12.716600000 12.515300000 19.961900000     0.078639448  0.079904309  0.050095432


 
 old parameters found on file WAVECAR:
  energy-cutoff  :      500.00
  volume of cell :     3176.89
      direct lattice vectors                 reciprocal lattice vectors
    12.716600000  0.000000000  0.000000000     0.078637372 -0.000571374  0.000011789
     0.090932938 12.514969648  0.000000000     0.000000000  0.079904309  0.000002005
    -0.002996248 -0.000500845 19.961899769     0.000000000  0.000000000  0.050095432

  length of vectors

 
 k-points in units of 2pi/SCALE and weight: KPOINTS created by Atomic Simulation Env
   0.01965934  0.01983323  0.00000345       0.500
  -0.01965934  0.02011892 -0.00000245       0.500
 
 k-points in reciprocal lattice and weights: KPOINTS created by Atomic Simulation Env
   0.25000000  0.25000000 -0.00000000       0.500
  -0.25000000  0.25000000  0.00000000       0.500
 
 position of ions in fractional coordinates (direct lattice) 
   0.22234484  0.99826238  0.50037436
   0.05400750  0.09794013  0.49979838
   0.11078754  0.99848075  0.50004380
   0.27744156  0.09746050  0.50026330
   0.21955465  0.19459480  0.49952426
   0.05411639  0.29781457  0.49949941
   0.10833342  0.19673091  0.49952211
   0.27364395  0.29266252  0.50015965
   0.06165933  0.49792367  0.49775423
   0.11286167  0.39521152  0.49879630
   0.06020706  0.69765509  0.49841963
   0.12004794  0.59832303  0.49762039
   0.27898349  0.70115853  0.49875945
   0.22370483  0.79977638  0.49985152
   0.05638504  0.89859792  0.49956922
   0.11233822  0.79889255  0.49932992
   0.27843709  0.89947686  0.50037257
   0.55561068  0.00024113  0.50015106
   0.38904391  0.10092358  0.50114654
   0.44438046  0.00069425  0.50066441
   0.61020383  0.09974132  0.50179960
   0.55623020  0.19963673  0.50505106
   0.44256040  0.20343068  0.50207375
   0.55621836  0.60445631  0.49454258
   0.39108267  0.70012919  0.49868878
   0.61215358  0.70321754  0.49611122
   0.55633541  0.80185680  0.49781418
   0.38953505  0.90062858  0.50002788
   0.44479787  0.80054996  0.49889728
   0.61145428  0.90085534  0.49862901
   0.88865687  0.99909279  0.49952721
   0.72182533  0.09979089  0.50134313
   0.77733847  0.99967550  0.49976407
   0.94241216  0.09905203  0.49969677
   0.88724800  0.19983237  0.49990073
   0.71694123  0.29940579  0.50429852
   0.77547419  0.20009617  0.50137402
   0.94235672  0.29973441  0.49987435
   0.88729804  0.40033603  0.49972483
   0.72034855  0.50319026  0.49663270
   0.77313494  0.40095228  0.50091592
   0.94746249  0.49858224  0.49809942
   0.89167399  0.59883542  0.49727304
   0.72400530  0.70114572  0.49588103
   0.77947878  0.60057772  0.49595262
   0.94759625  0.69811161  0.49785917
   0.89140193  0.79865770  0.49804867
   0.72297481  0.89992781  0.49845086
   0.77927556  0.79996310  0.49729017
   0.94497880  0.89883105  0.49904461
   0.38422075  0.30314689  0.50172483
   0.44332288  0.59749936  0.49662296
   0.21978051  0.38849967  0.49925567
   0.23002684  0.60236779  0.49687721
   0.60903327  0.29550716  0.51076685
   0.61279607  0.50902763  0.49422987
   0.33158690  0.48149478  0.49287519
   0.49920916  0.42497232  0.54396972
 
 position of ions in cartesian coordinates  (Angst):
   2.91674606 12.49297281  9.98842274
   0.69420029  1.22546744  9.97692525
   1.49813737 12.49570578  9.98182412
   3.53547684  1.21946460  9.98620587
   2.80818710  2.43509789  9.97145331
   0.71376104  3.72689019  9.97095717
   1.39402537  2.46183113  9.97141036
   3.50493470  3.66241205  9.98413685
   0.82788335  6.23125029  9.93611996
   1.46965988  4.94581031  9.95692169
   0.82757548  8.73088262  9.94940273
   1.57951791  7.48774531  9.93344839
   3.60998550  8.77472798  9.95618617
   2.91599321 10.00892679  9.97798598
   0.79724128 11.24567548  9.97235073
   1.49970972  9.99786597  9.96757386
   3.62106597 11.25667505  9.98838718
   7.06400211  0.00276725  9.98396540
   4.95499145  1.26280452 10.00383700
   5.64957158  0.00843774  9.99421268
   7.76728422  1.24800826 10.01687337
   7.08999725  2.49819462 10.08177862
   5.64485778  2.54567727 10.02234583
   7.12668963  7.56450462  9.87200939
   5.03541244  8.76184579  9.95477553
   7.84697139  8.80049774  9.90332239
   7.14611844 10.03496421  9.93731671
   5.03396003 11.27108891  9.98150643
   5.72761812 10.01860854  9.95893756
   7.85604289 11.27392753  9.95358234
  11.39004767 12.50336570  9.97151219
   9.18673610  1.24862891 10.00776139
   9.97450837 12.51065818  9.97624026
  11.99178837  1.23938287  9.97489690
  11.29945141  2.50064573  9.97896832
   9.14276969  3.74680185 10.06675645
   9.87808819  2.50394636 10.00837788
  12.00933149  3.75091672  9.97844158
  11.31832066  5.00994297  9.97545702
   9.20465290  6.29716214  9.91373214
   9.86660668  5.01765476  9.99923334
  12.09234661  6.23949210  9.94301079
  11.39202539  7.49415809  9.92651453
   9.26915721  8.77456901  9.89872739
   9.96544620  7.51596359  9.90015652
  12.11219208  8.73659624  9.93821480
  11.40673381  9.99492739  9.94199756
   9.27412111 11.26231957  9.95002604
   9.98098859 10.01126484  9.92685643
  12.09715549 11.24859337  9.96187844
   4.91204437  3.79362279 10.01538081
   5.69040408  7.47743763  9.91353774
   2.82869233  4.86181159  9.96609167
   2.97844558  7.53836570  9.91861312
   7.77017340  3.69800731 10.19587665
   7.83748911  6.37021780  9.86576712
   4.25896493  6.02564565  9.83872518
   6.38525730  5.31824326 10.85866903
 


--------------------------------------------------------------------------------------------------------


 k-point  1 :   0.2500 0.2500-0.0000  plane waves:   80695
 k-point  2 :  -0.2500 0.2500 0.0000  plane waves:   80648

 maximum and minimum number of plane-waves per node :      2552     2491

 maximum number of plane-waves:     80695
 maximum index in each direction: 
   IXMAX=   23   IYMAX=   22   IZMAX=   36
   IXMIN=  -23   IYMIN=  -23   IZMIN=  -36


 parallel 3D FFT for wavefunctions:
    minimum data exchange during FFTs selected (reduces bandwidth)
 parallel 3D FFT for charge:
    minimum data exchange during FFTs selected (reduces bandwidth)


 FFT grid for exact exchange (Hartree Fock) 
  NGX = 70; NGY = 70; NGZ =112

 
 Radii for the augmentation spheres in the non-local exchange
 for species   1 augmentation radius   0.874 (default was   0.699)
       energy cutoff for augmentation   2000.0
 for species   2 augmentation radius   0.886 (default was   0.709)
       energy cutoff for augmentation   2000.0
 for species   3 augmentation radius   1.263 (default was   1.010)
       energy cutoff for augmentation   2000.0
 for species   4 augmentation radius   1.357 (default was   1.085)
       energy cutoff for augmentation   2000.0

 real space projection operators:
  total allocation   :       2531.66 KBytes
  max/ min on nodes  :        112.64         40.36

 Maximum index for augmentation-charges in exchange          153
  SETUP_FOCK is finished

 total amount of memory used by VASP MPI-rank0   166429. kBytes
=======================================================================

   base      :      30000. kBytes
   nonl-proj :       5324. kBytes
   fftplans  :      14250. kBytes
   grid      :      36827. kBytes
   one-center:         62. kBytes
   HF        :         23. kBytes
   nonlr-proj:       1991. kBytes
   wavefun   :      77952. kBytes
 
     INWAV:  cpu time    3.5770: real time    3.5778
 Broyden mixing: mesh for mixing (old mesh)
   NGX = 47   NGY = 45   NGZ = 73
  (NGX  =192   NGY  =192   NGZ  =300)
  gives a total of 154395 points

 charge density for first step will be calculated from the start-wavefunctions


--------------------------------------------------------------------------------------------------------


 Maximum index for augmentation-charges          853 (set IRDMAX)


--------------------------------------------------------------------------------------------------------


 initial charge from wavefunction
 First call to EWALD:  gamma=   0.121
 Maximum number of real-space cells 3x 3x 2
 Maximum number of reciprocal cells 2x 2x 4

    FEWALD:  cpu time    0.0037: real time    0.0037


--------------------------------------- Iteration      1(   1)  ---------------------------------------


    POTLOK:  cpu time    1.4014: real time    1.4025
    SETDIJ:  cpu time    2.1008: real time    2.1019
    TRIAL :  cpu time  531.9424: real time  532.0499
    CORREC:  cpu time    0.0017: real time    0.0019
    CHARGE:  cpu time    1.7007: real time    1.7007
    --------------------------------------------
      LOOP:  cpu time  537.1637: real time  537.2757

 eigenvalue-minimisations  :     0
 total energy-change (2. order) :-0.6065351E+03  (-0.4443896E+00)
 number of electron     247.0000002 magnetization       1.0029271
 augmentation part       13.0217831 magnetization       0.9577917

 DIPCOR: dipole corrections for dipol
 direction  3 min pos     1,
 dipolmoment           0.000081      0.000014     -0.540599 electrons x Angstroem
 Tr[quadrupol]     -6761.190320

 energy correction for charged system         0.000000 eV
 dipol+quadrupol energy correction           -0.008356 eV
 added-field ion interaction          0.179285 eV  (added to PSCEN)


 Free energy of the ion-electron system (eV)
  ---------------------------------------------------
  alpha Z        PSCENC =       107.12344185
  Ewald energy   TEWEN  =     39657.31772197
  -Hartree energ DENC   =    -48657.43367826
  -exchange      EXHF   =       567.66878004
  -V(xc)+E(xc)   XCENC  =       652.55747807
  PAW double counting   =     26769.66528640   -26796.86871635
  entropy T*S    EENTRO =        -0.00075112
  eigenvalues    EBANDS =     -3374.00653669
  atomic energy  EATOM  =     10467.44249161
  ---------------------------------------------------
  free energy    TOTEN  =      -606.53506460 eV

  energy without entropy =     -606.53431349  energy(sigma->0) =     -606.53468904
  exchange ACFDT corr.  =        -0.00136050  see jH, gK, PRB 81, 115126


--------------------------------------------------------------------------------------------------------




--------------------------------------- Iteration      1(   2)  ---------------------------------------


    POTLOK:  cpu time    1.4050: real time    1.4053
    SETDIJ:  cpu time    2.1039: real time    2.1042
    TRIAL :  cpu time  530.4925: real time  530.5683
    CORREC:  cpu time    0.0017: real time    0.0017
    CHARGE:  cpu time    1.7030: real time    1.7032
    --------------------------------------------
      LOOP:  cpu time  535.7088: real time  535.7855

 eigenvalue-minimisations  :     0
 total energy-change (2. order) :-0.3508177E+00  (-0.3541618E+00)
 number of electron     247.0000002 magnetization       1.0016662
 augmentation part       12.9787988 magnetization       0.9833944

 DIPCOR: dipole corrections for dipol
 direction  3 min pos     1,
 dipolmoment           0.000087      0.000015     -0.580109 electrons x Angstroem
 Tr[quadrupol]     -6761.045939

 energy correction for charged system         0.000000 eV
 dipol+quadrupol energy correction           -0.009622 eV
 added-field ion interaction          0.192388 eV  (added to PSCEN)


 Free energy of the ion-electron system (eV)
  ---------------------------------------------------
  alpha Z        PSCENC =       107.13527893
  Ewald energy   TEWEN  =     39657.31772197
  -Hartree energ DENC   =    -48640.73736254
  -exchange      EXHF   =       567.49795587
  -V(xc)+E(xc)   XCENC  =       652.06817097
  PAW double counting   =     26979.59677308   -27006.86629040
  entropy T*S    EENTRO =        -0.00041804
  eigenvalues    EBANDS =     -3390.33987068
  atomic energy  EATOM  =     10467.44249161
  ---------------------------------------------------
  free energy    TOTEN  =      -606.88588230 eV

  energy without entropy =     -606.88546426  energy(sigma->0) =     -606.88567328
  exchange ACFDT corr.  =        -0.00060302  see jH, gK, PRB 81, 115126


--------------------------------------------------------------------------------------------------------




--------------------------------------- Iteration      1(   3)  ---------------------------------------


    POTLOK:  cpu time    1.4119: real time    1.4122
    SETDIJ:  cpu time    2.0978: real time    2.0978
    TRIAL :  cpu time  530.1413: real time  530.2737
    CORREC:  cpu time    0.0016: real time    0.0019
    CHARGE:  cpu time    1.6986: real time    1.6996
    --------------------------------------------
      LOOP:  cpu time  535.3538: real time  535.4877

 eigenvalue-minimisations  :     0
 total energy-change (2. order) :-0.2666947E+00  (-0.2001352E+00)
 number of electron     247.0000002 magnetization       1.0009124
 augmentation part       12.9758109 magnetization       1.0041674

 DIPCOR: dipole corrections for dipol
 direction  3 min pos     1,
 dipolmoment           0.000089      0.000015     -0.592397 electrons x Angstroem
 Tr[quadrupol]     -6760.879759

 energy correction for charged system         0.000000 eV
 dipol+quadrupol energy correction           -0.010034 eV
 added-field ion interaction          0.196463 eV  (added to PSCEN)


 Free energy of the ion-electron system (eV)
  ---------------------------------------------------
  alpha Z        PSCENC =       107.13894209
  Ewald energy   TEWEN  =     39657.31772197
  -Hartree energ DENC   =    -48622.91211150
  -exchange      EXHF   =       567.36624621
  -V(xc)+E(xc)   XCENC  =       651.59339614
  PAW double counting   =     27170.50931416   -27197.47924927
  entropy T*S    EENTRO =        -0.00023184
  eigenvalues    EBANDS =     -3408.12891038
  atomic energy  EATOM  =     10467.44249161
  ---------------------------------------------------
  free energy    TOTEN  =      -607.15257700 eV

  energy without entropy =     -607.15234516  energy(sigma->0) =     -607.15246108
  exchange ACFDT corr.  =        -0.00026231  see jH, gK, PRB 81, 115126


--------------------------------------------------------------------------------------------------------




--------------------------------------- Iteration      1(   4)  ---------------------------------------


    POTLOK:  cpu time    1.4136: real time    1.4142
    SETDIJ:  cpu time    2.1041: real time    2.1045
    TRIAL :  cpu time  529.1800: real time  529.2915
    CORREC:  cpu time    0.0017: real time    0.0020
    CHARGE:  cpu time    1.6986: real time    1.6986
    --------------------------------------------
      LOOP:  cpu time  534.4010: real time  534.5137

 eigenvalue-minimisations  :     0
 total energy-change (2. order) :-0.1514959E+00  (-0.1081052E+00)
 number of electron     247.0000002 magnetization       1.0005103
 augmentation part       12.9879555 magnetization       1.0187842

 DIPCOR: dipole corrections for dipol
 direction  3 min pos     1,
 dipolmoment           0.000089      0.000015     -0.590054 electrons x Angstroem
 Tr[quadrupol]     -6760.817516

 energy correction for charged system         0.000000 eV
 dipol+quadrupol energy correction           -0.009955 eV
 added-field ion interaction          0.195686 eV  (added to PSCEN)


 Free energy of the ion-electron system (eV)
  ---------------------------------------------------
  alpha Z        PSCENC =       107.13824427
  Ewald energy   TEWEN  =     39657.31772197
  -Hartree energ DENC   =    -48615.71519393
  -exchange      EXHF   =       567.44214933
  -V(xc)+E(xc)   XCENC  =       651.41076529
  PAW double counting   =     27256.93761485   -27283.83372282
  entropy T*S    EENTRO =        -0.00013285
  eigenvalues    EBANDS =     -3415.44391162
  atomic energy  EATOM  =     10467.44249161
  ---------------------------------------------------
  free energy    TOTEN  =      -607.30407288 eV

  energy without entropy =     -607.30394003  energy(sigma->0) =     -607.30400645
  exchange ACFDT corr.  =        -0.00011594  see jH, gK, PRB 81, 115126


--------------------------------------------------------------------------------------------------------




--------------------------------------- Iteration      1(   5)  ---------------------------------------


    POTLOK:  cpu time    1.4124: real time    1.4124
    SETDIJ:  cpu time    2.1115: real time    2.1115
    TRIAL :  cpu time  530.9142: real time  531.0812
    CORREC:  cpu time    0.0015: real time    0.0018
    CHARGE:  cpu time    1.6957: real time    1.6962
    --------------------------------------------
      LOOP:  cpu time  536.1384: real time  536.3061

 eigenvalue-minimisations  :     0
 total energy-change (2. order) :-0.8351460E-01  (-0.6374116E-01)
 number of electron     247.0000002 magnetization       1.0003147
 augmentation part       12.9905674 magnetization       1.0298575

 DIPCOR: dipole corrections for dipol
 direction  3 min pos     1,
 dipolmoment           0.000089      0.000015     -0.589856 electrons x Angstroem
 Tr[quadrupol]     -6760.848930

 energy correction for charged system         0.000000 eV
 dipol+quadrupol energy correction           -0.009948 eV
 added-field ion interaction          0.195620 eV  (added to PSCEN)


 Free energy of the ion-electron system (eV)
  ---------------------------------------------------
  alpha Z        PSCENC =       107.13818530
  Ewald energy   TEWEN  =     39657.31772197
  -Hartree energ DENC   =    -48616.81589488
  -exchange      EXHF   =       567.66334190
  -V(xc)+E(xc)   XCENC  =       651.44229099
  PAW double counting   =     27310.35015127   -27337.39099475
  entropy T*S    EENTRO =        -0.00008372
  eigenvalues    EBANDS =     -3414.53474803
  atomic energy  EATOM  =     10467.44249161
  ---------------------------------------------------
  free energy    TOTEN  =      -607.38758748 eV

  energy without entropy =     -607.38750375  energy(sigma->0) =     -607.38754561
  exchange ACFDT corr.  =        -0.00005556  see jH, gK, PRB 81, 115126


--------------------------------------------------------------------------------------------------------




--------------------------------------- Iteration      1(   6)  ---------------------------------------


    POTLOK:  cpu time    1.4072: real time    1.4077
    SETDIJ:  cpu time    2.1366: real time    2.1368
    TRIAL :  cpu time  530.9593: real time  531.1340
    CORREC:  cpu time    0.0015: real time    0.0018
    CHARGE:  cpu time    1.7088: real time    1.7092
    --------------------------------------------
      LOOP:  cpu time  536.2161: real time  536.3921

 eigenvalue-minimisations  :     0
 total energy-change (2. order) :-0.5211507E-01  (-0.4172122E-01)
 number of electron     247.0000002 magnetization       1.0002091
 augmentation part       12.9879848 magnetization       1.0386697

 DIPCOR: dipole corrections for dipol
 direction  3 min pos     1,
 dipolmoment           0.000089      0.000015     -0.592813 electrons x Angstroem
 Tr[quadrupol]     -6760.909031

 energy correction for charged system         0.000000 eV
 dipol+quadrupol energy correction           -0.010049 eV
 added-field ion interaction          0.196601 eV  (added to PSCEN)


 Free energy of the ion-electron system (eV)
  ---------------------------------------------------
  alpha Z        PSCENC =       107.13906605
  Ewald energy   TEWEN  =     39657.31772197
  -Hartree energ DENC   =    -48620.16091780
  -exchange      EXHF   =       567.90296757
  -V(xc)+E(xc)   XCENC  =       651.53606283
  PAW double counting   =     27364.44303123   -27391.59411785
  entropy T*S    EENTRO =        -0.00005675
  eigenvalues    EBANDS =     -3411.46592446
  atomic energy  EATOM  =     10467.44249161
  ---------------------------------------------------
  free energy    TOTEN  =      -607.43970254 eV

  energy without entropy =     -607.43964579  energy(sigma->0) =     -607.43967417
  exchange ACFDT corr.  =        -0.00003123  see jH, gK, PRB 81, 115126


--------------------------------------------------------------------------------------------------------




--------------------------------------- Iteration      1(   7)  ---------------------------------------


    POTLOK:  cpu time    1.4115: real time    1.4120
    SETDIJ:  cpu time    2.1058: real time    2.1061
    TRIAL :  cpu time  530.2198: real time  530.3625
    CORREC:  cpu time    0.0015: real time    0.0017
    CHARGE:  cpu time    1.6974: real time    1.6974
    --------------------------------------------
      LOOP:  cpu time  535.4387: real time  535.5823

 eigenvalue-minimisations  :     0
 total energy-change (2. order) :-0.3488078E-01  (-0.2706050E-01)
 number of electron     247.0000002 magnetization       1.0001438
 augmentation part       12.9890033 magnetization       1.0457583

 DIPCOR: dipole corrections for dipol
 direction  3 min pos     1,
 dipolmoment           0.000090      0.000015     -0.596517 electrons x Angstroem
 Tr[quadrupol]     -6760.959506

 energy correction for charged system         0.000000 eV
 dipol+quadrupol energy correction           -0.010174 eV
 added-field ion interaction          0.197830 eV  (added to PSCEN)


 Free energy of the ion-electron system (eV)
  ---------------------------------------------------
  alpha Z        PSCENC =       107.14016853
  Ewald energy   TEWEN  =     39657.31772197
  -Hartree energ DENC   =    -48623.07444502
  -exchange      EXHF   =       568.09916375
  -V(xc)+E(xc)   XCENC  =       651.62358695
  PAW double counting   =     27411.99870646   -27439.19542025
  entropy T*S    EENTRO =        -0.00003978
  eigenvalues    EBANDS =     -3408.82650057
  atomic energy  EATOM  =     10467.44249161
  ---------------------------------------------------
  free energy    TOTEN  =      -607.47458332 eV

  energy without entropy =     -607.47454354  energy(sigma->0) =     -607.47456343
  exchange ACFDT corr.  =        -0.00001960  see jH, gK, PRB 81, 115126


--------------------------------------------------------------------------------------------------------




--------------------------------------- Iteration      1(   8)  ---------------------------------------


    POTLOK:  cpu time    1.4082: real time    1.4082
    SETDIJ:  cpu time    2.1114: real time    2.1114
    TRIAL :  cpu time  530.5962: real time  530.6406
    CORREC:  cpu time    0.0015: real time    0.0018
    CHARGE:  cpu time    1.7007: real time    1.7007
    --------------------------------------------
      LOOP:  cpu time  535.8206: real time  535.8652

 eigenvalue-minimisations  :     0
 total energy-change (2. order) :-0.2330555E-01  (-0.1872538E-01)
 number of electron     247.0000002 magnetization       1.0001025
 augmentation part       12.9935067 magnetization       1.0517910

 DIPCOR: dipole corrections for dipol
 direction  3 min pos     1,
 dipolmoment           0.000090      0.000015     -0.599392 electrons x Angstroem
 Tr[quadrupol]     -6760.990417

 energy correction for charged system         0.000000 eV
 dipol+quadrupol energy correction           -0.010273 eV
 added-field ion interaction          0.198783 eV  (added to PSCEN)


 Free energy of the ion-electron system (eV)
  ---------------------------------------------------
  alpha Z        PSCENC =       107.14102355
  Ewald energy   TEWEN  =     39657.31772197
  -Hartree energ DENC   =    -48625.12124731
  -exchange      EXHF   =       568.24020959
  -V(xc)+E(xc)   XCENC  =       651.69042680
  PAW double counting   =     27442.29956375   -27469.53996851
  entropy T*S    EENTRO =        -0.00002888
  eigenvalues    EBANDS =     -3406.96807054
  atomic energy  EATOM  =     10467.44249161
  ---------------------------------------------------
  free energy    TOTEN  =      -607.49788887 eV

  energy without entropy =     -607.49785999  energy(sigma->0) =     -607.49787443
  exchange ACFDT corr.  =        -0.00001290  see jH, gK, PRB 81, 115126


--------------------------------------------------------------------------------------------------------




--------------------------------------- Iteration      1(   9)  ---------------------------------------


    POTLOK:  cpu time    1.4046: real time    1.4048
    SETDIJ:  cpu time    2.1057: real time    2.1056
    TRIAL :  cpu time  530.4005: real time  530.5312
    CORREC:  cpu time    0.0015: real time    0.0015
    CHARGE:  cpu time    1.7052: real time    1.7058
    --------------------------------------------
      LOOP:  cpu time  535.6200: real time  535.7514

 eigenvalue-minimisations  :     0
 total energy-change (2. order) :-0.1658993E-01  (-0.1367327E-01)
 number of electron     247.0000002 magnetization       1.0000775
 augmentation part       12.9976845 magnetization       1.0574455

 DIPCOR: dipole corrections for dipol
 direction  3 min pos     1,
 dipolmoment           0.000090      0.000015     -0.600438 electrons x Angstroem
 Tr[quadrupol]     -6761.004196

 energy correction for charged system         0.000000 eV
 dipol+quadrupol energy correction           -0.010309 eV
 added-field ion interaction          0.199130 eV  (added to PSCEN)


 Free energy of the ion-electron system (eV)
  ---------------------------------------------------
  alpha Z        PSCENC =       107.14133455
  Ewald energy   TEWEN  =     39657.31772197
  -Hartree energ DENC   =    -48626.30775634
  -exchange      EXHF   =       568.33202169
  -V(xc)+E(xc)   XCENC  =       651.73493238
  PAW double counting   =     27454.93514856   -27482.22545001
  entropy T*S    EENTRO =        -0.00002215
  eigenvalues    EBANDS =     -3405.88489435
  atomic energy  EATOM  =     10467.44249161
  ---------------------------------------------------
  free energy    TOTEN  =      -607.51447880 eV

  energy without entropy =     -607.51445665  energy(sigma->0) =     -607.51446773
  exchange ACFDT corr.  =        -0.00000887  see jH, gK, PRB 81, 115126


--------------------------------------------------------------------------------------------------------




--------------------------------------- Iteration      1(  10)  ---------------------------------------


    POTLOK:  cpu time    1.4042: real time    1.4047
    SETDIJ:  cpu time    2.1014: real time    2.1017
    TRIAL :  cpu time  530.5407: real time  530.6159
    CORREC:  cpu time    0.0014: real time    0.0017
    CHARGE:  cpu time    1.6912: real time    1.6913
    --------------------------------------------
      LOOP:  cpu time  535.7417: real time  535.8179

 eigenvalue-minimisations  :     0
 total energy-change (2. order) :-0.1231923E-01  (-0.1029949E-01)
 number of electron     247.0000002 magnetization       1.0000625
 augmentation part       12.9996154 magnetization       1.0630582

 DIPCOR: dipole corrections for dipol
 direction  3 min pos     1,
 dipolmoment           0.000090      0.000015     -0.599636 electrons x Angstroem
 Tr[quadrupol]     -6761.007097

 energy correction for charged system         0.000000 eV
 dipol+quadrupol energy correction           -0.010281 eV
 added-field ion interaction          0.198864 eV  (added to PSCEN)


 Free energy of the ion-electron system (eV)
  ---------------------------------------------------
  alpha Z        PSCENC =       107.14109626
  Ewald energy   TEWEN  =     39657.31772197
  -Hartree energ DENC   =    -48626.76758204
  -exchange      EXHF   =       568.38776750
  -V(xc)+E(xc)   XCENC  =       651.76023796
  PAW double counting   =     27456.57465895   -27483.89966473
  entropy T*S    EENTRO =        -0.00001807
  eigenvalues    EBANDS =     -3405.48350336
  atomic energy  EATOM  =     10467.44249161
  ---------------------------------------------------
  free energy    TOTEN  =      -607.52679803 eV

  energy without entropy =     -607.52677996  energy(sigma->0) =     -607.52678900
  exchange ACFDT corr.  =        -0.00000653  see jH, gK, PRB 81, 115126


--------------------------------------------------------------------------------------------------------




--------------------------------------- Iteration      1(  11)  ---------------------------------------


    POTLOK:  cpu time    1.3999: real time    1.3999
    SETDIJ:  cpu time    2.1053: real time    2.1052
    TRIAL :  cpu time  530.4561: real time  530.4897
    CORREC:  cpu time    0.0014: real time    0.0017
    CHARGE:  cpu time    1.6874: real time    1.6875
    --------------------------------------------
      LOOP:  cpu time  535.6524: real time  535.6862

 eigenvalue-minimisations  :     0
 total energy-change (2. order) :-0.9422210E-02  (-0.8033535E-02)
 number of electron     247.0000002 magnetization       1.0000533
 augmentation part       13.0000116 magnetization       1.0686016

 DIPCOR: dipole corrections for dipol
 direction  3 min pos     1,
 dipolmoment           0.000090      0.000015     -0.598125 electrons x Angstroem
 Tr[quadrupol]     -6761.005506

 energy correction for charged system         0.000000 eV
 dipol+quadrupol energy correction           -0.010229 eV
 added-field ion interaction          0.198363 eV  (added to PSCEN)


 Free energy of the ion-electron system (eV)
  ---------------------------------------------------
  alpha Z        PSCENC =       107.14064688
  Ewald energy   TEWEN  =     39657.31772197
  -Hartree energ DENC   =    -48626.78140655
  -exchange      EXHF   =       568.42240863
  -V(xc)+E(xc)   XCENC  =       651.77277567
  PAW double counting   =     27454.68849509   -27482.02915378
  entropy T*S    EENTRO =        -0.00001552
  eigenvalues    EBANDS =     -3405.51018169
  atomic energy  EATOM  =     10467.44249161
  ---------------------------------------------------
  free energy    TOTEN  =      -607.53622024 eV

  energy without entropy =     -607.53620473  energy(sigma->0) =     -607.53621248
  exchange ACFDT corr.  =        -0.00000517  see jH, gK, PRB 81, 115126


--------------------------------------------------------------------------------------------------------




--------------------------------------- Iteration      1(  12)  ---------------------------------------


    POTLOK:  cpu time    1.3994: real time    1.3993
    SETDIJ:  cpu time    2.1030: real time    2.1030
    TRIAL :  cpu time  530.4840: real time  530.5208
    CORREC:  cpu time    0.0015: real time    0.0017
    CHARGE:  cpu time    1.6884: real time    1.6884
    --------------------------------------------
      LOOP:  cpu time  535.6787: real time  535.7157

 eigenvalue-minimisations  :     0
 total energy-change (2. order) :-0.7454272E-02  (-0.6485105E-02)
 number of electron     247.0000002 magnetization       1.0000473
 augmentation part       13.0002973 magnetization       1.0739139

 DIPCOR: dipole corrections for dipol
 direction  3 min pos     1,
 dipolmoment           0.000090      0.000015     -0.597143 electrons x Angstroem
 Tr[quadrupol]     -6761.003606

 energy correction for charged system         0.000000 eV
 dipol+quadrupol energy correction           -0.010196 eV
 added-field ion interaction          0.198037 eV  (added to PSCEN)


 Free energy of the ion-electron system (eV)
  ---------------------------------------------------
  alpha Z        PSCENC =       107.14035461
  Ewald energy   TEWEN  =     39657.31772197
  -Hartree energ DENC   =    -48626.65168099
  -exchange      EXHF   =       568.44761848
  -V(xc)+E(xc)   XCENC  =       651.77941293
  PAW double counting   =     27453.63132758   -27480.98207139
  entropy T*S    EENTRO =        -0.00001385
  eigenvalues    EBANDS =     -3405.66883380
  atomic energy  EATOM  =     10467.44249161
  ---------------------------------------------------
  free energy    TOTEN  =      -607.54367451 eV

  energy without entropy =     -607.54366067  energy(sigma->0) =     -607.54366759
  exchange ACFDT corr.  =        -0.00000435  see jH, gK, PRB 81, 115126


--------------------------------------------------------------------------------------------------------




--------------------------------------- Iteration      1(  13)  ---------------------------------------


    POTLOK:  cpu time    1.3984: real time    1.3983
    SETDIJ:  cpu time    2.1147: real time    2.1147
    TRIAL :  cpu time  529.4967: real time  529.5390
    CORREC:  cpu time    0.0015: real time    0.0017
    CHARGE:  cpu time    1.6984: real time    1.6985
    --------------------------------------------
      LOOP:  cpu time  534.7117: real time  534.7543

 eigenvalue-minimisations  :     0
 total energy-change (2. order) :-0.6094988E-02  (-0.5406685E-02)
 number of electron     247.0000002 magnetization       1.0000434
 augmentation part       13.0009766 magnetization       1.0789233

 DIPCOR: dipole corrections for dipol
 direction  3 min pos     1,
 dipolmoment           0.000090      0.000015     -0.596985 electrons x Angstroem
 Tr[quadrupol]     -6761.002847

 energy correction for charged system         0.000000 eV
 dipol+quadrupol energy correction           -0.010190 eV
 added-field ion interaction          0.197985 eV  (added to PSCEN)


 Free energy of the ion-electron system (eV)
  ---------------------------------------------------
  alpha Z        PSCENC =       107.14030768
  Ewald energy   TEWEN  =     39657.31772197
  -Hartree energ DENC   =    -48626.56486121
  -exchange      EXHF   =       568.46965150
  -V(xc)+E(xc)   XCENC  =       651.78503578
  PAW double counting   =     27454.01003718   -27481.37495906
  entropy T*S    EENTRO =        -0.00001275
  eigenvalues    EBANDS =     -3405.77518112
  atomic energy  EATOM  =     10467.44249161
  ---------------------------------------------------
  free energy    TOTEN  =      -607.54976950 eV

  energy without entropy =     -607.54975675  energy(sigma->0) =     -607.54976313
  exchange ACFDT corr.  =        -0.00000382  see jH, gK, PRB 81, 115126


--------------------------------------------------------------------------------------------------------




--------------------------------------- Iteration      1(  14)  ---------------------------------------


    POTLOK:  cpu time    1.3964: real time    1.3963
    SETDIJ:  cpu time    2.0966: real time    2.0967
    TRIAL :  cpu time  529.4147: real time  529.4903
    CORREC:  cpu time    0.0015: real time    0.0017
    CHARGE:  cpu time    1.6869: real time    1.6874
    --------------------------------------------
      LOOP:  cpu time  534.5989: real time  534.6753

 eigenvalue-minimisations  :     0
 total energy-change (2. order) :-0.5137599E-02  (-0.4633677E-02)
 number of electron     247.0000002 magnetization       1.0000409
 augmentation part       13.0017344 magnetization       1.0836786

 DIPCOR: dipole corrections for dipol
 direction  3 min pos     1,
 dipolmoment           0.000090      0.000015     -0.597087 electrons x Angstroem
 Tr[quadrupol]     -6761.002992

 energy correction for charged system         0.000000 eV
 dipol+quadrupol energy correction           -0.010194 eV
 added-field ion interaction          0.198019 eV  (added to PSCEN)


 Free energy of the ion-electron system (eV)
  ---------------------------------------------------
  alpha Z        PSCENC =       107.14033811
  Ewald energy   TEWEN  =     39657.31772197
  -Hartree energ DENC   =    -48626.55697167
  -exchange      EXHF   =       568.49034821
  -V(xc)+E(xc)   XCENC  =       651.79144129
  PAW double counting   =     27454.82166482   -27482.20322490
  entropy T*S    EENTRO =        -0.00001206
  eigenvalues    EBANDS =     -3405.79870380
  atomic energy  EATOM  =     10467.44249161
  ---------------------------------------------------
  free energy    TOTEN  =      -607.55490710 eV

  energy without entropy =     -607.55489504  energy(sigma->0) =     -607.55490107
  exchange ACFDT corr.  =        -0.00000348  see jH, gK, PRB 81, 115126


--------------------------------------------------------------------------------------------------------




--------------------------------------- Iteration      1(  15)  ---------------------------------------


    POTLOK:  cpu time    1.3988: real time    1.3992
    SETDIJ:  cpu time    2.0888: real time    2.0890
    TRIAL :  cpu time  529.3250: real time  529.4304
    CORREC:  cpu time    0.0015: real time    0.0017
    CHARGE:  cpu time    1.6927: real time    1.6932
    --------------------------------------------
      LOOP:  cpu time  534.5093: real time  534.6160

 eigenvalue-minimisations  :     0
 total energy-change (2. order) :-0.4442730E-02  (-0.4066667E-02)
 number of electron     247.0000002 magnetization       1.0000395
 augmentation part       13.0022225 magnetization       1.0882666

 DIPCOR: dipole corrections for dipol
 direction  3 min pos     1,
 dipolmoment           0.000090      0.000015     -0.596911 electrons x Angstroem
 Tr[quadrupol]     -6761.003402

 energy correction for charged system         0.000000 eV
 dipol+quadrupol energy correction           -0.010188 eV
 added-field ion interaction          0.197960 eV  (added to PSCEN)


 Free energy of the ion-electron system (eV)
  ---------------------------------------------------
  alpha Z        PSCENC =       107.14028582
  Ewald energy   TEWEN  =     39657.31772197
  -Hartree energ DENC   =    -48626.58173146
  -exchange      EXHF   =       568.50954984
  -V(xc)+E(xc)   XCENC  =       651.79811841
  PAW double counting   =     27455.69359015   -27483.08945722
  entropy T*S    EENTRO =        -0.00001167
  eigenvalues    EBANDS =     -3405.78990689
  atomic energy  EATOM  =     10467.44249161
  ---------------------------------------------------
  free energy    TOTEN  =      -607.55934983 eV

  energy without entropy =     -607.55933817  energy(sigma->0) =     -607.55934400
  exchange ACFDT corr.  =        -0.00000327  see jH, gK, PRB 81, 115126


--------------------------------------------------------------------------------------------------------




--------------------------------------- Iteration      1(  16)  ---------------------------------------


    POTLOK:  cpu time    1.3957: real time    1.3961
    SETDIJ:  cpu time    2.0949: real time    2.0951
    TRIAL :  cpu time  529.3781: real time  529.4847
    CORREC:  cpu time    0.0015: real time    0.0017
    CHARGE:  cpu time    1.6880: real time    1.6886
    --------------------------------------------
      LOOP:  cpu time  534.5601: real time  534.6682

 eigenvalue-minimisations  :     0
 total energy-change (2. order) :-0.3926766E-02  (-0.3641646E-02)
 number of electron     247.0000002 magnetization       1.0000389
 augmentation part       13.0024224 magnetization       1.0927303

 DIPCOR: dipole corrections for dipol
 direction  3 min pos     1,
 dipolmoment           0.000090      0.000015     -0.596452 electrons x Angstroem
 Tr[quadrupol]     -6761.003719

 energy correction for charged system         0.000000 eV
 dipol+quadrupol energy correction           -0.010172 eV
 added-field ion interaction          0.197808 eV  (added to PSCEN)


 Free energy of the ion-electron system (eV)
  ---------------------------------------------------
  alpha Z        PSCENC =       107.14014917
  Ewald energy   TEWEN  =     39657.31772197
  -Hartree energ DENC   =    -48626.59577643
  -exchange      EXHF   =       568.52694995
  -V(xc)+E(xc)   XCENC  =       651.80413650
  PAW double counting   =     27456.89580565   -27484.30250830
  entropy T*S    EENTRO =        -0.00001148
  eigenvalues    EBANDS =     -3405.79223506
  atomic energy  EATOM  =     10467.44249161
  ---------------------------------------------------
  free energy    TOTEN  =      -607.56327660 eV

  energy without entropy =     -607.56326512  energy(sigma->0) =     -607.56327086
  exchange ACFDT corr.  =        -0.00000314  see jH, gK, PRB 81, 115126


--------------------------------------------------------------------------------------------------------




--------------------------------------- Iteration      1(  17)  ---------------------------------------


    POTLOK:  cpu time    1.3964: real time    1.3968
    SETDIJ:  cpu time    2.0858: real time    2.0860
    TRIAL :  cpu time  529.0733: real time  529.1868
    CORREC:  cpu time    0.0014: real time    0.0016
    CHARGE:  cpu time    1.6852: real time    1.6854
    --------------------------------------------
      LOOP:  cpu time  534.2450: real time  534.3596

 eigenvalue-minimisations  :     0
 total energy-change (2. order) :-0.3535634E-02  (-0.3315118E-02)
 number of electron     247.0000002 magnetization       1.0000388
 augmentation part       13.0025183 magnetization       1.0970649

 DIPCOR: dipole corrections for dipol
 direction  3 min pos     1,
 dipolmoment           0.000089      0.000015     -0.595984 electrons x Angstroem
 Tr[quadrupol]     -6761.003814

 energy correction for charged system         0.000000 eV
 dipol+quadrupol energy correction           -0.010156 eV
 added-field ion interaction          0.197653 eV  (added to PSCEN)


 Free energy of the ion-electron system (eV)
  ---------------------------------------------------
  alpha Z        PSCENC =       107.14000989
  Ewald energy   TEWEN  =     39657.31772197
  -Hartree energ DENC   =    -48626.58715450
  -exchange      EXHF   =       568.54263187
  -V(xc)+E(xc)   XCENC  =       651.80924673
  PAW double counting   =     27458.42474471   -27485.84053390
  entropy T*S    EENTRO =        -0.00001145
  eigenvalues    EBANDS =     -3405.81595915
  atomic energy  EATOM  =     10467.44249161
  ---------------------------------------------------
  free energy    TOTEN  =      -607.56681223 eV

  energy without entropy =     -607.56680078  energy(sigma->0) =     -607.56680651
  exchange ACFDT corr.  =        -0.00000309  see jH, gK, PRB 81, 115126


--------------------------------------------------------------------------------------------------------




--------------------------------------- Iteration      1(  18)  ---------------------------------------


    POTLOK:  cpu time    1.3937: real time    1.3937
    SETDIJ:  cpu time    2.0868: real time    2.0868
    TRIAL :  cpu time  529.1920: real time  529.2445
    CORREC:  cpu time    0.0011: real time    0.0014
    CHARGE:  cpu time    1.6935: real time    1.6936
    --------------------------------------------
      LOOP:  cpu time  534.3695: real time  534.4223

 eigenvalue-minimisations  :     0
 total energy-change (2. order) :-0.3232314E-02  (-0.3059436E-02)
 number of electron     247.0000002 magnetization       1.0000391
 augmentation part       13.0026141 magnetization       1.1012718

 DIPCOR: dipole corrections for dipol
 direction  3 min pos     1,
 dipolmoment           0.000089      0.000015     -0.595665 electrons x Angstroem
 Tr[quadrupol]     -6761.003680

 energy correction for charged system         0.000000 eV
 dipol+quadrupol energy correction           -0.010145 eV
 added-field ion interaction          0.197547 eV  (added to PSCEN)


 Free energy of the ion-electron system (eV)
  ---------------------------------------------------
  alpha Z        PSCENC =       107.13991491
  Ewald energy   TEWEN  =     39657.31772197
  -Hartree energ DENC   =    -48626.56499306
  -exchange      EXHF   =       568.55692839
  -V(xc)+E(xc)   XCENC  =       651.81382508
  PAW double counting   =     27459.88261469   -27487.30710859
  entropy T*S    EENTRO =        -0.00001154
  eigenvalues    EBANDS =     -3405.85142811
  atomic energy  EATOM  =     10467.44249161
[...]
  augment    42.49405    42.91516    45.44348    -0.40943    -0.75528     0.50604
  Kinetic  3672.64760  3672.23961  4172.17220     2.65837    -1.39793     2.86213
  Fock     -344.63021  -344.30401  -319.85209     0.85527     0.57502    -0.41099
  -------------------------------------------------------------------------------------
  Total     -27.06244   -61.11005    -0.87057     0.30749    -0.49714     1.14847
  in kB     -13.64818   -30.81914    -0.43905     0.15508    -0.25072     0.57920
  external pressure =      -14.97 kB  Pullay stress =        0.00 kB


 VOLUME and BASIS-vectors are now :
 -----------------------------------------------------------------------------
  energy-cutoff  :      500.00
  volume of cell :     3176.89
      direct lattice vectors                 reciprocal lattice vectors
    12.716600000  0.000000000  0.000000000     0.078637372 -0.000571374  0.000011789
     0.090932938 12.514969648  0.000000000     0.000000000  0.079904309  0.000002005
    -0.002996248 -0.000500845 19.961899769     0.000000000  0.000000000  0.050095432

  length of vectors
    12.716600000 12.515300000 19.961900000     0.078639448  0.079904309  0.050095432


 FORCES acting on ions:
    Electron-Ion                     Ewald-Force                    Non-Local-Force
 -----------------------------------------------------------------------------------------------
   0.120E+01 0.138E+01 -.109E+01   -.116E+01 -.154E+01 0.105E+01   -.878E-01 0.192E+00 0.260E-01
   0.302E+01 0.693E+01 0.166E+01   -.308E+01 -.713E+01 -.170E+01   0.111E+00 0.150E+00 0.209E-01
   0.765E+01 0.182E+01 -.627E+00   -.754E+01 -.176E+01 0.587E+00   -.612E-01 0.614E-02 0.218E-01
   0.131E+01 0.117E+02 0.391E+01   -.979E+00 -.120E+02 -.398E+01   -.394E+00 0.275E+00 0.635E-01
   0.546E+01 0.199E+02 0.934E+01   -.556E+01 -.205E+02 -.942E+01   0.346E-01 0.471E+00 0.103E+00
   0.149E+02 0.410E+01 0.258E+01   -.154E+02 -.404E+01 -.263E+01   0.489E+00 0.802E-01 0.282E-01
   0.152E+02 0.711E+01 0.458E+01   -.154E+02 -.729E+01 -.462E+01   0.329E+00 0.160E+00 0.386E-01
   -.774E+01 0.487E+02 0.868E+01   0.106E+02 -.523E+02 -.827E+01   -.280E+01 0.370E+01 -.410E+00
   0.134E+02 -.110E+02 0.103E+02   -.135E+02 0.110E+02 -.104E+02   0.138E+00 -.137E-03 0.119E+00
   0.513E+02 -.104E+02 0.584E+01   -.554E+02 0.109E+02 -.591E+01   0.397E+01 -.547E+00 0.508E-01
   0.102E+02 0.788E+00 0.310E+01   -.105E+02 -.785E+00 -.312E+01   0.276E+00 -.649E-01 0.151E-01
   0.399E+02 0.519E+01 0.850E+01   -.431E+02 -.545E+01 -.854E+01   0.329E+01 0.327E+00 0.488E-01
   -.395E+01 -.342E+02 0.244E+01   0.641E+01 0.372E+02 -.251E+01   -.233E+01 -.279E+01 0.648E-01
   0.282E+01 -.148E+02 -.289E+01   -.258E+01 0.152E+02 0.293E+01   -.135E+00 -.340E+00 -.365E-01
   0.220E+00 -.676E+00 0.922E-01   -.250E+00 0.729E+00 -.132E+00   0.412E-01 -.157E+00 0.336E-01
   0.136E+02 -.564E+01 0.257E+00   -.138E+02 0.586E+01 -.339E+00   0.131E+00 -.144E+00 0.687E-01
   0.564E+01 -.178E+01 -.290E+01   -.529E+01 0.184E+01 0.292E+01   -.254E+00 -.881E-01 -.160E-01
   -.484E+01 0.290E+01 0.509E+01   0.450E+01 -.307E+01 -.519E+01   0.240E+00 0.244E+00 0.931E-01
   -.593E+01 0.382E+01 0.232E+01   0.639E+01 -.363E+01 -.240E+01   -.368E+00 -.977E-01 0.663E-01
   0.511E+01 0.250E+01 0.356E+00   -.506E+01 -.253E+01 -.328E+00   0.496E-01 0.334E-01 -.384E-01
   0.507E+00 0.150E+02 0.383E+01   -.866E+00 -.154E+02 -.397E+01   0.266E+00 0.467E+00 0.155E+00
   0.156E+02 0.364E+02 -.424E+00   -.178E+02 -.396E+02 -.229E+00   0.201E+01 0.297E+01 0.607E+00
   0.576E+01 0.140E+02 0.152E+02   -.620E+01 -.136E+02 -.163E+02   0.689E+00 -.642E+00 0.108E+01
   0.899E+01 -.516E+02 0.572E+02   -.122E+02 0.556E+02 -.584E+02   0.313E+01 -.398E+01 0.119E+01
   -.862E+01 -.166E+02 0.536E+01   0.927E+01 0.156E+02 -.520E+01   -.881E+00 0.108E+01 -.126E+00
   -.629E+01 -.189E+02 0.203E+02   0.622E+01 0.193E+02 -.202E+02   0.750E-01 -.506E+00 -.115E+00
   -.423E+01 -.113E+02 0.983E+01   0.392E+01 0.115E+02 -.986E+01   0.350E+00 -.186E+00 0.260E-01
   -.508E+01 -.531E+01 0.469E+00   0.504E+01 0.528E+01 -.535E+00   -.818E-01 0.243E-01 0.612E-01
   0.318E+01 -.871E+01 0.463E+01   -.367E+01 0.838E+01 -.462E+01   0.390E+00 0.239E+00 -.830E-02
   -.931E+00 -.280E+01 0.763E+01   0.846E+00 0.282E+01 -.768E+01   0.112E+00 -.105E+00 0.538E-01
   -.585E+01 0.376E+01 0.232E+01   0.583E+01 -.375E+01 -.236E+01   0.452E-01 0.275E-01 0.213E-01
   -.120E+02 0.868E+01 -.226E+00   0.121E+02 -.897E+01 0.338E+00   -.951E-01 0.179E+00 -.112E+00
   0.384E+00 0.188E+01 0.247E+01   -.355E+00 -.201E+01 -.253E+01   -.451E-01 0.208E+00 0.464E-01
   0.534E+01 0.729E+00 0.333E+01   -.539E+01 -.709E+00 -.338E+01   0.340E-01 -.208E-02 0.390E-01
   -.573E+01 0.147E+01 0.656E+01   0.604E+01 -.132E+01 -.670E+01   -.274E+00 -.126E+00 0.141E+00
   -.458E+02 -.518E+01 -.158E+01   0.493E+02 0.544E+01 0.919E+00   -.343E+01 -.291E+00 0.627E+00
   -.104E+02 0.289E+01 0.510E+01   0.108E+02 -.292E+01 -.518E+01   -.417E+00 0.759E-01 0.109E+00
   0.736E+01 -.481E-01 0.205E+01   -.763E+01 0.369E+00 -.204E+01   0.196E+00 -.256E+00 -.341E-02
   -.203E+01 -.388E+01 0.242E+01   0.207E+01 0.401E+01 -.249E+01   0.669E-01 -.145E+00 0.549E-01
   -.529E+02 0.844E+01 0.307E+02   0.572E+02 -.877E+01 -.307E+02   -.390E+01 0.393E+00 0.111E+00
   -.163E+02 0.727E+01 0.243E+01   0.165E+02 -.717E+01 -.249E+01   -.258E+00 -.440E-01 0.213E-01
   -.103E+01 0.162E+01 0.778E+01   0.109E+01 -.170E+01 -.782E+01   -.174E+00 0.976E-01 0.386E-01
   -.785E+01 -.111E+01 0.100E+02   0.817E+01 0.855E+00 -.100E+02   -.255E+00 0.191E+00 0.849E-02
   -.151E+02 -.910E+01 0.201E+02   0.153E+02 0.930E+01 -.202E+02   -.132E+00 -.158E+00 0.118E+00
   -.184E+02 -.633E+01 0.221E+02   0.189E+02 0.632E+01 -.221E+02   -.549E+00 -.116E+00 0.749E-01
   0.195E+01 -.201E+01 0.595E+01   -.210E+01 0.183E+01 -.600E+01   0.123E+00 0.140E+00 0.452E-01
   -.509E+01 0.113E+01 0.563E+01   0.515E+01 -.120E+01 -.565E+01   -.394E-01 0.697E-01 0.140E-01
   -.848E+01 -.152E-01 0.691E+01   0.838E+01 -.829E-01 -.695E+01   0.699E-01 0.397E-01 0.391E-01
   -.450E+01 -.559E+01 0.103E+02   0.454E+01 0.570E+01 -.104E+02   -.102E+00 -.121E+00 0.313E-01
   0.557E+01 -.150E+01 0.252E+01   -.553E+01 0.145E+01 -.256E+01   -.548E-01 0.358E-01 0.404E-01
   -.295E+02 -.560E+01 0.320E+02   0.329E+02 0.113E+02 -.317E+02   -.348E+01 -.549E+01 -.598E-01
   0.216E+02 -.559E+00 0.423E+02   -.263E+02 -.538E+01 -.440E+02   0.511E+01 0.572E+01 0.179E+01
   0.283E+02 -.276E+02 0.543E+01   -.196E+02 0.427E+02 -.444E+01   -.826E+01 -.146E+02 -.838E+00
   0.951E+01 0.252E+02 0.200E+02   0.889E+00 -.413E+02 -.214E+02   -.101E+02 0.152E+02 0.129E+01
   -.934E-01 -.228E+02 -.380E+02   -.116E+02 0.419E+02 0.399E+02   0.108E+02 -.177E+02 -.171E+01
   -.244E+02 0.333E+02 0.120E+03   0.139E+02 -.516E+02 -.125E+03   0.965E+01 0.172E+02 0.475E+01
   -.142E+02 -.192E+02 0.158E+03   0.113E+02 0.252E+02 -.157E+03   0.199E+01 -.524E+01 -.174E+01
   0.164E+02 0.281E+02 -.693E+03   -.156E+02 -.303E+02 0.681E+03   0.216E+00 0.160E+01 0.102E+02
 -----------------------------------------------------------------------------------------------
   -.607E+01 0.242E+01 -.202E+02   -.817E-13 0.242E-12 0.114E-12   0.548E+01 -.230E+01 0.185E+02
 
 
 POSITION                                       TOTAL-FORCE (eV/Angst)
 -----------------------------------------------------------------------------------
      2.91675     12.49297      9.98842        -0.048021      0.047200     -0.017699
      0.69420      1.22547      9.97693         0.048732     -0.041777     -0.015089
      1.49814     12.49571      9.98182         0.051748      0.067736     -0.017586
      3.53548      1.21946      9.98621        -0.084031     -0.001907     -0.003636
      2.80819      2.43510      9.97145        -0.067810     -0.093229      0.024347
      0.71376      3.72689      9.97096         0.035872      0.147668     -0.024213
      1.39403      2.46183      9.97141         0.141337     -0.009679      0.003308
      3.50493      3.66241      9.98414        -0.106080      0.366217     -0.026159
      0.82788      6.23125      9.93612        -0.000751     -0.040296      0.041879
      1.46966      4.94581      9.95692         0.137164     -0.065498     -0.017042
      0.82758      8.73088      9.94940         0.001826     -0.059383     -0.001832
      1.57952      7.48775      9.93345         0.243963      0.089894      0.007343
      3.60999      8.77473      9.95619         0.019267     -0.009595     -0.003718
      2.91599     10.00893      9.97799         0.088242     -0.036884     -0.004462
      0.79724     11.24568      9.97235         0.004148     -0.112047     -0.005098
      1.49971      9.99787      9.96757         0.018390      0.067267     -0.009257
      3.62107     11.25668      9.98839         0.088185     -0.031226     -0.004025
      7.06400      0.00277      9.98397        -0.097123      0.081377      0.005531
      4.95499      1.26280     10.00384         0.069419      0.074845     -0.009303
      5.64957      0.00844      9.99421         0.116172      0.011853     -0.012710
      7.76728      1.24801     10.01687        -0.072645      0.051838      0.030161
      7.09000      2.49819     10.08178        -0.122593     -0.064469     -0.013285
      5.64486      2.54568     10.02235         0.297903     -0.277408      0.028811
      7.12669      7.56450      9.87201         0.090625     -0.188115      0.066023
      5.03541      8.76185      9.95478        -0.290219      0.212041      0.030210
      7.84697      8.80050      9.90332         0.013226     -0.040712     -0.015637
      7.14612     10.03496      9.93732         0.056686      0.037621     -0.000291
      5.03396     11.27109      9.98151        -0.138946     -0.009771     -0.001082
      5.72762     10.01861      9.95894        -0.069394     -0.073629      0.002138
      7.85604     11.27393      9.95358         0.039028     -0.083004      0.003169
     11.39005     12.50337      9.97151         0.013053      0.034568     -0.013679
      9.18674      1.24863     10.00776         0.000736     -0.101738     -0.006175
      9.97451     12.51066      9.97624        -0.008132      0.084803     -0.006800
     11.99179      1.23938      9.97490        -0.000062      0.014750     -0.006611
     11.29945      2.50065      9.97897         0.011453      0.024532      0.016412
      9.14277      3.74680     10.06676        -0.082222     -0.061020      0.003330
      9.87809      2.50395     10.00838        -0.063790      0.057301      0.029568
     12.00933      3.75092      9.97844        -0.056161      0.051774      0.003958
     11.31832      5.00994      9.97546         0.113329     -0.029126     -0.015612
      9.20465      6.29716      9.91373         0.123712      0.094885      0.041375
      9.86661      5.01765      9.99923        -0.053767      0.060681     -0.041137
     12.09235      6.23949      9.94301        -0.126936      0.031563      0.002644
     11.39203      7.49416      9.92651         0.053481     -0.052977     -0.005150
      9.26916      8.77457      9.89873        -0.021782      0.039970      0.016207
      9.96545      7.51596      9.90016        -0.087473     -0.138194      0.021009
     12.11219      8.73660      9.93821        -0.019727     -0.034315      0.004189
     11.40673      9.99493      9.94200         0.013820      0.002655     -0.002995
      9.27412     11.26232      9.95003        -0.030079     -0.053800      0.009286
      9.98099     10.01126      9.92686        -0.056615     -0.025158      0.006571
     12.09716     11.24859      9.96188        -0.006801     -0.012865     -0.002515
      4.91204      3.79362     10.01538        -0.254418     -0.020908      0.224125
      5.69040      7.47744      9.91354         0.624035      0.079463      0.173147
      2.82869      4.86181      9.96609        -0.338807     -0.783572      0.080625
      2.97845      7.53837      9.91861        -0.571822      0.445724     -0.022572
      7.77017      3.69801     10.19588         0.107048     -0.110724      0.070618
      7.83749      6.37022      9.86577        -0.086394      0.360857      0.344150
      4.25896      6.02565      9.83873        -0.848421      0.490233     -0.394663
      6.38526      5.31824     10.85867         1.188417     -0.466291     -0.570096
 -----------------------------------------------------------------------------------
    total drift:                                0.004846     -0.005027     -0.009659


--------------------------------------------------------------------------------------------------------



  FREE ENERGIE OF THE ION-ELECTRON SYSTEM (eV)
  ---------------------------------------------------
  free  energy   TOTEN  =      -607.66686599 eV

  energy  without entropy=     -607.66608968  energy(sigma->0) =     -607.66647784
 


--------------------------------------------------------------------------------------------------------


    POTLOK:  cpu time    3.4729: real time    3.4732


--------------------------------------------------------------------------------------------------------


 stress matrix after NEB project (eV)
    -27.06244      0.30802      1.14847
      0.30749    -61.11005     -0.50036
      1.14732     -0.49714     -0.87057
  FORCES: max atom, RMS     1.398132    0.325177
  FORCE total and by dimension    2.476473    1.188417
  Stress total and by dimension   66.864746   61.110052
 writing wavefunctions
     LOOP+:  cpu time**********: real time**********
    4ORBIT:  cpu time    0.0000: real time    0.0000
 


 total charge     
 
# of ion       s       p       d       tot
------------------------------------------
    1        0.868   1.779   0.000   2.647
    2        0.867   1.780   0.000   2.647
    3        0.866   1.768   0.000   2.633
    4        0.870   1.778   0.000   2.648
    5        0.875   1.808   0.000   2.682
    6        0.864   1.773   0.000   2.637
    7        0.869   1.774   0.000   2.644
    8        0.876   1.744   0.000   2.620
    9        0.848   1.748   0.000   2.596
   10        0.860   1.738   0.000   2.598
   11        0.860   1.753   0.000   2.613
   12        0.846   1.679   0.000   2.525
   13        0.866   1.745   0.000   2.611
   14        0.869   1.788   0.000   2.657
   15        0.866   1.775   0.000   2.641
   16        0.868   1.766   0.000   2.633
   17        0.868   1.783   0.000   2.651
   18        0.866   1.783   0.000   2.649
   19        0.861   1.755   0.000   2.616
   20        0.865   1.768   0.000   2.633
   21        0.868   1.782   0.000   2.650
   22        0.859   1.733   0.000   2.592
   23        0.856   1.717   0.000   2.574
   24        0.863   1.716   0.000   2.579
   25        0.866   1.754   0.000   2.620
   26        0.869   1.784   0.000   2.653
   27        0.869   1.781   0.000   2.650
   28        0.866   1.772   0.000   2.638
   29        0.866   1.768   0.000   2.634
   30        0.868   1.776   0.000   2.643
   31        0.866   1.768   0.000   2.634
   32        0.867   1.764   0.000   2.631
   33        0.866   1.776   0.000   2.642
   34        0.866   1.767   0.000   2.632
   35        0.863   1.762   0.000   2.624
   36        0.852   1.698   0.000   2.550
   37        0.864   1.765   0.000   2.629
   38        0.863   1.763   0.000   2.626
   39        0.854   1.732   0.000   2.586
   40        0.856   1.725   0.000   2.581
   41        0.848   1.745   0.000   2.593
   42        0.855   1.729   0.000   2.584
   43        0.862   1.760   0.000   2.622
   44        0.866   1.763   0.000   2.630
   45        0.863   1.765   0.000   2.627
   46        0.861   1.752   0.000   2.613
   47        0.863   1.759   0.000   2.622
   48        0.866   1.767   0.000   2.633
   49        0.864   1.769   0.000   2.633
   50        0.866   1.766   0.000   2.632
   51        0.851   1.686   0.000   2.537
   52        0.853   1.670   0.000   2.523
   53        1.235   2.723   0.000   3.958
   54        1.226   2.637   0.000   3.863
   55        1.234   2.664   0.000   3.898
   56        1.239   2.703   0.000   3.942
   57        0.447   0.547   6.276   7.270
   58        2.222   6.175   1.072   9.468
--------------------------------------------------
tot         52.486 108.766   7.348 168.599
 


 magnetization (x)
 
# of ion       s       p       d       tot
------------------------------------------
    1       -0.000  -0.003   0.000  -0.003
    2        0.000   0.002   0.000   0.002
    3       -0.000  -0.006   0.000  -0.006
    4       -0.000  -0.002   0.000  -0.002
    5       -0.000  -0.004   0.000  -0.005
    6       -0.000  -0.008   0.000  -0.008
    7       -0.000  -0.002   0.000  -0.002
    8        0.001   0.002   0.000   0.003
    9        0.000   0.004   0.000   0.004
   10       -0.001  -0.009   0.000  -0.010
   11       -0.000  -0.006   0.000  -0.007
   12       -0.000  -0.011   0.000  -0.011
   13       -0.001  -0.019   0.000  -0.019
   14        0.000   0.004   0.000   0.004
   15       -0.000  -0.004   0.000  -0.004
   16       -0.001  -0.011   0.000  -0.011
   17       -0.000  -0.006   0.000  -0.006
   18       -0.000  -0.003   0.000  -0.003
   19        0.000   0.004   0.000   0.004
   20       -0.000  -0.007   0.000  -0.008
   21        0.000   0.001   0.000   0.001
   22       -0.000  -0.009   0.000  -0.010
   23       -0.001  -0.013   0.000  -0.014
   24        0.001   0.007   0.000   0.008
   25       -0.001  -0.013   0.000  -0.014
   26       -0.001  -0.010   0.000  -0.011
   27       -0.000  -0.002   0.000  -0.002
   28       -0.000  -0.005   0.000  -0.005
   29        0.000   0.001   0.000   0.001
   30       -0.000  -0.006   0.000  -0.006
   31       -0.000  -0.004   0.000  -0.004
   32       -0.000  -0.007   0.000  -0.007
   33       -0.000  -0.007   0.000  -0.007
   34       -0.000  -0.005   0.000  -0.005
   35        0.000  -0.000   0.000  -0.000
   36       -0.000  -0.010   0.000  -0.011
   37       -0.000  -0.005   0.000  -0.005
   38       -0.001  -0.011   0.000  -0.012
   39        0.000   0.003   0.000   0.004
   40       -0.000  -0.004   0.000  -0.004
   41        0.000  -0.001   0.000  -0.001
   42        0.000   0.000   0.000   0.000
   43       -0.000  -0.008   0.000  -0.008
   44        0.000   0.004   0.000   0.005
   45       -0.000  -0.009   0.000  -0.009
   46       -0.000  -0.004   0.000  -0.004
   47        0.000  -0.001   0.000  -0.001
   48        0.000   0.001   0.000   0.001
   49       -0.000  -0.002   0.000  -0.002
   50       -0.000  -0.006   0.000  -0.007
   51       -0.004  -0.022   0.000  -0.026
   52       -0.005  -0.041   0.000  -0.046
   53       -0.005  -0.022   0.000  -0.027
   54       -0.007  -0.067   0.000  -0.075
   55       -0.002  -0.033   0.000  -0.035
   56        0.000   0.008   0.000   0.008
   57        0.018   0.000   1.852   1.870
   58       -0.008  -0.011  -0.110  -0.128
--------------------------------------------------
tot         -0.021  -0.400   1.742   1.322
 

 total amount of memory used by VASP MPI-rank0   183106. kBytes
=======================================================================

   base      :      30000. kBytes
   nonl-proj :       5324. kBytes
   fftplans  :      14250. kBytes
   grid      :      36827. kBytes
   one-center:         62. kBytes
   HF        :         23. kBytes
   nonlr-proj:      18668. kBytes
   wavefun   :      77952. kBytes
 
  
  
 General timing and accounting informations for this job:
 ========================================================
  
                  Total CPU time used (sec):   134956.781
                            User time (sec):   134851.333
                          System time (sec):      105.442
                         Elapsed time (sec):   134973.666
  
                   Maximum memory used (kb):      447640.
                   Average memory used (kb):           0.
  
                          Minor page faults:       809212
                          Major page faults:            0
                 Voluntary context switches:         1287
