 vasp.5.4.4.18Apr17-6-g9f103f2a35 (build Feb 25 2019 10:51:38) complex          
  
 executed on             LinuxIFC date 2022.02.08  14:49:37
 running on   32 total cores
 distrk:  each k-point on   32 cores,    1 groups
 distr:  one band on NCORES_PER_BAND=  32 cores,    1 groups


--------------------------------------------------------------------------------------------------------


 INCAR:
 POTCAR:    PAW_PBE C 08Apr2002                   
 POTCAR:    PAW_PBE N 08Apr2002                   
 POTCAR:    PAW_PBE Cu 22Jun2005                  
 POTCAR:    PAW_PBE Fe 06Sep2000                  

 ----------------------------------------------------------------------------- 
|                                                                             |
|           W    W    AA    RRRRR   N    N  II  N    N   GGGG   !!!           |
|           W    W   A  A   R    R  NN   N  II  NN   N  G    G  !!!           |
|           W    W  A    A  R    R  N N  N  II  N N  N  G       !!!           |
|           W WW W  AAAAAA  RRRRR   N  N N  II  N  N N  G  GGG   !            |
|           WW  WW  A    A  R   R   N   NN  II  N   NN  G    G                |
|           W    W  A    A  R    R  N    N  II  N    N   GGGG   !!!           |
|                                                                             |
|      For optimal performance we recommend to set                            |
|        NCORE= 4 - approx SQRT( number of cores)                             |
|      NCORE specifies how many cores store one orbital (NPAR=cpu/NCORE).     |
|      This setting can  greatly improve the performance of VASP for DFT.     |
|      The default,   NCORE=1            might be grossly inefficient         |
|      on modern multi-core architectures or massively parallel machines.     |
|      Do your own testing !!!!                                               |
|      Unfortunately you need to use the default for GW and RPA calculations. |
|      (for HF NCORE is supported but not extensively tested yet)             |
|                                                                             |
 ----------------------------------------------------------------------------- 

 POTCAR:    PAW_PBE C 08Apr2002                   
   VRHFIN =C: s2p2                                                              
   LEXCH  = PE                                                                  
   EATOM  =   147.1560 eV,   10.8157 Ry                                         
                                                                                
   TITEL  = PAW_PBE C 08Apr2002                                                 
   LULTRA =        F    use ultrasoft PP ?                                      
   IUNSCR =        1    unscreen: 0-lin 1-nonlin 2-no                           
   RPACOR =    1.200    partial core radius                                     
   POMASS =   12.011; ZVAL   =    4.000    mass and valenz                      
   RCORE  =    1.500    outmost cutoff radius                                   
   RWIGS  =    1.630; RWIGS  =    0.863    wigner-seitz radius (au A)           
   ENMAX  =  400.000; ENMIN  =  300.000 eV                                      
   ICORE  =        2    local potential                                         
   LCOR   =        T    correct aug charges                                     
   LPAW   =        T    paw PP                                                  
   EAUG   =  644.873                                                            
   DEXC   =    0.000                                                            
   RMAX   =    1.529    core radius for proj-oper                               
   RAUG   =    1.300    factor for augmentation sphere                          
   RDEP   =    1.501    radius for radial grids                                 
   RDEPT  =    1.300    core radius for aug-charge                              
                                                                                
   Atomic configuration                                                         
    4 entries                                                                   
     n  l   j            E        occ.                                          
     1  0  0.50      -273.3789   2.0000                                         
     2  0  0.50       -13.7508   2.0000                                         
     2  1  0.50        -5.2854   2.0000                                         
     3  2  1.50        -5.4423   0.0000                                         
   Description                                                                  
     l       E           TYP  RCUT    TYP  RCUT                                 
     0    -13.7508458     23  1.200                                             
     0     -8.2022199     23  1.200                                             
     1     -5.2854383     23  1.500                                             
     1     34.0145650     23  1.500                                             
     2     -5.4423304      7  1.500                                             
  local pseudopotential read in
  partial core-charges read in
  partial kinetic energy density read in
  atomic valenz-charges read in
  non local Contribution for L=           0  read in
    real space projection operators read in
  non local Contribution for L=           0  read in
    real space projection operators read in
  non local Contribution for L=           1  read in
    real space projection operators read in
  non local Contribution for L=           1  read in
    real space projection operators read in
    PAW grid and wavefunctions read in
 
   number of l-projection  operators is LMAX  =           4
   number of lm-projection operators is LMMAX =           8
 
 POTCAR:    PAW_PBE N 08Apr2002                   
   VRHFIN =N: s2p3                                                              
   LEXCH  = PE                                                                  
   EATOM  =   264.5486 eV,   19.4438 Ry                                         
                                                                                
   TITEL  = PAW_PBE N 08Apr2002                                                 
   LULTRA =        F    use ultrasoft PP ?                                      
   IUNSCR =        1    unscreen: 0-lin 1-nonlin 2-no                           
   RPACOR =    1.200    partial core radius                                     
   POMASS =   14.001; ZVAL   =    5.000    mass and valenz                      
   RCORE  =    1.500    outmost cutoff radius                                   
   RWIGS  =    1.400; RWIGS  =    0.741    wigner-seitz radius (au A)           
   ENMAX  =  400.000; ENMIN  =  300.000 eV                                      
   ICORE  =        2    local potential                                         
   LCOR   =        T    correct aug charges                                     
   LPAW   =        T    paw PP                                                  
   EAUG   =  627.112                                                            
   DEXC   =    0.000                                                            
   RMAX   =    1.529    core radius for proj-oper                               
   RAUG   =    1.300    factor for augmentation sphere                          
   RDEP   =    1.514    radius for radial grids                                 
   RDEPT  =    1.338    core radius for aug-charge                              
                                                                                
   Atomic configuration                                                         
    4 entries                                                                   
     n  l   j            E        occ.                                          
     1  0  0.50      -384.7179   2.0000                                         
     2  0  0.50       -18.5828   2.0000                                         
     2  1  0.50        -7.0898   3.0000                                         
     3  2  1.50        -6.8029   0.0000                                         
   Description                                                                  
     l       E           TYP  RCUT    TYP  RCUT                                 
     0    -18.5828119     23  1.200                                             
     0    -13.5018863     23  1.200                                             
     1     -7.0897853     23  1.500                                             
     1      9.5240782     23  1.500                                             
     2     -6.8029130      7  1.500                                             
  local pseudopotential read in
  partial core-charges read in
  partial kinetic energy density read in
  atomic valenz-charges read in
  non local Contribution for L=           0  read in
    real space projection operators read in
  non local Contribution for L=           0  read in
    real space projection operators read in
  non local Contribution for L=           1  read in
    real space projection operators read in
  non local Contribution for L=           1  read in
    real space projection operators read in
    PAW grid and wavefunctions read in
 
   number of l-projection  operators is LMAX  =           4
   number of lm-projection operators is LMMAX =           8
 
 POTCAR:    PAW_PBE Cu 22Jun2005                  
   VRHFIN =Cu: d10 p1                                                           
   LEXCH  = PE                                                                  
   EATOM  =  1390.9808 eV,  102.2342 Ry                                         
                                                                                
   TITEL  = PAW_PBE Cu 22Jun2005                                                
   LULTRA =        F    use ultrasoft PP ?                                      
   IUNSCR =        1    unscreen: 0-lin 1-nonlin 2-no                           
   RPACOR =    2.000    partial core radius                                     
   POMASS =   63.546; ZVAL   =   11.000    mass and valenz                      
   RCORE  =    2.300    outmost cutoff radius                                   
   RWIGS  =    2.200; RWIGS  =    1.164    wigner-seitz radius (au A)           
   ENMAX  =  295.446; ENMIN  =  221.585 eV                                      
   ICORE  =        3    local potential                                         
   LCOR   =        T    correct aug charges                                     
   LPAW   =        T    paw PP                                                  
   EAUG   =  586.980                                                            
   DEXC   =    0.000                                                            
   RMAX   =    2.344    core radius for proj-oper                               
   RAUG   =    1.300    factor for augmentation sphere                          
   RDEP   =    2.302    radius for radial grids                                 
   RDEPT  =    1.771    core radius for aug-charge                              
                                                                                
   Atomic configuration                                                         
    9 entries                                                                   
     n  l   j            E        occ.                                          
     1  0  0.50     -8850.2468   2.0000                                         
     2  0  0.50     -1062.3498   2.0000                                         
     2  1  1.50      -916.8226   6.0000                                         
     3  0  0.50      -114.6929   2.0000                                         
     3  1  1.50       -72.1325   6.0000                                         
     3  2  2.50        -5.0394  10.0000                                         
     4  0  0.50        -4.6097   1.0000                                         
     4  1  0.50        -4.0817   0.0000                                         
     4  3  2.50        -1.3606   0.0000                                         
   Description                                                                  
     l       E           TYP  RCUT    TYP  RCUT                                 
     2     -5.0393973     23  2.200                                             
     2     10.8846608     23  2.200                                             
     0     -4.6097109     23  2.200                                             
     0      8.2520465     23  2.200                                             
     1     -2.7211652     23  2.200                                             
     1     21.7055443     23  2.200                                             
     3      2.7211652     23  2.300                                             
  local pseudopotential read in
  partial core-charges read in
  partial kinetic energy density read in
  atomic valenz-charges read in
  non local Contribution for L=           2  read in
    real space projection operators read in
  non local Contribution for L=           2  read in
    real space projection operators read in
  non local Contribution for L=           0  read in
    real space projection operators read in
  non local Contribution for L=           0  read in
    real space projection operators read in
  non local Contribution for L=           1  read in
    real space projection operators read in
  non local Contribution for L=           1  read in
    real space projection operators read in
    PAW grid and wavefunctions read in
 
   number of l-projection  operators is LMAX  =           6
   number of lm-projection operators is LMMAX =          18
 
 POTCAR:    PAW_PBE Fe 06Sep2000                  
   VRHFIN =Fe:  d7 s1                                                           
   LEXCH  = PE                                                                  
   EATOM  =   594.3153 eV,   43.6809 Ry                                         
                                                                                
   TITEL  = PAW_PBE Fe 06Sep2000                                                
   LULTRA =        F    use ultrasoft PP ?                                      
   IUNSCR =        1    unscreen: 0-lin 1-nonlin 2-no                           
   RPACOR =    2.000    partial core radius                                     
   POMASS =   55.847; ZVAL   =    8.000    mass and valenz                      
   RCORE  =    2.300    outmost cutoff radius                                   
   RWIGS  =    2.460; RWIGS  =    1.302    wigner-seitz radius (au A)           
   ENMAX  =  267.882; ENMIN  =  200.911 eV                                      
   RCLOC  =    1.701    cutoff for local pot                                    
   LCOR   =        T    correct aug charges                                     
   LPAW   =        T    paw PP                                                  
   EAUG   =  511.368                                                            
   DEXC   =    0.000                                                            
   RMAX   =    2.356    core radius for proj-oper                               
   RAUG   =    1.300    factor for augmentation sphere                          
   RDEP   =    2.442    radius for radial grids                                 
   RDEPT  =    1.890    core radius for aug-charge                              
                                                                                
   Atomic configuration                                                         
    9 entries                                                                   
     n  l   j            E        occ.                                          
     1  0  0.50     -6993.8440   2.0000                                         
     2  0  0.50      -814.6047   2.0000                                         
     2  1  1.50      -693.3689   6.0000                                         
     3  0  0.50       -89.4732   2.0000                                         
     3  1  1.50       -55.6373   6.0000                                         
     3  2  2.50        -3.8151   7.0000                                         
     4  0  0.50        -4.2551   1.0000                                         
     4  1  1.50        -3.4015   0.0000                                         
     4  3  2.50        -1.3606   0.0000                                         
   Description                                                                  
     l       E           TYP  RCUT    TYP  RCUT                                 
     2     -3.8151135     23  2.300                                             
     2     -5.1756961     23  2.300                                             
     0     -4.2550963     23  2.300                                             
     0      7.2035603     23  2.300                                             
     1     -2.7211652     23  2.300                                             
     1     18.4316424     23  2.300                                             
  local pseudopotential read in
  partial core-charges read in
  partial kinetic energy density read in
  atomic valenz-charges read in
  non local Contribution for L=           2  read in
    real space projection operators read in
  non local Contribution for L=           2  read in
    real space projection operators read in
  non local Contribution for L=           0  read in
    real space projection operators read in
  non local Contribution for L=           0  read in
    real space projection operators read in
  non local Contribution for L=           1  read in
    real space projection operators read in
  non local Contribution for L=           1  read in
    real space projection operators read in
    PAW grid and wavefunctions read in
 
   number of l-projection  operators is LMAX  =           6
   number of lm-projection operators is LMMAX =          18
 

 ----------------------------------------------------------------------------- 
|                                                                             |
|  ADVICE TO THIS USER RUNNING 'VASP/VAMP'   (HEAR YOUR MASTER'S VOICE ...):  |
|                                                                             |
|      You have a (more or less) 'large supercell' and for larger cells       |
|      it might be more efficient to use real space projection opertators     |
|      So try LREAL= Auto  in the INCAR   file.                               |
|      Mind:          For very  accurate calculation you might also keep the  |
|      reciprocal projection scheme          (i.e. LREAL=.FALSE.)             |
|                                                                             |
 ----------------------------------------------------------------------------- 

  PAW_PBE C 08Apr2002                   :
 energy of atom  1       EATOM= -147.1560
 kinetic energy error for atom=    0.0076 (will be added to EATOM!!)
  PAW_PBE N 08Apr2002                   :
 energy of atom  2       EATOM= -264.5486
 kinetic energy error for atom=    0.0138 (will be added to EATOM!!)
  PAW_PBE Cu 22Jun2005                  :
 energy of atom  3       EATOM=-1390.9808
 kinetic energy error for atom=    0.0043 (will be added to EATOM!!)
  PAW_PBE Fe 06Sep2000                  :
 energy of atom  4       EATOM= -594.3153
 kinetic energy error for atom=    0.0026 (will be added to EATOM!!)
 
 
 POSCAR:  C  N Cu Fe                             
  positions in cartesian coordinates
  No initial velocities read in
 exchange correlation table for  LEXCH =        8
   RHO(1)=    0.500       N(1)  =     2000
   RHO(2)=  100.500       N(2)  =     4000

 VTST: version 3.2, (02/03/18)

 CHAIN: initializing optimizer
 
 OPT: Using VASP Conjugate-Gradient optimizer
 CHAIN: Read ICHAIN            0
 
 POSCAR:  C  N Cu Fe                             
  positions in cartesian coordinates
  No initial velocities read in
 


--------------------------------------------------------------------------------------------------------


 ion  position               nearest neighbor table
   1  0.222  0.998  0.500-  17 1.43   3 1.43   4 1.43
   2  0.055  0.099  0.500-  34 1.43   7 1.43   3 1.44
   3  0.111  0.999  0.500-   1 1.43  15 1.43   2 1.44
   4  0.278  0.097  0.500-   5 1.42  19 1.42   1 1.43
   5  0.222  0.196  0.500-   4 1.42   7 1.43   8 1.44
   6  0.054  0.298  0.500-   7 1.43  38 1.43  10 1.44
   7  0.110  0.198  0.500-   5 1.43   6 1.43   2 1.43
   8  0.280  0.295  0.500-  51 1.42   5 1.44  53 1.44
   9  0.055  0.498  0.500-  42 1.42  10 1.44  12 1.45
  10  0.112  0.398  0.500-  51 1.39   6 1.44   9 1.44
  11  0.057  0.699  0.500-  46 1.43  16 1.43  12 1.45
  12  0.114  0.598  0.500-  52 1.41  11 1.45   9 1.45
  13  0.279  0.699  0.500-  52 1.41  14 1.43  25 1.46
  14  0.223  0.799  0.500-  16 1.42  17 1.43  13 1.43
  15  0.056  0.899  0.500-  50 1.42   3 1.43  16 1.44
  16  0.112  0.799  0.500-  14 1.42  11 1.43  15 1.44
  17  0.278  0.898  0.500-   1 1.43  28 1.43  14 1.43
  18  0.556  0.999  0.500-  30 1.42  20 1.43  21 1.43
  19  0.389  0.098  0.500-   4 1.42  20 1.43  23 1.44
  20  0.444  0.998  0.500-  18 1.43  19 1.43  28 1.43
  21  0.611  0.099  0.500-  22 1.41  32 1.42  18 1.43
  22  0.556  0.197  0.500-  55 1.38  21 1.41  23 1.44
  23  0.444  0.198  0.500-  53 1.42  19 1.44  22 1.44
  24  0.560  0.606  0.500-  56 1.38  26 1.42  54 1.42  58 2.48
  25  0.393  0.697  0.500-  54 1.43  29 1.44  13 1.46
  26  0.614  0.704  0.500-  27 1.41  24 1.42  44 1.42
  27  0.557  0.802  0.500-  26 1.41  29 1.42  30 1.43
  28  0.390  0.899  0.500-  17 1.43  20 1.43  29 1.43
  29  0.446  0.799  0.500-  27 1.42  28 1.43  25 1.44
  30  0.612  0.901  0.500-  18 1.42  48 1.43  27 1.43
  31  0.889  1.000  0.500-  33 1.42  34 1.43  50 1.43
  32  0.722  0.100  0.500-  21 1.42  33 1.43  37 1.43
  33  0.778  0.000  0.500-  31 1.42  48 1.43  32 1.43
  34  0.943  0.100  0.500-   2 1.43  31 1.43  35 1.44
  35  0.887  0.200  0.500-  38 1.43  37 1.44  34 1.44
  36  0.714  0.300  0.500-  55 1.41  37 1.45  41 1.46
  37  0.774  0.201  0.500-  32 1.43  35 1.44  36 1.45
  38  0.942  0.300  0.500-  35 1.43   6 1.43  39 1.44
  39  0.885  0.399  0.500-  38 1.44  41 1.44  42 1.46
  40  0.720  0.504  0.500-  56 1.35  45 1.44  41 1.45
  41  0.772  0.400  0.500-  39 1.44  40 1.45  36 1.46
  42  0.944  0.499  0.500-   9 1.42  43 1.44  39 1.46
  43  0.890  0.600  0.500-  45 1.42  46 1.43  42 1.44
  44  0.725  0.702  0.500-  26 1.42  49 1.42  45 1.43
  45  0.779  0.602  0.500-  43 1.42  44 1.43  40 1.44
  46  0.946  0.699  0.500-  11 1.43  43 1.43  47 1.43
  47  0.891  0.800  0.500-  49 1.42  50 1.43  46 1.43
  48  0.723  0.901  0.500-  30 1.43  33 1.43  49 1.43
  49  0.780  0.801  0.500-  47 1.42  44 1.42  48 1.43
  50  0.945  0.900  0.500-  15 1.42  47 1.43  31 1.43
  51  0.221  0.392  0.500-  10 1.39   8 1.42  57 1.86
  52  0.224  0.601  0.500-  13 1.41  12 1.41  57 1.93
  53  0.392  0.299  0.500-  23 1.42   8 1.44  58 2.03
  54  0.449  0.598  0.500-  24 1.42  25 1.43  57 2.04  58 2.35
  55  0.605  0.296  0.500-  22 1.38  36 1.41  58 1.99
  56  0.615  0.510  0.500-  40 1.35  24 1.38  58 1.86
  57  0.329  0.491  0.500-  51 1.86  52 1.93  54 2.04  58 2.38
  58  0.502  0.416  0.500-  56 1.86  55 1.99  53 2.03  54 2.35  57 2.38  24 2.48
 
  LATTYP: Found a triclinic cell.
 ALAT       =    17.7956132177
 B/A-ratio  =     0.6999814981
 C/A-ratio  =     1.1191297404
 COS(alpha) =     0.0001012291
 COS(beta)  =     0.0004790538
 COS(gamma) =     0.6943836264
  
  Lattice vectors:
  
 A1 = (  12.7093019270, -12.4562231163,   0.0000000000)
 A2 = (  -0.0968980730, -12.4562231163,   0.0000000000)
 A3 = (   0.0112967652,  -0.0021039777, -19.9155966849)


Analysis of symmetry for initial positions (statically):
=====================================================================
 Subroutine PRICEL returns:
 Original cell was already a primitive cell.
 

 Routine SETGRP: Setting up the symmetry group for a 
 triclinic supercell.


 Subroutine GETGRP returns: Found  1 space group operations
 (whereof  1 operations were pure point group operations)
 out of a pool of  2 trial point group operations.


The static configuration has the point symmetry C_1 .


Analysis of symmetry for dynamics (positions and initial velocities):
=====================================================================
 Subroutine PRICEL returns:
 Original cell was already a primitive cell.
 

 Routine SETGRP: Setting up the symmetry group for a 
 triclinic supercell.


 Subroutine GETGRP returns: Found  1 space group operations
 (whereof  1 operations were pure point group operations)
 out of a pool of  2 trial point group operations.


The dynamic configuration has the point symmetry C_1 .


Analysis of structural, dynamic, and magnetic symmetry:
=====================================================================
 Subroutine PRICEL returns:
 Original cell was already a primitive cell.
 

 Routine SETGRP: Setting up the symmetry group for a 
 triclinic supercell.


 Subroutine GETGRP returns: Found  1 space group operations
 (whereof  1 operations were pure point group operations)
 out of a pool of  2 trial point group operations.


The magnetic configuration has the point symmetry C_1 .


 Subroutine INISYM returns: Found  1 space group operations
 (whereof  1 operations are pure point group operations),
 and found     1 'primitive' translations

 
 
 KPOINTS: KPOINTS created by Atomic Simulation Env

Automatic generation of k-mesh.
Space group operators:
 irot       det(A)        alpha          n_x          n_y          n_z        tau_x        tau_y        tau_z
    1     1.000000     0.000000     1.000000     0.000000     0.000000     0.000000     0.000000     0.000000
 
 Subroutine IBZKPT returns following result:
 ===========================================
 
 Found      1 irreducible k-points:
 
 Following reciprocal coordinates:
            Coordinates               Weight
  0.000000  0.000000  0.000000      1.000000
 
 Following cartesian coordinates:
            Coordinates               Weight
  0.000000  0.000000  0.000000      1.000000
 
 
 Subroutine IBZKPT_HF returns following result:
 ==============================================
 
 Found      1 k-points in 1st BZ
 the following      1 k-points will be used (e.g. in the exchange kernel)
 Following reciprocal coordinates:   # in IRBZ
  0.000000  0.000000  0.000000    1.00000000   1 t-inv F


--------------------------------------------------------------------------------------------------------




 Dimension of arrays:
   k-points           NKPTS =      1   k-points in BZ     NKDIM =      1   number of bands    NBANDS=    156
   number of dos      NEDOS =    301   number of ions     NIONS =     58
   non local maximal  LDIM  =      6   non local SUM 2l+1 LMDIM =     18
   total plane-waves  NPLWV = ******
   max r-space proj   IRMAX =      1   max aug-charges    IRDMAX=  15698
   dimension x,y,z NGX =    96 NGY =   96 NGZ =  150
   dimension x,y,z NGXF=   192 NGYF=  192 NGZF=  300
   support grid    NGXF=   192 NGYF=  192 NGZF=  300
   ions per type =              54   2   1   1
   NGX,Y,Z   is equivalent  to a cutoff of  12.46, 12.81, 12.52 a.u.
   NGXF,Y,Z  is equivalent  to a cutoff of  24.92, 25.62, 25.04 a.u.

 SYSTEM =  unknown system                          
 POSCAR =   C  N Cu Fe                             

 Startparameter for this run:
   NWRITE =      2    write-flag & timer
   PREC   = accura    normal or accurate (medium, high low for compatibility)
   ISTART =      1    job   : 0-new  1-cont  2-samecut
   ICHARG =      0    charge: 1-file 2-atom 10-const
   ISPIN  =      2    spin polarized calculation?
   LNONCOLLINEAR =      F non collinear calculations
   LSORBIT =      F    spin-orbit coupling
   INIWAV =      1    electr: 0-lowe 1-rand  2-diag
   LASPH  =      T    aspherical Exc in radial PAW
   METAGGA=      F    non-selfconsistent MetaGGA calc.

 Electronic Relaxation 1
   ENCUT  =  500.0 eV  36.75 Ry    6.06 a.u.  23.35 22.71 36.31*2*pi/ulx,y,z
   ENINI  =  500.0     initial cutoff
   ENAUG  =  644.9 eV  augmentation charge cutoff
   NELM   =    250;   NELMIN=  2; NELMDL=  0     # of ELM steps 
   EDIFF  = 0.1E-03   stopping-criterion for ELM
   LREAL  =      F    real-space projection
   NLSPLINE    = F    spline interpolate recip. space projectors
   LCOMPAT=      F    compatible to vasp.4.4
   GGA_COMPAT  = T    GGA compatible to vasp.4.4-vasp.4.6
   LMAXPAW     = -100 max onsite density
   LMAXMIX     =    2 max onsite mixed and CHGCAR
   VOSKOWN=      0    Vosko Wilk Nusair interpolation
   ROPT   =    0.00000   0.00000   0.00000   0.00000
 Ionic relaxation
   EDIFFG = -.3E-01   stopping-criterion for IOM
   NSW    =      0    number of steps for IOM
   NBLOCK =      1;   KBLOCK =      1    inner block; outer block 
   IBRION =     -1    ionic relax: 0-MD 1-quasi-New 2-CG
   NFREE  =      1    steps in history (QN), initial steepest desc. (CG)
   ISIF   =      2    stress and relaxation
   IWAVPR =     10    prediction:  0-non 1-charg 2-wave 3-comb
   ISYM   =      3    0-nonsym 1-usesym 2-fastsym
   LCORR  =      T    Harris-Foulkes like correction to forces

   POTIM  = 0.5000    time-step for ionic-motion
   TEIN   =    0.0    initial temperature
   TEBEG  =    0.0;   TEEND  =   0.0 temperature during run
   SMASS  =  -3.00    Nose mass-parameter (am)
   estimated Nose-frequenzy (Omega)   =  0.10E-29 period in steps =****** mass=  -0.375E-26a.u.
   SCALEE = 1.0000    scale energy and forces
   NPACO  =    256;   APACO  = 16.0  distance and # of slots for P.C.
   PSTRESS=    0.0 pullay stress

  Mass of Ions in am
   POMASS =  12.01 14.00 63.55 55.85
  Ionic Valenz
   ZVAL   =   4.00  5.00 11.00  8.00
  Atomic Wigner-Seitz radii
   RWIGS  =  -1.00 -1.00 -1.00 -1.00
  virtual crystal weights 
   VCA    =   1.00  1.00  1.00  1.00
   NELECT =     245.0000    total number of electrons
   NUPDOWN=      -1.0000    fix difference up-down

 DOS related values:
   EMIN   =  10.00;   EMAX   =-10.00  energy-range for DOS
   EFERMI =   0.00
   ISMEAR =     0;   SIGMA  =   0.10  broadening in eV -4-tet -1-fermi 0-gaus

 Electronic relaxation 2 (details)
   IALGO  =     53    algorithm
   LDIAG  =      T    sub-space diagonalisation (order eigenvalues)
   LSUBROT=      F    optimize rotation matrix (better conditioning)
   TURBO    =      0    0=normal 1=particle mesh
   IRESTART =      0    0=no restart 2=restart with 2 vectors
   NREBOOT  =      0    no. of reboots
   NMIN     =      0    reboot dimension
   EREF     =   0.00    reference energy to select bands
   IMIX   =      4    mixing-type and parameters
     AMIX     =   0.40;   BMIX     =  1.00
     AMIX_MAG =   1.60;   BMIX_MAG =  1.00
     AMIN     =   0.10
     WC   =   100.;   INIMIX=   1;  MIXPRE=   1;  MAXMIX= -45

 Intra band minimization:
   WEIMIN = 0.0000     energy-eigenvalue tresh-hold
   EBREAK =  0.16E-06  absolut break condition
   DEPER  =   0.30     relativ break condition  

   TIME   =   0.20     timestep for ELM

  volume/ion in A,a.u.               =      54.77       369.63
  Fermi-wavevector in a.u.,A,eV,Ry     =   0.696835  1.316828  6.606711  0.485580
  Thomas-Fermi vector in A             =   1.779996
 
 Write flags
   LWAVE        =      T    write WAVECAR
   LDOWNSAMPLE  =      F    k-point downsampling of WAVECAR
   LCHARG       =      T    write CHGCAR
   LVTOT        =      F    write LOCPOT, total local potential
   LVHAR        =      F    write LOCPOT, Hartree potential only
   LELF         =      F    write electronic localiz. function (ELF)
   LORBIT       =     11    0 simple, 1 ext, 2 COOP (PROOUT), +10 PAW based schemes


 Dipole corrections
   LMONO  =      F    monopole corrections only (constant potential shift)
   LDIPOL =      T    correct potential (dipole corrections)
   IDIPOL =      3    1-x, 2-y, 3-z, 4-all directions 
   EPSILON=  1.0000000 bulk dielectric constant

 Exchange correlation treatment:
   GGA     =    PE    GGA type
   LEXCH   =     8    internal setting for exchange type
   VOSKOWN=      0    Vosko Wilk Nusair interpolation
   EXXOEP  =     0    0=HF, 1=EXX-LHF (local Hartree Fock) 2=EXX OEP
   LHFCALC =     T    Hartree Fock is set to
   LSYMGRAD=     F    symmetrize gradient (conserves proper symmetry)
   PRECFOCK=normal    Normal, Fast or Accurate (Low or Medium for compatibility)
   LRHFCALC=     F    long range Hartree Fock
   LRSCOR  =     F    long range correlation only (use DFT for short range part)
   LTHOMAS =     F    Thomas Fermi screening in HF
   LMODELHF=     F    short range full HF, long range fraction AEXX
   ENCUT4O =  -1.0   cutoff for four orbital integrals eV
   LMAXFOCK=     4    L truncation for augmentation on plane wave grid
   LMAXFOCKAE=  -1    L truncation for all-electron charge restoration on plane wave grid
   NMAXFOCKAE=   1    number of basis functions for all-electron charge restoration
   LFOCKAEDFT=     F  apply the AE augmentation even for DFT
   NKREDX  =     1    reduce k-point grid by
   NKREDY  =     1    reduce k-point grid by
   NKREDZ  =     1    reduce k-point grid by
   SHIFTRED=     F    shift reduced grid of Gamma
   HFKIDENT=     F    idential grid for each k-point
   ODDONLY =     F    use only odd q-grid points
   EVENONLY=     F    use only even q-grid points
   HFALPHA =   -1.0000 decay constant for conv. correction
   MCALPHA =    0.0000 extent of test-charge in conv. correction in multipole expansion
   AEXX    =    0.2500 exact exchange contribution
   HFSCREEN=    0.2000 screening length (either q_TF or 0.3 A-1)
   HFSCREENC=   0.2000 screening length for correlation (either q_TF or 0.3 A-1)
   HFRCUT  =    0.0000 spherical cutoff for potential kernel
   ALDAX   =    0.7500 LDA exchange part
   AGGAX   =    0.7500 GGA exchange part
   ALDAC   =    1.0000 LDA correlation
   AGGAC   =    1.0000 GGA correlation
   ENCUTFOCK=  -1.0 apply spherical cutoff to Coloumb kernel
   NBANDSGWLOW=     1    first orbital included in HF term
   NBLOCK_FOCK=    64    blocking factor in FOCK_ACC
 Linear response parameters
   LEPSILON=     F    determine dielectric tensor
   LRPA    =     F    only Hartree local field effects (RPA)
   LNABLA  =     F    use nabla operator in PAW spheres
   LVEL    =     F    velocity operator in full k-point grid
   LINTERFAST=   F  fast interpolation
   KINTER  =     0    interpolate to denser k-point grid
   CSHIFT  =0.1000    complex shift for real part using Kramers Kronig
   OMEGAMAX=  -1.0    maximum frequency
   DEG_THRESHOLD= 0.2000000E-02 threshold for treating states as degnerate
   RTIME   =   -0.100 relaxation time in fs
  (WPLASMAI=    0.000 imaginary part of plasma frequency in eV, 0.658/RTIME)
   DFIELD  = 0.0000000 0.0000000 0.0000000 field for delta impulse in time
 
 Orbital magnetization related:
   ORBITALMAG=     F  switch on orbital magnetization
   LCHIMAG   =     F  perturbation theory with respect to B field
   DQ        =  0.001000  dq finite difference perturbation B field
   LLRAUG    =     F  two centre corrections for induced B field



--------------------------------------------------------------------------------------------------------


 Static calculation
 charge density and potential will be updated during run
 spin polarized calculation
 Conjugate gradient for all bands (Freysoldt, et al. PRB 79, 241103 (2009))
 perform sub-space diagonalisation
    before iterative eigenvector-optimisation
 modified Broyden-mixing scheme, WC =      100.0
 initial mixing is a Kerker type mixing with AMIX =  0.4000 and BMIX =      1.0000
 Hartree-type preconditioning will be used
 using additional bands           33
 reciprocal scheme for non local part
 use partial core corrections
 no Harris-corrections to forces 
 use gradient corrections 
 use of overlap-Matrix (Vanderbilt PP)
 Gauss-broadening in eV      SIGMA  =   0.10


--------------------------------------------------------------------------------------------------------


  energy-cutoff  :      500.00
  volume of cell :     3176.87
      direct lattice vectors                 reciprocal lattice vectors
    12.806200000  0.000000000  0.000000000     0.078087177 -0.000607447  0.000044358
     0.096898073 12.456223116  0.000000000     0.000000000  0.080281157 -0.000008481
    -0.011296765  0.002103978 19.915596685     0.000000000  0.000000000  0.050211903

  length of vectors
    12.806200000 12.456600000 19.915600000     0.078089552  0.080281157  0.050211903


 
 old parameters found on file WAVECAR:
  energy-cutoff  :      500.00
  volume of cell :     3176.87
      direct lattice vectors                 reciprocal lattice vectors
    12.806200000  0.000000000  0.000000000     0.078087177 -0.000607447  0.000044358
     0.096898073 12.456223116  0.000000000     0.000000000  0.080281157 -0.000008481
    -0.011296765  0.002103978 19.915596685     0.000000000  0.000000000  0.050211903

  length of vectors

 
 k-points in units of 2pi/SCALE and weight: KPOINTS created by Atomic Simulation Env
   0.00000000  0.00000000  0.00000000       1.000
 
 k-points in reciprocal lattice and weights: KPOINTS created by Atomic Simulation Env
   0.00000000  0.00000000  0.00000000       1.000
 
 position of ions in fractional coordinates (direct lattice) 
   0.22225989  0.99787196  0.50001974
   0.05469211  0.09898151  0.49998108
   0.11085348  0.99877911  0.49999945
   0.27762222  0.09720708  0.50005072
   0.22193211  0.19641915  0.50007021
   0.05416509  0.29833728  0.49999178
   0.11035769  0.19841064  0.50000954
   0.27962134  0.29527950  0.50014892
   0.05522070  0.49834222  0.49998990
   0.11181892  0.39754937  0.50001096
   0.05729298  0.69862332  0.49998965
   0.11357276  0.59762719  0.50000120
   0.27936849  0.69861573  0.50006825
   0.22327909  0.79874512  0.50003062
   0.05631881  0.89905469  0.49998930
   0.11214001  0.79852143  0.50000884
   0.27812139  0.89846756  0.50001942
   0.55570788  0.99937033  0.49993162
   0.38878911  0.09796394  0.50006022
   0.44433997  0.99818805  0.49998073
   0.61124472  0.09864958  0.49999098
   0.55613844  0.19736339  0.50013818
   0.44365268  0.19822969  0.50015975
   0.55972698  0.60572398  0.50019015
   0.39309670  0.69728597  0.50010032
   0.61406189  0.70430325  0.50004945
   0.55699364  0.80187957  0.49997034
   0.38954265  0.89856510  0.49999032
   0.44605954  0.79883818  0.50001076
   0.61210565  0.90109988  0.49990094
   0.88935707  0.99990432  0.49993000
   0.72204278  0.09966629  0.49996060
   0.77832005  0.00022118  0.49990109
   0.94327405  0.10005523  0.49995947
   0.88652923  0.20045850  0.49999043
   0.71429807  0.29971627  0.50014848
   0.77427117  0.20080849  0.50003042
   0.94213380  0.29951163  0.50000005
   0.88478009  0.39935146  0.50004073
   0.72009915  0.50390072  0.50017865
   0.77213617  0.40002916  0.50014002
   0.94415996  0.49878050  0.50000134
   0.88977586  0.60008364  0.50000031
   0.72476803  0.70241959  0.50001013
   0.77895166  0.60184582  0.50006017
   0.94584339  0.69935827  0.49997074
   0.89071973  0.80009691  0.49994869
   0.72339715  0.90088599  0.49989070
   0.77978314  0.80130543  0.49993072
   0.94540543  0.89983856  0.49994984
   0.22053271  0.39230596  0.50009085
   0.22371813  0.60134708  0.50005145
   0.39228904  0.29934698  0.50023767
   0.44921816  0.59768668  0.50020863
   0.60454839  0.29557107  0.50022820
   0.61470049  0.50974161  0.50028827
   0.32945803  0.49055671  0.50016073
   0.50170217  0.41649222  0.50031827
 
 position of ions in cartesian coordinates  (Angst):
   2.93734790 12.43076784  9.95819157
   0.70434103  1.23398768  9.95742162
   1.51074317 12.44206740  9.95778731
   3.55905587  1.21188513  9.95880846
   2.85549047  2.44769291  9.95919667
   0.71690898  3.71720770  9.95763462
   1.42683971  2.47249920  9.95798830
   3.60384875  3.67911960  9.96076424
   0.74980750  6.20851388  9.95759723
   1.46484868  4.95301566  9.95801666
   0.79575237  8.70325991  9.95759230
   1.50669596  7.44522967  9.95782225
   3.63969409  8.70316551  9.95915758
   2.93110482  9.95039946  9.95840820
   0.80269830 11.19987773  9.95758526
   1.50781409  9.94761313  9.95797446
   3.64308930 11.19256448  9.95818517
   7.20769566 12.44943168  9.95643652
   4.98275457  1.22131280  9.95899762
   5.78138082 12.43470502  9.95741466
   7.83163284  1.22985313  9.95761866
   7.13549432  2.45945470  9.96055031
   5.69506281  2.47024554  9.96097995
   7.22101857  7.54608546  9.96158532
   5.09599109  8.68660179  9.95979618
   7.92639609  8.77401047  9.95878327
   7.20502454  9.98944272  9.95720758
   5.06998199 11.19377932  9.95760548
   5.78408510  9.95155862  9.95801258
   7.92041497 11.22535288  9.95582546
  11.48052567 12.45608313  9.95640428
   9.25063376  1.24251740  9.95701377
   9.96169642  0.00380679  9.95582846
  12.08380340  1.24736220  9.95699114
  11.36684633  2.49800780  9.95760776
   9.17083586  3.73438500  9.96075534
   9.92928067  2.50236736  9.95840408
  12.08852762  3.73183565  9.95779937
  11.36371829  4.97546293  9.95860950
   9.26491028  6.27775213  9.96135617
   9.92124235  4.98390472  9.96058697
  12.13378376  6.21397313  9.95782501
  11.44714613  7.47582766  9.95780442
   9.34393893  8.75054720  9.95800019
  10.02807940  7.49777796  9.95899665
  12.17477808  8.71241462  9.95721560
  11.47861509  9.96723752  9.95677647
   9.34561550 11.22268859  9.95562149
  10.05805619  9.98229104  9.95641860
  12.18859576 11.20964175  9.95679938
   2.85655031  4.88770277  9.95960762
   2.91759948  7.49156545  9.95882310
   5.04708703  3.72978531  9.96253165
   5.80504149  7.44597113  9.96195326
   7.76495693  3.68275170  9.96234306
   7.91571876  6.35050780  9.96353947
   4.26098928  6.11153616  9.96099933
   6.45960358  5.18897263  9.96413695
 


--------------------------------------------------------------------------------------------------------


 k-point  1 :   0.0000 0.0000 0.0000  plane waves:   80685

 maximum and minimum number of plane-waves per node :      2528     2515

 maximum number of plane-waves:     80685
 maximum index in each direction: 
   IXMAX=   23   IYMAX=   22   IZMAX=   36
   IXMIN=  -23   IYMIN=  -22   IZMIN=  -36


 parallel 3D FFT for wavefunctions:
    minimum data exchange during FFTs selected (reduces bandwidth)
 parallel 3D FFT for charge:
    minimum data exchange during FFTs selected (reduces bandwidth)


 FFT grid for exact exchange (Hartree Fock) 
  NGX = 72; NGY = 70; NGZ =112

 
 Radii for the augmentation spheres in the non-local exchange
 for species   1 augmentation radius   0.874 (default was   0.699)
       energy cutoff for augmentation   2000.0
 for species   2 augmentation radius   0.886 (default was   0.709)
       energy cutoff for augmentation   2000.0
 for species   3 augmentation radius   1.179 (default was   0.943)
       energy cutoff for augmentation   2000.0
 for species   4 augmentation radius   1.263 (default was   1.010)
       energy cutoff for augmentation   2000.0

 real space projection operators:
  total allocation   :       2432.30 KBytes
  max/ min on nodes  :        115.34         42.33

 Maximum index for augmentation-charges in exchange          104
  SETUP_FOCK is finished

 total amount of memory used by VASP MPI-rank0   124633. kBytes
=======================================================================

   base      :      30000. kBytes
   nonl-proj :       3782. kBytes
   fftplans  :      14253. kBytes
   grid      :      36827. kBytes
   one-center:         62. kBytes
   HF        :         23. kBytes
   nonlr-proj:       1634. kBytes
   wavefun   :      38052. kBytes
 
     INWAV:  cpu time    1.7736: real time    1.7740
 Broyden mixing: mesh for mixing (old mesh)
   NGX = 47   NGY = 45   NGZ = 73
  (NGX  =192   NGY  =192   NGZ  =300)
  gives a total of 154395 points

 charge density for first step will be calculated from the start-wavefunctions


--------------------------------------------------------------------------------------------------------


 Maximum index for augmentation-charges          744 (set IRDMAX)


--------------------------------------------------------------------------------------------------------


 initial charge from wavefunction
 First call to EWALD:  gamma=   0.121
 Maximum number of real-space cells 3x 3x 2
 Maximum number of reciprocal cells 2x 2x 4

    FEWALD:  cpu time    0.0036: real time    0.0036


--------------------------------------- Iteration      1(   1)  ---------------------------------------


    POTLOK:  cpu time    1.3822: real time    1.3858
    SETDIJ:  cpu time    2.0734: real time    2.0955
    TRIAL :  cpu time   62.6827: real time   62.7125
    CORREC:  cpu time    0.0010: real time    0.0013
    CHARGE:  cpu time    0.1892: real time    0.1892
    --------------------------------------------
      LOOP:  cpu time   66.3356: real time   66.3975

 eigenvalue-minimisations  :     0
 total energy-change (2. order) :-0.5709038E+03  (-0.7969815E+01)
 number of electron     245.0000004 magnetization       1.0064416
 augmentation part       16.6509043 magnetization       1.2387559

 DIPCOR: dipole corrections for dipol
 direction  3 min pos     1,
 dipolmoment           0.000000     -0.000000     -0.000322 electrons x Angstroem
 Tr[quadrupol]     -6676.987270

 energy correction for charged system         0.000000 eV
 dipol+quadrupol energy correction            0.000000 eV
 added-field ion interaction          0.000000 eV  (added to PSCEN)


 Free energy of the ion-electron system (eV)
  ---------------------------------------------------
  alpha Z        PSCENC =       100.63796660
  Ewald energy   TEWEN  =     39094.00004635
  -Hartree energ DENC   =    -48044.63235167
  -exchange      EXHF   =       554.62898610
  -V(xc)+E(xc)   XCENC  =       635.78849320
  PAW double counting   =     28245.18170889   -28381.02896629
  entropy T*S    EENTRO =        -0.00138681
  eigenvalues    EBANDS =     -3127.71256659
  atomic energy  EATOM  =     10352.23585582
  ---------------------------------------------------
  free energy    TOTEN  =      -570.90380275 eV

  energy without entropy =     -570.90241594  energy(sigma->0) =     -570.90310934
  exchange ACFDT corr.  =        -0.00614532  see jH, gK, PRB 81, 115126


--------------------------------------------------------------------------------------------------------




--------------------------------------- Iteration      1(   2)  ---------------------------------------


    POTLOK:  cpu time    1.4075: real time    1.4076
    SETDIJ:  cpu time    2.0849: real time    2.0850
    TRIAL :  cpu time   63.0140: real time   63.0204
    CORREC:  cpu time    0.0011: real time    0.0015
    CHARGE:  cpu time    0.1888: real time    0.1888
    --------------------------------------------
      LOOP:  cpu time   66.6992: real time   66.7102

 eigenvalue-minimisations  :     0
 total energy-change (2. order) :-0.7098994E+01  (-0.8881259E+01)
 number of electron     245.0000004 magnetization       1.0065276
 augmentation part       16.5598315 magnetization       1.2846584

 DIPCOR: dipole corrections for dipol
 direction  3 min pos     1,
 dipolmoment          -0.000000      0.000000      0.000120 electrons x Angstroem
 Tr[quadrupol]     -6676.823915

 energy correction for charged system         0.000000 eV
 dipol+quadrupol energy correction            0.000000 eV
 added-field ion interaction          0.000000 eV  (added to PSCEN)


 Free energy of the ion-electron system (eV)
  ---------------------------------------------------
  alpha Z        PSCENC =       100.63796660
  Ewald energy   TEWEN  =     39094.00004635
  -Hartree energ DENC   =    -48040.32111211
  -exchange      EXHF   =       554.58344610
  -V(xc)+E(xc)   XCENC  =       635.59383960
  PAW double counting   =     27964.68433098   -28102.92823481
  entropy T*S    EENTRO =        -0.00139661
  eigenvalues    EBANDS =     -3136.48754827
  atomic energy  EATOM  =     10352.23585582
  ---------------------------------------------------
  free energy    TOTEN  =      -578.00279654 eV

  energy without entropy =     -578.00139992  energy(sigma->0) =     -578.00209823
  exchange ACFDT corr.  =        -0.00251656  see jH, gK, PRB 81, 115126


--------------------------------------------------------------------------------------------------------




--------------------------------------- Iteration      1(   3)  ---------------------------------------


    POTLOK:  cpu time    1.4072: real time    1.4073
    SETDIJ:  cpu time    2.0935: real time    2.0935
    TRIAL :  cpu time   62.9736: real time   62.9795
    CORREC:  cpu time    0.0010: real time    0.0014
    CHARGE:  cpu time    0.1884: real time    0.1884
    --------------------------------------------
      LOOP:  cpu time   66.6663: real time   66.6727

 eigenvalue-minimisations  :     0
 total energy-change (2. order) :-0.7569740E+01  (-0.6474421E+01)
 number of electron     245.0000004 magnetization       1.0056228
 augmentation part       16.5257317 magnetization       1.3168085

 DIPCOR: dipole corrections for dipol
 direction  3 min pos     1,
 dipolmoment           0.000000     -0.000000     -0.000081 electrons x Angstroem
 Tr[quadrupol]     -6676.566550

 energy correction for charged system         0.000000 eV
 dipol+quadrupol energy correction            0.000000 eV
 added-field ion interaction          0.000000 eV  (added to PSCEN)


 Free energy of the ion-electron system (eV)
  ---------------------------------------------------
  alpha Z        PSCENC =       100.63796660
  Ewald energy   TEWEN  =     39094.00004635
  -Hartree energ DENC   =    -48015.72028094
  -exchange      EXHF   =       554.28785330
  -V(xc)+E(xc)   XCENC  =       635.01327774
  PAW double counting   =     27615.32363275   -27751.56067129
  entropy T*S    EENTRO =        -0.00122039
  eigenvalues    EBANDS =     -3169.78882071
  atomic energy  EATOM  =     10352.23585582
  ---------------------------------------------------
  free energy    TOTEN  =      -585.57253700 eV

  energy without entropy =     -585.57131661  energy(sigma->0) =     -585.57192680
  exchange ACFDT corr.  =        -0.00223464  see jH, gK, PRB 81, 115126


--------------------------------------------------------------------------------------------------------




--------------------------------------- Iteration      1(   4)  ---------------------------------------


    POTLOK:  cpu time    1.4089: real time    1.4089
    SETDIJ:  cpu time    2.0924: real time    2.0924
    TRIAL :  cpu time   63.0028: real time   63.0085
    CORREC:  cpu time    0.0010: real time    0.0012
    CHARGE:  cpu time    0.1882: real time    0.1882
    --------------------------------------------
      LOOP:  cpu time   66.6953: real time   66.7013

 eigenvalue-minimisations  :     0
 total energy-change (2. order) :-0.5391134E+01  (-0.4016004E+01)
 number of electron     245.0000004 magnetization       1.0046385
 augmentation part       16.5694488 magnetization       1.3395617

 DIPCOR: dipole corrections for dipol
 direction  3 min pos     1,
 dipolmoment           0.000000     -0.000000     -0.000102 electrons x Angstroem
 Tr[quadrupol]     -6676.480865

 energy correction for charged system         0.000000 eV
 dipol+quadrupol energy correction            0.000000 eV
 added-field ion interaction          0.000000 eV  (added to PSCEN)


 Free energy of the ion-electron system (eV)
  ---------------------------------------------------
  alpha Z        PSCENC =       100.63796660
  Ewald energy   TEWEN  =     39094.00004635
  -Hartree energ DENC   =    -48005.46590294
  -exchange      EXHF   =       554.27928704
  -V(xc)+E(xc)   XCENC  =       634.74338747
  PAW double counting   =     27348.41560195   -27483.38159703
  entropy T*S    EENTRO =        -0.00102547
  eigenvalues    EBANDS =     -3186.42709541
  atomic energy  EATOM  =     10352.23585582
  ---------------------------------------------------
  free energy    TOTEN  =      -590.96367054 eV

  energy without entropy =     -590.96264508  energy(sigma->0) =     -590.96315781
  exchange ACFDT corr.  =        -0.00174475  see jH, gK, PRB 81, 115126


--------------------------------------------------------------------------------------------------------




--------------------------------------- Iteration      1(   5)  ---------------------------------------


    POTLOK:  cpu time    1.4102: real time    1.4103
    SETDIJ:  cpu time    2.0845: real time    2.0846
    TRIAL :  cpu time   62.5922: real time   62.6049
    CORREC:  cpu time    0.0011: real time    0.0013
    CHARGE:  cpu time    0.1887: real time    0.1887
    --------------------------------------------
      LOOP:  cpu time   66.2793: real time   66.2925

 eigenvalue-minimisations  :     0
 total energy-change (2. order) :-0.3313787E+01  (-0.2363091E+01)
 number of electron     245.0000004 magnetization       1.0044488
 augmentation part       16.5759555 magnetization       1.3634649

 DIPCOR: dipole corrections for dipol
 direction  3 min pos     1,
 dipolmoment           0.000000     -0.000000     -0.000063 electrons x Angstroem
 Tr[quadrupol]     -6676.563032

 energy correction for charged system         0.000000 eV
 dipol+quadrupol energy correction            0.000000 eV
 added-field ion interaction          0.000000 eV  (added to PSCEN)


 Free energy of the ion-electron system (eV)
  ---------------------------------------------------
  alpha Z        PSCENC =       100.63796660
  Ewald energy   TEWEN  =     39094.00004635
  -Hartree energ DENC   =    -48012.96833951
  -exchange      EXHF   =       554.63721667
  -V(xc)+E(xc)   XCENC  =       634.93029810
  PAW double counting   =     27196.41108540   -27332.38955973
  entropy T*S    EENTRO =        -0.00098740
  eigenvalues    EBANDS =     -3181.77100198
  atomic energy  EATOM  =     10352.23585582
  ---------------------------------------------------
  free energy    TOTEN  =      -594.27745775 eV

  energy without entropy =     -594.27647036  energy(sigma->0) =     -594.27696406
  exchange ACFDT corr.  =        -0.00133050  see jH, gK, PRB 81, 115126


--------------------------------------------------------------------------------------------------------




--------------------------------------- Iteration      1(   6)  ---------------------------------------


    POTLOK:  cpu time    1.4084: real time    1.4084
    SETDIJ:  cpu time    2.0940: real time    2.0942
    TRIAL :  cpu time   62.5997: real time   62.6062
    CORREC:  cpu time    0.0011: real time    0.0014
    CHARGE:  cpu time    0.1884: real time    0.1884
    --------------------------------------------
      LOOP:  cpu time   66.2939: real time   66.3009

 eigenvalue-minimisations  :     0
 total energy-change (2. order) :-0.1963148E+01  (-0.1412557E+01)
 number of electron     245.0000003 magnetization       1.0038158
 augmentation part       16.5671346 magnetization       1.3820537

 DIPCOR: dipole corrections for dipol
 direction  3 min pos     1,
 dipolmoment           0.000000     -0.000000     -0.000157 electrons x Angstroem
 Tr[quadrupol]     -6676.666219

 energy correction for charged system         0.000000 eV
 dipol+quadrupol energy correction            0.000000 eV
 added-field ion interaction          0.000000 eV  (added to PSCEN)


 Free energy of the ion-electron system (eV)
  ---------------------------------------------------
  alpha Z        PSCENC =       100.63796660
  Ewald energy   TEWEN  =     39094.00004635
  -Hartree energ DENC   =    -48019.84078725
  -exchange      EXHF   =       555.01573651
  -V(xc)+E(xc)   XCENC  =       635.15010616
  PAW double counting   =     27127.21815465   -27263.31731708
  entropy T*S    EENTRO =        -0.00085901
  eigenvalues    EBANDS =     -3177.33938030
  atomic energy  EATOM  =     10352.23585582
  ---------------------------------------------------
  free energy    TOTEN  =      -596.24060594 eV

  energy without entropy =     -596.23974694  energy(sigma->0) =     -596.24017644
  exchange ACFDT corr.  =        -0.00117357  see jH, gK, PRB 81, 115126


--------------------------------------------------------------------------------------------------------




--------------------------------------- Iteration      1(   7)  ---------------------------------------


    POTLOK:  cpu time    1.4142: real time    1.4143
    SETDIJ:  cpu time    2.0909: real time    2.0909
    TRIAL :  cpu time   62.2448: real time   62.2569
    CORREC:  cpu time    0.0011: real time    0.0013
    CHARGE:  cpu time    0.1869: real time    0.1869
    --------------------------------------------
      LOOP:  cpu time   65.9407: real time   65.9533

 eigenvalue-minimisations  :     0
 total energy-change (2. order) :-0.1182971E+01  (-0.8587711E+00)
 number of electron     245.0000003 magnetization       1.0027699
 augmentation part       16.5845493 magnetization       1.3958713

 DIPCOR: dipole corrections for dipol
 direction  3 min pos     1,
 dipolmoment           0.000000     -0.000000     -0.000238 electrons x Angstroem
 Tr[quadrupol]     -6676.731191

 energy correction for charged system         0.000000 eV
 dipol+quadrupol energy correction            0.000000 eV
 added-field ion interaction          0.000000 eV  (added to PSCEN)


 Free energy of the ion-electron system (eV)
  ---------------------------------------------------
  alpha Z        PSCENC =       100.63796660
  Ewald energy   TEWEN  =     39094.00004635
  -Hartree energ DENC   =    -48023.15381533
  -exchange      EXHF   =       555.29321627
  -V(xc)+E(xc)   XCENC  =       635.28301075
  PAW double counting   =     27107.91099911   -27243.46847464
  entropy T*S    EENTRO =        -0.00064157
  eigenvalues    EBANDS =     -3176.16152274
  atomic energy  EATOM  =     10352.23585582
  ---------------------------------------------------
  free energy    TOTEN  =      -597.42357682 eV

  energy without entropy =     -597.42293525  energy(sigma->0) =     -597.42325603
  exchange ACFDT corr.  =        -0.00093851  see jH, gK, PRB 81, 115126


--------------------------------------------------------------------------------------------------------




--------------------------------------- Iteration      1(   8)  ---------------------------------------


    POTLOK:  cpu time    1.4082: real time    1.4082
    SETDIJ:  cpu time    2.0906: real time    2.0907
    TRIAL :  cpu time   62.3438: real time   62.3493
    CORREC:  cpu time    0.0010: real time    0.0012
    CHARGE:  cpu time    0.1876: real time    0.1876
    --------------------------------------------
      LOOP:  cpu time   66.0339: real time   66.0397

 eigenvalue-minimisations  :     0
 total energy-change (2. order) :-0.7270628E+00  (-0.5325816E+00)
 number of electron     245.0000003 magnetization       1.0018850
 augmentation part       16.5975786 magnetization       1.4084786

 DIPCOR: dipole corrections for dipol
 direction  3 min pos     1,
 dipolmoment           0.000000     -0.000000     -0.000240 electrons x Angstroem
 Tr[quadrupol]     -6676.759779

 energy correction for charged system         0.000000 eV
 dipol+quadrupol energy correction            0.000000 eV
 added-field ion interaction          0.000000 eV  (added to PSCEN)


 Free energy of the ion-electron system (eV)
  ---------------------------------------------------
  alpha Z        PSCENC =       100.63796660
  Ewald energy   TEWEN  =     39094.00004635
  -Hartree energ DENC   =    -48026.43266774
  -exchange      EXHF   =       555.51170496
  -V(xc)+E(xc)   XCENC  =       635.40895618
  PAW double counting   =     27113.69583414   -27249.55946898
  entropy T*S    EENTRO =        -0.00045094
  eigenvalues    EBANDS =     -3173.64822543
  atomic energy  EATOM  =     10352.23585582
  ---------------------------------------------------
  free energy    TOTEN  =      -598.15063966 eV

  energy without entropy =     -598.15018873  energy(sigma->0) =     -598.15041419
  exchange ACFDT corr.  =        -0.00064583  see jH, gK, PRB 81, 115126


--------------------------------------------------------------------------------------------------------




--------------------------------------- Iteration      1(   9)  ---------------------------------------


    POTLOK:  cpu time    1.4050: real time    1.4051
    SETDIJ:  cpu time    2.0839: real time    2.0839
    TRIAL :  cpu time   61.9777: real time   61.9838
    CORREC:  cpu time    0.0010: real time    0.0014
    CHARGE:  cpu time    0.1867: real time    0.1867
    --------------------------------------------
      LOOP:  cpu time   65.6570: real time   65.6635

 eigenvalue-minimisations  :     0
 total energy-change (2. order) :-0.4539311E+00  (-0.3389531E+00)
 number of electron     245.0000003 magnetization       1.0012493
 augmentation part       16.5951995 magnetization       1.4203795

 DIPCOR: dipole corrections for dipol
 direction  3 min pos     1,
 dipolmoment           0.000000     -0.000000     -0.000235 electrons x Angstroem
 Tr[quadrupol]     -6676.756632

 energy correction for charged system         0.000000 eV
 dipol+quadrupol energy correction            0.000000 eV
 added-field ion interaction          0.000000 eV  (added to PSCEN)


 Free energy of the ion-electron system (eV)
  ---------------------------------------------------
  alpha Z        PSCENC =       100.63796660
  Ewald energy   TEWEN  =     39094.00004635
  -Hartree energ DENC   =    -48027.22732837
  -exchange      EXHF   =       555.64251888
  -V(xc)+E(xc)   XCENC  =       635.46872874
  PAW double counting   =     27127.50357381   -27263.63886422
  entropy T*S    EENTRO =        -0.00030870
  eigenvalues    EBANDS =     -3173.22661740
  atomic energy  EATOM  =     10352.23585582
  ---------------------------------------------------
  free energy    TOTEN  =      -598.60457073 eV

  energy without entropy =     -598.60426203  energy(sigma->0) =     -598.60441638
  exchange ACFDT corr.  =        -0.00042033  see jH, gK, PRB 81, 115126


--------------------------------------------------------------------------------------------------------




--------------------------------------- Iteration      1(  10)  ---------------------------------------


    POTLOK:  cpu time    1.4033: real time    1.4034
    SETDIJ:  cpu time    2.0900: real time    2.0901
    TRIAL :  cpu time   62.0454: real time   62.0608
    CORREC:  cpu time    0.0010: real time    0.0013
    CHARGE:  cpu time    0.1868: real time    0.1868
    --------------------------------------------
      LOOP:  cpu time   65.7289: real time   65.7449

 eigenvalue-minimisations  :     0
 total energy-change (2. order) :-0.2906977E+00  (-0.2166242E+00)
 number of electron     245.0000003 magnetization       1.0008012
 augmentation part       16.5987497 magnetization       1.4308961

 DIPCOR: dipole corrections for dipol
 direction  3 min pos     1,
 dipolmoment           0.000000     -0.000000     -0.000238 electrons x Angstroem
 Tr[quadrupol]     -6676.740302

 energy correction for charged system         0.000000 eV
 dipol+quadrupol energy correction            0.000000 eV
 added-field ion interaction          0.000000 eV  (added to PSCEN)


 Free energy of the ion-electron system (eV)
  ---------------------------------------------------
  alpha Z        PSCENC =       100.63796660
  Ewald energy   TEWEN  =     39094.00004635
  -Hartree energ DENC   =    -48025.64855882
  -exchange      EXHF   =       555.70325552
  -V(xc)+E(xc)   XCENC  =       635.46084357
  PAW double counting   =     27142.08540635   -27278.03951281
  entropy T*S    EENTRO =        -0.00020461
  eigenvalues    EBANDS =     -3175.33026232
  atomic energy  EATOM  =     10352.23585582
  ---------------------------------------------------
  free energy    TOTEN  =      -598.89526844 eV

  energy without entropy =     -598.89506383  energy(sigma->0) =     -598.89516613
  exchange ACFDT corr.  =        -0.00026831  see jH, gK, PRB 81, 115126


--------------------------------------------------------------------------------------------------------




--------------------------------------- Iteration      1(  11)  ---------------------------------------


    POTLOK:  cpu time    1.4005: real time    1.4006
    SETDIJ:  cpu time    2.1186: real time    2.1187
    TRIAL :  cpu time   62.0113: real time   62.0215
    CORREC:  cpu time    0.0010: real time    0.0012
    CHARGE:  cpu time    0.1874: real time    0.1875
    --------------------------------------------
      LOOP:  cpu time   65.7216: real time   65.7322

 eigenvalue-minimisations  :     0
 total energy-change (2. order) :-0.1877237E+00  (-0.1415736E+00)
 number of electron     245.0000003 magnetization       1.0005033
 augmentation part       16.6042866 magnetization       1.4400000

 DIPCOR: dipole corrections for dipol
 direction  3 min pos     1,
 dipolmoment           0.000000     -0.000000     -0.000254 electrons x Angstroem
 Tr[quadrupol]     -6676.733127

 energy correction for charged system         0.000000 eV
 dipol+quadrupol energy correction            0.000000 eV
 added-field ion interaction          0.000000 eV  (added to PSCEN)


 Free energy of the ion-electron system (eV)
  ---------------------------------------------------
  alpha Z        PSCENC =       100.63796660
  Ewald energy   TEWEN  =     39094.00004635
  -Hartree energ DENC   =    -48025.09973417
  -exchange      EXHF   =       555.76494978
  -V(xc)+E(xc)   XCENC  =       635.47060024
  PAW double counting   =     27155.57141003   -27291.59337208
  entropy T*S    EENTRO =        -0.00013275
  eigenvalues    EBANDS =     -3176.07051009
  atomic energy  EATOM  =     10352.23585582
  ---------------------------------------------------
  free energy    TOTEN  =      -599.08299212 eV

  energy without entropy =     -599.08285938  energy(sigma->0) =     -599.08292575
  exchange ACFDT corr.  =        -0.00016702  see jH, gK, PRB 81, 115126


--------------------------------------------------------------------------------------------------------




--------------------------------------- Iteration      1(  12)  ---------------------------------------


    POTLOK:  cpu time    1.4026: real time    1.4028
    SETDIJ:  cpu time    2.0926: real time    2.0926
    TRIAL :  cpu time   62.0265: real time   62.0321
    CORREC:  cpu time    0.0009: real time    0.0013
    CHARGE:  cpu time    0.1871: real time    0.1871
    --------------------------------------------
      LOOP:  cpu time   65.7119: real time   65.7181

 eigenvalue-minimisations  :     0
 total energy-change (2. order) :-0.1239434E+00  (-0.9545295E-01)
 number of electron     245.0000003 magnetization       1.0003166
 augmentation part       16.6050711 magnetization       1.4477270

 DIPCOR: dipole corrections for dipol
 direction  3 min pos     1,
 dipolmoment           0.000000     -0.000000     -0.000271 electrons x Angstroem
 Tr[quadrupol]     -6676.734218

 energy correction for charged system         0.000000 eV
 dipol+quadrupol energy correction            0.000000 eV
 added-field ion interaction          0.000000 eV  (added to PSCEN)


 Free energy of the ion-electron system (eV)
  ---------------------------------------------------
  alpha Z        PSCENC =       100.63796660
  Ewald energy   TEWEN  =     39094.00004635
  -Hartree energ DENC   =    -48025.23198282
  -exchange      EXHF   =       555.82781804
  -V(xc)+E(xc)   XCENC  =       635.48927090
  PAW double counting   =     27166.66049750   -27302.81332673
  entropy T*S    EENTRO =        -0.00008606
  eigenvalues    EBANDS =     -3176.01294842
  atomic energy  EATOM  =     10352.23585582
  ---------------------------------------------------
  free energy    TOTEN  =      -599.20693551 eV

  energy without entropy =     -599.20684946  energy(sigma->0) =     -599.20689248
  exchange ACFDT corr.  =        -0.00010250  see jH, gK, PRB 81, 115126


--------------------------------------------------------------------------------------------------------




--------------------------------------- Iteration      1(  13)  ---------------------------------------


    POTLOK:  cpu time    1.3958: real time    1.3959
    SETDIJ:  cpu time    2.0854: real time    2.0855
    TRIAL :  cpu time   61.9633: real time   61.9686
    CORREC:  cpu time    0.0010: real time    0.0013
    CHARGE:  cpu time    0.1864: real time    0.1865
    --------------------------------------------
      LOOP:  cpu time   65.6344: real time   65.6403

 eigenvalue-minimisations  :     0
 total energy-change (2. order) :-0.8441250E-01  (-0.6584917E-01)
 number of electron     245.0000003 magnetization       1.0002017
 augmentation part       16.6067105 magnetization       1.4540130

 DIPCOR: dipole corrections for dipol
 direction  3 min pos     1,
 dipolmoment           0.000000     -0.000000     -0.000296 electrons x Angstroem
 Tr[quadrupol]     -6676.737095

 energy correction for charged system         0.000000 eV
 dipol+quadrupol energy correction            0.000000 eV
 added-field ion interaction          0.000000 eV  (added to PSCEN)


 Free energy of the ion-electron system (eV)
  ---------------------------------------------------
  alpha Z        PSCENC =       100.63796660
  Ewald energy   TEWEN  =     39094.00004635
  -Hartree energ DENC   =    -48025.12957599
  -exchange      EXHF   =       555.88091734
  -V(xc)+E(xc)   XCENC  =       635.49720592
  PAW double counting   =     27174.84344934   -27310.96517810
  entropy T*S    EENTRO =        -0.00005638
  eigenvalues    EBANDS =     -3176.29194923
  atomic energy  EATOM  =     10352.23585582
  ---------------------------------------------------
  free energy    TOTEN  =      -599.29134801 eV

  energy without entropy =     -599.29129163  energy(sigma->0) =     -599.29131982
  exchange ACFDT corr.  =        -0.00006328  see jH, gK, PRB 81, 115126


--------------------------------------------------------------------------------------------------------




--------------------------------------- Iteration      1(  14)  ---------------------------------------


    POTLOK:  cpu time    1.3935: real time    1.3936
    SETDIJ:  cpu time    2.0886: real time    2.0886
    TRIAL :  cpu time   61.8972: real time   61.9155
    CORREC:  cpu time    0.0010: real time    0.0012
    CHARGE:  cpu time    0.1872: real time    0.1872
    --------------------------------------------
      LOOP:  cpu time   65.5707: real time   65.5894

 eigenvalue-minimisations  :     0
 total energy-change (2. order) :-0.5902622E-01  (-0.4722608E-01)
 number of electron     245.0000003 magnetization       1.0001308
 augmentation part       16.6082855 magnetization       1.4591174

 DIPCOR: dipole corrections for dipol
 direction  3 min pos     1,
 dipolmoment           0.000000     -0.000000     -0.000304 electrons x Angstroem
 Tr[quadrupol]     -6676.740457

 energy correction for charged system         0.000000 eV
 dipol+quadrupol energy correction            0.000000 eV
 added-field ion interaction          0.000000 eV  (added to PSCEN)


 Free energy of the ion-electron system (eV)
  ---------------------------------------------------
  alpha Z        PSCENC =       100.63796660
  Ewald energy   TEWEN  =     39094.00004635
  -Hartree energ DENC   =    -48025.29694443
  -exchange      EXHF   =       555.93573857
  -V(xc)+E(xc)   XCENC  =       635.51220305
  PAW double counting   =     27180.32609768   -27316.48496850
  entropy T*S    EENTRO =        -0.00003748
  eigenvalues    EBANDS =     -3176.21631299
  atomic energy  EATOM  =     10352.23585582
  ---------------------------------------------------
  free energy    TOTEN  =      -599.35037423 eV

  energy without entropy =     -599.35033675  energy(sigma->0) =     -599.35035549
  exchange ACFDT corr.  =        -0.00003974  see jH, gK, PRB 81, 115126


--------------------------------------------------------------------------------------------------------




--------------------------------------- Iteration      1(  15)  ---------------------------------------


    POTLOK:  cpu time    1.3916: real time    1.3917
    SETDIJ:  cpu time    2.0895: real time    2.0896
    TRIAL :  cpu time   62.0299: real time   62.0356
    CORREC:  cpu time    0.0008: real time    0.0011
    CHARGE:  cpu time    0.1866: real time    0.1866
    --------------------------------------------
      LOOP:  cpu time   65.7008: real time   65.7070

 eigenvalue-minimisations  :     0
 total energy-change (2. order) :-0.4285427E-01  (-0.3515790E-01)
 number of electron     245.0000003 magnetization       1.0000867
 augmentation part       16.6086790 magnetization       1.4632863

 DIPCOR: dipole corrections for dipol
 direction  3 min pos     1,
 dipolmoment           0.000000     -0.000000     -0.000299 electrons x Angstroem
 Tr[quadrupol]     -6676.742455

 energy correction for charged system         0.000000 eV
 dipol+quadrupol energy correction            0.000000 eV
 added-field ion interaction          0.000000 eV  (added to PSCEN)


 Free energy of the ion-electron system (eV)
  ---------------------------------------------------
  alpha Z        PSCENC =       100.63796660
  Ewald energy   TEWEN  =     39094.00004635
  -Hartree energ DENC   =    -48025.45316845
  -exchange      EXHF   =       555.98560980
  -V(xc)+E(xc)   XCENC  =       635.52652931
  PAW double counting   =     27183.38634779   -27319.58735444
  entropy T*S    EENTRO =        -0.00002539
  eigenvalues    EBANDS =     -3176.12502379
  atomic energy  EATOM  =     10352.23585582
  ---------------------------------------------------
  free energy    TOTEN  =      -599.39322849 eV

  energy without entropy =     -599.39320310  energy(sigma->0) =     -599.39321580
  exchange ACFDT corr.  =        -0.00002546  see jH, gK, PRB 81, 115126


--------------------------------------------------------------------------------------------------------




--------------------------------------- Iteration      1(  16)  ---------------------------------------


    POTLOK:  cpu time    1.3883: real time    1.3883
    SETDIJ:  cpu time    2.0937: real time    2.0938
    TRIAL :  cpu time   61.9214: real time   61.9330
    CORREC:  cpu time    0.0009: real time    0.0013
    CHARGE:  cpu time    0.1871: real time    0.1871
    --------------------------------------------
      LOOP:  cpu time   65.5942: real time   65.6063

 eigenvalue-minimisations  :     0
 total energy-change (2. order) :-0.3219726E-01  (-0.2677211E-01)
 number of electron     245.0000003 magnetization       1.0000590
 augmentation part       16.6095765 magnetization       1.4666992

 DIPCOR: dipole corrections for dipol
 direction  3 min pos     1,
 dipolmoment           0.000000     -0.000000     -0.000297 electrons x Angstroem
 Tr[quadrupol]     -6676.742657

 energy correction for charged system         0.000000 eV
 dipol+quadrupol energy correction            0.000000 eV
 added-field ion interaction          0.000000 eV  (added to PSCEN)


 Free energy of the ion-electron system (eV)
  ---------------------------------------------------
  alpha Z        PSCENC =       100.63796660
  Ewald energy   TEWEN  =     39094.00004635
  -Hartree energ DENC   =    -48025.41896249
  -exchange      EXHF   =       556.02655865
  -V(xc)+E(xc)   XCENC  =       635.53484558
  PAW double counting   =     27184.65597986   -27320.85052392
  entropy T*S    EENTRO =        -0.00001763
  eigenvalues    EBANDS =     -3176.24716679
  atomic energy  EATOM  =     10352.23585582
  ---------------------------------------------------
  free energy    TOTEN  =      -599.42542575 eV

  energy without entropy =     -599.42540813  energy(sigma->0) =     -599.42541694
  exchange ACFDT corr.  =        -0.00001670  see jH, gK, PRB 81, 115126


--------------------------------------------------------------------------------------------------------




--------------------------------------- Iteration      1(  17)  ---------------------------------------


    POTLOK:  cpu time    1.3843: real time    1.3844
    SETDIJ:  cpu time    2.0968: real time    2.0969
    TRIAL :  cpu time   61.9158: real time   61.9212
    CORREC:  cpu time    0.0009: real time    0.0012
    CHARGE:  cpu time    0.1868: real time    0.1868
    --------------------------------------------
      LOOP:  cpu time   65.5870: real time   65.5929

 eigenvalue-minimisations  :     0
 total energy-change (2. order) :-0.2469347E-01  (-0.2076009E-01)
 number of electron     245.0000003 magnetization       1.0000413
 augmentation part       16.6104262 magnetization       1.4694140

 DIPCOR: dipole corrections for dipol
 direction  3 min pos     1,
 dipolmoment           0.000000     -0.000000     -0.000303 electrons x Angstroem
 Tr[quadrupol]     -6676.742465

 energy correction for charged system         0.000000 eV
 dipol+quadrupol energy correction            0.000000 eV
 added-field ion interaction          0.000000 eV  (added to PSCEN)


 Free energy of the ion-electron system (eV)
  ---------------------------------------------------
  alpha Z        PSCENC =       100.63796660
  Ewald energy   TEWEN  =     39094.00004635
  -Hartree energ DENC   =    -48025.44470104
  -exchange      EXHF   =       556.06393135
  -V(xc)+E(xc)   XCENC  =       635.54417393
  PAW double counting   =     27184.90941245   -27321.12261912
  entropy T*S    EENTRO =        -0.00001256
  eigenvalues    EBANDS =     -3176.27416792
  atomic energy  EATOM  =     10352.23585582
  ---------------------------------------------------
  free energy    TOTEN  =      -599.45011922 eV

  energy without entropy =     -599.45010666  energy(sigma->0) =     -599.45011294
  exchange ACFDT corr.  =        -0.00001128  see jH, gK, PRB 81, 115126


--------------------------------------------------------------------------------------------------------




--------------------------------------- Iteration      1(  18)  ---------------------------------------


    POTLOK:  cpu time    1.3814: real time    1.3815
    SETDIJ:  cpu time    2.1176: real time    2.1177
    TRIAL :  cpu time   61.8510: real time   61.8563
    CORREC:  cpu time    0.0009: real time    0.0013
    CHARGE:  cpu time    0.1870: real time    0.1870
    --------------------------------------------
      LOOP:  cpu time   65.5403: real time   65.5462

 eigenvalue-minimisations  :     0
 total energy-change (2. order) :-0.1925994E-01  (-0.1636347E-01)
 number of electron     245.0000003 magnetization       1.0000298
 augmentation part       16.6107336 magnetization       1.4715215

 DIPCOR: dipole corrections for dipol
 direction  3 min pos     1,
 dipolmoment           0.000000     -0.000000     -0.000311 electrons x Angstroem
 Tr[quadrupol]     -6676.742114

 energy correction for charged system         0.000000 eV
 dipol+quadrupol energy correction            0.000000 eV
 added-field ion interaction          0.000000 eV  (added to PSCEN)


 Free energy of the ion-electron system (eV)
  ---------------------------------------------------
  alpha Z        PSCENC =       100.63796660
  Ewald energy   TEWEN  =     39094.00004635
  -Hartree energ DENC   =    -48025.48016490
  -exchange      EXHF   =       556.09725523
  -V(xc)+E(xc)   XCENC  =       635.55304464
  PAW double counting   =     27184.66782388   -27320.90411028
  entropy T*S    EENTRO =        -0.00000919
  eigenvalues    EBANDS =     -3176.27708393
  atomic energy  EATOM  =     10352.23585582
  ---------------------------------------------------
  free energy    TOTEN  =      -599.46937915 eV

  energy without entropy =     -599.46936996  energy(sigma->0) =     -599.46937456
[...]
  augment    96.01197    98.90856   107.14471     0.34911     0.00528    -0.00599
  Kinetic  3537.42953  3559.29510  4043.03501     4.99449     0.00752     0.03454
  Fock     -396.45792  -399.55593  -384.12402     0.90909    -0.00327     0.01344
  -------------------------------------------------------------------------------------
  Total     -39.27949   -46.30042    -0.35027     2.39123    -0.00031     0.00580
  in kB     -19.80963   -23.35047    -0.17665     1.20596    -0.00016     0.00293
  external pressure =      -14.45 kB  Pullay stress =        0.00 kB


 VOLUME and BASIS-vectors are now :
 -----------------------------------------------------------------------------
  energy-cutoff  :      500.00
  volume of cell :     3176.87
      direct lattice vectors                 reciprocal lattice vectors
    12.806200000  0.000000000  0.000000000     0.078087177 -0.000607447  0.000044358
     0.096898073 12.456223116  0.000000000     0.000000000  0.080281157 -0.000008481
    -0.011296765  0.002103978 19.915596685     0.000000000  0.000000000  0.050211903

  length of vectors
    12.806200000 12.456600000 19.915600000     0.078089552  0.080281157  0.050211903


 FORCES acting on ions:
    Electron-Ion                     Ewald-Force                    Non-Local-Force
 -----------------------------------------------------------------------------------------------
   0.317E+01 -.328E+00 0.661E-01   -.295E+01 0.144E+00 -.676E-01   -.109E+00 0.971E-01 0.133E-02
   0.105E+01 0.106E+01 0.223E+00   -.881E+00 -.112E+01 -.223E+00   -.515E-01 -.128E+00 0.142E-02
   0.400E+01 -.134E+01 0.791E-01   -.399E+01 0.152E+01 -.786E-01   -.136E+00 0.187E-01 -.112E-02
   0.454E+01 0.596E+01 0.192E-02   -.460E+01 -.592E+01 -.105E-02   -.941E-01 0.635E-01 0.747E-05
   0.696E+01 0.574E+01 -.670E-01   -.682E+01 -.561E+01 0.670E-01   -.174E+00 -.197E+00 -.279E-03
   0.781E+01 0.153E+00 0.314E+00   -.782E+01 -.335E+00 -.314E+00   -.238E-01 0.151E-01 0.221E-02
   0.684E+01 0.333E+01 0.169E+00   -.677E+01 -.303E+01 -.168E+00   -.143E+00 -.137E+00 -.343E-03
   0.715E+01 0.315E+02 -.399E+00   -.564E+01 -.319E+02 0.402E+00   -.154E+01 0.704E+00 -.512E-02
   0.423E+01 -.141E+01 0.331E+00   -.386E+01 0.133E+01 -.331E+00   -.318E+00 0.120E-01 0.356E-03
   0.221E+02 -.223E+01 0.294E+00   -.221E+02 0.245E+01 -.294E+00   -.124E-01 -.510E-01 0.160E-02
   0.266E+01 0.390E-01 0.185E+00   -.250E+01 0.767E-02 -.185E+00   -.329E-01 0.222E-01 -.392E-03
   0.165E+02 0.310E+01 0.262E+00   -.165E+02 -.342E+01 -.261E+00   0.334E-01 0.151E+00 0.989E-03
   0.515E+01 -.266E+02 -.711E-01   -.482E+01 0.266E+02 0.724E-01   -.504E+00 -.306E-01 -.276E-02
   0.259E+01 -.703E+01 0.203E-01   -.228E+01 0.704E+01 -.217E-01   -.130E+00 -.165E+00 0.177E-02
   -.161E+01 0.552E-01 0.733E-01   0.160E+01 -.762E-01 -.738E-01   -.419E-01 -.754E-01 -.623E-03
   0.694E+01 -.351E+01 0.314E-01   -.697E+01 0.340E+01 -.312E-01   -.143E+00 0.870E-01 -.157E-02
   0.349E+01 -.114E+01 0.475E-01   -.348E+01 0.129E+01 -.456E-01   -.373E-01 -.592E-01 -.231E-02
   0.715E+00 -.799E+00 0.609E+00   -.911E+00 0.536E+00 -.609E+00   0.433E+00 0.192E+00 0.219E-02
   0.144E+01 0.352E+01 0.594E-02   -.107E+01 -.330E+01 -.634E-02   -.161E+00 -.319E+00 0.761E-03
   0.270E+01 0.256E+01 0.354E+00   -.314E+01 -.255E+01 -.353E+00   0.162E+00 0.387E-01 0.539E-03
   -.203E+01 0.140E+02 0.371E+00   0.170E+01 -.145E+02 -.373E+00   0.123E+00 0.507E+00 0.359E-02
   0.123E+02 0.342E+02 -.299E+00   -.148E+02 -.372E+02 0.296E+00   0.262E+01 0.290E+01 0.133E-02
   0.808E+01 0.174E+02 -.419E+00   -.950E+01 -.159E+02 0.421E+00   0.117E+01 -.118E+01 -.346E-02
   0.571E+01 -.440E+02 -.473E+00   -.876E+01 0.479E+02 0.466E+00   0.286E+01 -.373E+01 0.633E-02
   0.265E+01 -.259E+02 -.161E+00   -.192E+01 0.254E+02 0.163E+00   -.347E+00 0.635E+00 -.111E-02
   -.686E+01 -.174E+02 0.993E-01   0.660E+01 0.179E+02 -.101E+00   0.559E-01 -.384E+00 0.125E-02
   -.231E+00 -.124E+02 0.428E+00   -.476E-02 0.126E+02 -.428E+00   0.472E+00 -.290E+00 0.118E-02
   0.158E+01 -.233E+01 0.282E+00   -.168E+01 0.238E+01 -.283E+00   0.115E+00 0.600E-01 0.175E-02
   0.604E+01 -.840E+01 0.229E+00   -.668E+01 0.793E+01 -.228E+00   0.372E+00 0.296E+00 0.241E-03
   -.300E+01 -.120E+01 0.714E+00   0.282E+01 0.141E+01 -.715E+00   0.126E+00 -.122E+00 0.251E-02
   -.501E+01 -.219E+00 0.371E+00   0.516E+01 0.171E+00 -.370E+00   -.159E+00 0.101E-01 -.104E-02
   -.116E+02 0.472E+01 0.407E+00   0.118E+02 -.497E+01 -.406E+00   -.158E+00 0.182E+00 0.316E-03
   -.320E+01 -.153E+00 0.615E+00   0.344E+01 0.317E-01 -.617E+00   -.216E+00 0.267E+00 0.318E-02
   0.129E+01 -.264E+01 0.283E+00   -.125E+01 0.280E+01 -.283E+00   -.148E+00 -.201E-01 -.970E-04
   -.251E+01 0.158E+01 0.216E+00   0.283E+01 -.159E+01 -.215E+00   -.336E+00 -.178E+00 -.135E-04
   -.354E+02 -.650E+01 -.371E+00   0.386E+02 0.663E+01 0.366E+00   -.344E+01 -.225E+00 0.336E-02
   -.127E+02 -.124E+01 0.876E-01   0.133E+02 0.123E+01 -.880E-01   -.435E+00 0.558E-01 0.675E-03
   -.182E+00 -.164E+01 0.227E+00   0.433E+00 0.192E+01 -.226E+00   -.208E+00 0.330E-01 -.450E-03
   -.354E+01 -.159E+01 0.893E-01   0.378E+01 0.142E+01 -.902E-01   -.111E-01 0.613E-01 0.167E-02
   -.540E+02 0.125E+02 -.459E+00   0.581E+02 -.129E+02 0.449E+00   -.406E+01 0.224E+00 0.729E-02
   -.116E+02 0.740E+01 -.363E+00   0.119E+02 -.728E+01 0.363E+00   -.283E+00 0.175E+00 -.129E-02
   0.317E+01 0.620E+01 0.248E+00   -.282E+01 -.637E+01 -.247E+00   -.343E+00 0.104E+00 0.486E-03
   -.932E+01 0.122E+01 0.235E+00   0.954E+01 -.139E+01 -.236E+00   -.317E+00 0.759E-01 0.153E-02
   -.133E+02 -.825E+01 0.188E+00   0.135E+02 0.841E+01 -.187E+00   -.152E+00 -.164E+00 -.701E-03
   -.157E+02 -.136E+00 0.927E-02   0.164E+02 0.486E+00 -.105E-01   -.524E+00 -.317E+00 0.125E-02
   -.455E+00 -.209E+00 0.271E+00   0.588E+00 0.209E+00 -.271E+00   -.189E+00 0.866E-01 0.102E-02
   -.637E+01 -.795E+00 0.282E+00   0.658E+01 0.783E+00 -.281E+00   -.128E+00 -.733E-01 -.212E-02
   -.520E+01 -.181E+01 0.660E+00   0.505E+01 0.173E+01 -.658E+00   0.111E+00 -.452E-01 -.446E-03
   -.468E+01 -.521E+01 0.475E+00   0.468E+01 0.534E+01 -.476E+00   -.103E+00 -.128E+00 0.243E-02
   0.141E+01 -.161E+01 0.258E+00   -.117E+01 0.172E+01 -.259E+00   -.189E+00 -.685E-01 0.736E-03
   0.434E+02 0.312E+01 -.115E-01   -.432E+02 -.205E+01 0.151E-01   -.514E+00 -.120E+01 -.240E-02
   0.338E+02 0.167E+01 0.145E+00   -.338E+02 -.230E+01 -.146E+00   -.216E+00 0.765E+00 0.220E-02
   -.807E+01 -.521E+01 -.853E+00   0.120E+02 0.108E+02 0.868E+00   -.436E+01 -.573E+01 -.180E-01
   0.228E+00 -.481E+01 -.718E+00   -.319E+01 0.102E+01 0.730E+00   0.324E+01 0.399E+01 -.139E-01
   -.731E+01 -.308E+02 -.988E+00   -.272E+01 0.474E+02 0.104E+01   0.991E+01 -.158E+02 -.508E-01
   -.236E+02 0.311E+02 -.148E+01   0.145E+02 -.464E+02 0.155E+01   0.884E+01 0.148E+02 -.679E-01
   0.148E+01 0.343E+01 -.791E+00   -.798E+01 0.241E+01 0.783E+00   0.604E+01 -.568E+01 0.750E-02
   -.159E+00 0.384E+02 -.222E+01   0.160E+01 -.442E+02 0.221E+01   -.611E+00 0.513E+01 0.967E-02
 -----------------------------------------------------------------------------------------------
   -.167E+02 0.500E+01 0.114E+00   0.419E-12 -.156E-12 0.444E-15   0.156E+02 -.477E+01 -.104E+00
 
 
 POSITION                                       TOTAL-FORCE (eV/Angst)
 -----------------------------------------------------------------------------------
      2.93735     12.43077      9.95819         0.102081     -0.082759     -0.000065
      0.70434      1.23399      9.95742         0.112569     -0.190517      0.001195
      1.51074     12.44207      9.95779        -0.132626      0.202338     -0.000630
      3.55906      1.21189      9.95881        -0.156636      0.112178      0.000875
      2.85549      2.44769      9.95920        -0.041518     -0.074131     -0.000346
      0.71691      3.71721      9.95763        -0.032972     -0.167648      0.002156
      1.42684      2.47250      9.95799        -0.075470      0.164920      0.000082
      3.60385      3.67912      9.96076        -0.110255      0.348808     -0.002287
      0.74981      6.20851      9.95760         0.033553     -0.079611      0.000730
      1.46485      4.95302      9.95802         0.025722      0.166828      0.001906
      0.79575      8.70326      9.95759         0.121431      0.071837     -0.000041
      1.50670      7.44523      9.95782         0.051042     -0.158917      0.001850
      3.63969      8.70317      9.95916        -0.201139     -0.052186     -0.001645
      2.93110      9.95040      9.95841         0.161944     -0.162857      0.000428
      0.80270     11.19988      9.95759        -0.062215     -0.098316     -0.001147
      1.50781      9.94761      9.95797        -0.166375     -0.009620     -0.001483
      3.64309     11.19256      9.95819        -0.026067      0.085676     -0.000575
      7.20770     12.44943      9.95644         0.261208     -0.067354      0.002346
      4.98275      1.22131      9.95900         0.192651     -0.119856      0.000400
      5.78138     12.43471      9.95741        -0.267846      0.055881      0.001721
      7.83163      1.22985      9.95762        -0.198694      0.023752      0.001972
      7.13549      2.45945      9.96055         0.295858      0.099619     -0.002017
      5.69506      2.47025      9.96098        -0.182737      0.285447     -0.000928
      7.22102      7.54609      9.96159        -0.048637     -0.090630     -0.000697
      5.09599      8.68660      9.95980         0.371055      0.090547      0.000082
      7.92640      8.77401      9.95878        -0.210819      0.158079     -0.000125
      7.20502      9.98944      9.95721         0.261631     -0.172236      0.001128
      5.06998     11.19378      9.95761         0.019736      0.112845      0.000701
      5.78409      9.95156      9.95801        -0.247115     -0.162228      0.001473
      7.92041     11.22535      9.95583        -0.049783      0.077774      0.002149
     11.48053     12.45608      9.95640        -0.029071     -0.035622      0.000215
      9.25063      1.24252      9.95701         0.099669     -0.063419      0.001481
      9.96170      0.00381      9.95583         0.023797      0.159463      0.001974
     12.08380      1.24736      9.95699        -0.109366      0.128809     -0.000118
     11.36685      2.49801      9.95761        -0.032813     -0.192916      0.000624
      9.17084      3.73439      9.96076        -0.449960     -0.108489     -0.001636
      9.92928      2.50237      9.95840         0.070928      0.039417      0.000334
     12.08853      3.73184      9.95780         0.031285      0.309241      0.000897
     11.36372      4.97546      9.95861         0.234917     -0.112985      0.000882
      9.26491      6.27775      9.96136        -0.256012     -0.233362     -0.001838
      9.92124      4.98390      9.96059        -0.055160      0.307548     -0.000727
     12.13378      6.21397      9.95783        -0.008649     -0.058586      0.001731
     11.44715      7.47583      9.95780        -0.119872     -0.085757      0.001173
      9.34394      8.75055      9.95800         0.113439     -0.014083      0.000391
     10.02808      7.49778      9.95900         0.102297      0.020591      0.000077
     12.17478      8.71241      9.95722        -0.060971      0.092174      0.000639
     11.47862      9.96724      9.95678         0.063867     -0.087813     -0.000949
      9.34562     11.22269      9.95562        -0.033823     -0.128411      0.001599
     10.05806      9.98229      9.95642        -0.099903     -0.009187      0.001225
     12.18860     11.20964      9.95680         0.047192      0.039608     -0.000282
      2.85655      4.88770      9.95961        -0.369229     -0.203489      0.001108
      2.91760      7.49157      9.95882        -0.192104      0.191052      0.000958
      5.04709      3.72979      9.96253        -0.623558     -0.472184     -0.004390
      5.80504      7.44597      9.96195         0.459268      0.424492     -0.002877
      7.76496      3.68275      9.96234         0.721877     -0.484074     -0.004574
      7.91572      6.35051      9.96354         0.467920      0.774316     -0.004815
      4.26099      6.11154      9.96100        -0.742782     -0.054830     -0.000816
      6.45960      5.18897      9.96414         0.947239     -0.509167     -0.001496
 -----------------------------------------------------------------------------------
    total drift:                               -0.002651     -0.004828      0.000027


--------------------------------------------------------------------------------------------------------



  FREE ENERGIE OF THE ION-ELECTRON SYSTEM (eV)
  ---------------------------------------------------
  free  energy   TOTEN  =      -599.59441768 eV

  energy  without entropy=     -599.59441718  energy(sigma->0) =     -599.59441743
 


--------------------------------------------------------------------------------------------------------


    POTLOK:  cpu time    3.4465: real time    3.4467


--------------------------------------------------------------------------------------------------------


 stress matrix after NEB project (eV)
    -39.27949      2.39189      0.00580
      2.39123    -46.30042     -0.00026
      0.00580     -0.00031     -0.35027
  FORCES: max atom, RMS     1.075414    0.343273
  FORCE total and by dimension    2.614291    0.947239
  Stress total and by dimension   60.812574   46.300421
 writing wavefunctions
     LOOP+:  cpu time 6614.7283: real time 6615.8461
    4ORBIT:  cpu time    0.0000: real time    0.0000
 


 total charge     
 
# of ion       s       p       d       tot
------------------------------------------
    1        0.867   1.768   0.000   2.636
    2        0.865   1.759   0.000   2.624
    3        0.864   1.766   0.000   2.630
    4        0.869   1.773   0.000   2.641
    5        0.868   1.762   0.000   2.630
    6        0.862   1.748   0.000   2.610
    7        0.863   1.765   0.000   2.628
    8        0.871   1.733   0.000   2.604
    9        0.863   1.743   0.000   2.606
   10        0.864   1.766   0.000   2.630
   11        0.864   1.751   0.000   2.615
   12        0.859   1.750   0.000   2.609
   13        0.868   1.750   0.000   2.618
   14        0.867   1.760   0.000   2.628
   15        0.866   1.767   0.000   2.633
   16        0.865   1.763   0.000   2.627
   17        0.865   1.776   0.000   2.640
   18        0.866   1.781   0.000   2.647
   19        0.867   1.763   0.000   2.630
   20        0.866   1.770   0.000   2.636
   21        0.870   1.790   0.000   2.660
   22        0.869   1.742   0.000   2.611
   23        0.868   1.766   0.000   2.634
   24        0.870   1.740   0.000   2.610
   25        0.861   1.731   0.000   2.592
   26        0.874   1.801   0.000   2.675
   27        0.870   1.783   0.000   2.653
   28        0.866   1.764   0.000   2.629
   29        0.865   1.763   0.000   2.628
   30        0.868   1.781   0.000   2.649
   31        0.866   1.766   0.000   2.632
   32        0.870   1.765   0.000   2.634
   33        0.866   1.778   0.000   2.644
   34        0.863   1.762   0.000   2.625
   35        0.862   1.752   0.000   2.614
   36        0.847   1.686   0.000   2.532
   37        0.860   1.757   0.000   2.617
   38        0.861   1.759   0.000   2.621
   39        0.856   1.728   0.000   2.584
   40        0.860   1.730   0.000   2.590
   41        0.850   1.745   0.000   2.595
   42        0.859   1.749   0.000   2.609
   43        0.865   1.762   0.000   2.627
   44        0.869   1.778   0.000   2.647
   45        0.864   1.780   0.000   2.644
   46        0.863   1.764   0.000   2.627
   47        0.868   1.761   0.000   2.629
   48        0.866   1.769   0.000   2.636
   49        0.867   1.779   0.000   2.646
   50        0.864   1.776   0.000   2.640
   51        0.873   1.671   0.000   2.544
   52        0.865   1.641   0.000   2.506
   53        0.860   1.651   0.000   2.510
   54        0.848   1.680   0.000   2.528
   55        1.228   2.637   0.000   3.864
   56        1.236   2.718   0.000   3.954
   57        0.542   0.492   9.155  10.189
   58        0.419   0.530   6.254   7.203
--------------------------------------------------
tot         50.109 101.038  15.409 166.556
 


 magnetization (x)
 
# of ion       s       p       d       tot
------------------------------------------
    1       -0.002  -0.029   0.000  -0.031
    2       -0.001  -0.012   0.000  -0.013
    3        0.001   0.008   0.000   0.009
    4        0.002   0.026   0.000   0.028
    5       -0.002  -0.023   0.000  -0.025
    6       -0.002  -0.030   0.000  -0.032
    7        0.001   0.012   0.000   0.013
    8        0.001   0.018   0.000   0.019
    9       -0.002  -0.033   0.000  -0.035
   10        0.003   0.024   0.000   0.027
   11       -0.002  -0.024   0.000  -0.027
   12        0.002   0.024   0.000   0.026
   13        0.001   0.011   0.000   0.012
   14       -0.001  -0.013   0.000  -0.014
   15       -0.002  -0.024   0.000  -0.026
   16        0.002   0.020   0.000   0.022
   17        0.002   0.017   0.000   0.019
   18       -0.005  -0.070   0.000  -0.075
   19       -0.002  -0.024   0.000  -0.027
   20        0.002   0.024   0.000   0.026
   21        0.003   0.028   0.000   0.031
   22       -0.006  -0.076   0.000  -0.082
   23        0.004   0.042   0.000   0.045
   24       -0.001  -0.029   0.000  -0.030
   25       -0.004  -0.044   0.000  -0.048
   26        0.002   0.022   0.000   0.024
   27       -0.001  -0.014   0.000  -0.015
   28       -0.003  -0.035   0.000  -0.038
   29        0.002   0.020   0.000   0.021
   30        0.003   0.026   0.000   0.029
   31       -0.002  -0.034   0.000  -0.037
   32       -0.001  -0.014   0.000  -0.015
   33        0.002   0.019   0.000   0.021
   34        0.002   0.021   0.000   0.022
   35       -0.002  -0.028   0.000  -0.030
   36       -0.002  -0.026   0.000  -0.028
   37        0.001   0.017   0.000   0.019
   38        0.001   0.009   0.000   0.010
   39       -0.001  -0.012   0.000  -0.013
   40       -0.001  -0.013   0.000  -0.014
   41        0.001   0.007   0.000   0.008
   42        0.002   0.017   0.000   0.019
   43       -0.002  -0.027   0.000  -0.029
   44       -0.004  -0.056   0.000  -0.060
   45        0.002   0.015   0.000   0.016
   46        0.001   0.016   0.000   0.017
   47       -0.001  -0.012   0.000  -0.014
   48       -0.004  -0.052   0.000  -0.056
   49        0.003   0.025   0.000   0.028
   50        0.002   0.017   0.000   0.019
   51       -0.006  -0.077   0.000  -0.084
   52       -0.007  -0.067   0.000  -0.073
   53       -0.012  -0.121   0.000  -0.133
   54       -0.004  -0.009   0.000  -0.013
   55       -0.005  -0.005   0.000  -0.010
   56       -0.005  -0.025   0.000  -0.030
   57       -0.001  -0.021   0.033   0.011
   58        0.040   0.012   1.951   2.003
--------------------------------------------------
tot         -0.010  -0.585   1.984   1.389
 

 total amount of memory used by VASP MPI-rank0   138259. kBytes
=======================================================================

   base      :      30000. kBytes
   nonl-proj :       3782. kBytes
   fftplans  :      14253. kBytes
   grid      :      36827. kBytes
   one-center:         62. kBytes
   HF        :         23. kBytes
   nonlr-proj:      15260. kBytes
   wavefun   :      38052. kBytes
 
  
  
 General timing and accounting informations for this job:
 ========================================================
  
                  Total CPU time used (sec):     6664.087
                            User time (sec):     6646.464
                          System time (sec):       17.623
                         Elapsed time (sec):     6667.592
  
                   Maximum memory used (kb):      382012.
                   Average memory used (kb):           0.
  
                          Minor page faults:       353702
                          Major page faults:            0
                 Voluntary context switches:         1126
