 vasp.5.4.4.18Apr17-6-g9f103f2a35 (build Feb 25 2019 10:51:38) complex          
  
 executed on             LinuxIFC date 2021.07.24  10:53:47
 running on   32 total cores
 distrk:  each k-point on   32 cores,    1 groups
 distr:  one band on NCORES_PER_BAND=  32 cores,    1 groups


--------------------------------------------------------------------------------------------------------


 INCAR:
 POTCAR:    PAW_PBE C 08Apr2002                   
 POTCAR:    PAW_PBE N 08Apr2002                   
 POTCAR:    PAW_PBE Ni 02Aug2007                  
 POTCAR:    PAW_PBE Fe 06Sep2000                  

 ----------------------------------------------------------------------------- 
|                                                                             |
|           W    W    AA    RRRRR   N    N  II  N    N   GGGG   !!!           |
|           W    W   A  A   R    R  NN   N  II  NN   N  G    G  !!!           |
|           W    W  A    A  R    R  N N  N  II  N N  N  G       !!!           |
|           W WW W  AAAAAA  RRRRR   N  N N  II  N  N N  G  GGG   !            |
|           WW  WW  A    A  R   R   N   NN  II  N   NN  G    G                |
|           W    W  A    A  R    R  N    N  II  N    N   GGGG   !!!           |
|                                                                             |
|      For optimal performance we recommend to set                            |
|        NCORE= 4 - approx SQRT( number of cores)                             |
|      NCORE specifies how many cores store one orbital (NPAR=cpu/NCORE).     |
|      This setting can  greatly improve the performance of VASP for DFT.     |
|      The default,   NCORE=1            might be grossly inefficient         |
|      on modern multi-core architectures or massively parallel machines.     |
|      Do your own testing !!!!                                               |
|      Unfortunately you need to use the default for GW and RPA calculations. |
|      (for HF NCORE is supported but not extensively tested yet)             |
|                                                                             |
 ----------------------------------------------------------------------------- 

 POTCAR:    PAW_PBE C 08Apr2002                   
   VRHFIN =C: s2p2                                                              
   LEXCH  = PE                                                                  
   EATOM  =   147.1560 eV,   10.8157 Ry                                         
                                                                                
   TITEL  = PAW_PBE C 08Apr2002                                                 
   LULTRA =        F    use ultrasoft PP ?                                      
   IUNSCR =        1    unscreen: 0-lin 1-nonlin 2-no                           
   RPACOR =    1.200    partial core radius                                     
   POMASS =   12.011; ZVAL   =    4.000    mass and valenz                      
   RCORE  =    1.500    outmost cutoff radius                                   
   RWIGS  =    1.630; RWIGS  =    0.863    wigner-seitz radius (au A)           
   ENMAX  =  400.000; ENMIN  =  300.000 eV                                      
   ICORE  =        2    local potential                                         
   LCOR   =        T    correct aug charges                                     
   LPAW   =        T    paw PP                                                  
   EAUG   =  644.873                                                            
   DEXC   =    0.000                                                            
   RMAX   =    1.529    core radius for proj-oper                               
   RAUG   =    1.300    factor for augmentation sphere                          
   RDEP   =    1.501    radius for radial grids                                 
   RDEPT  =    1.300    core radius for aug-charge                              
                                                                                
   Atomic configuration                                                         
    4 entries                                                                   
     n  l   j            E        occ.                                          
     1  0  0.50      -273.3789   2.0000                                         
     2  0  0.50       -13.7508   2.0000                                         
     2  1  0.50        -5.2854   2.0000                                         
     3  2  1.50        -5.4423   0.0000                                         
   Description                                                                  
     l       E           TYP  RCUT    TYP  RCUT                                 
     0    -13.7508458     23  1.200                                             
     0     -8.2022199     23  1.200                                             
     1     -5.2854383     23  1.500                                             
     1     34.0145650     23  1.500                                             
     2     -5.4423304      7  1.500                                             
  local pseudopotential read in
  partial core-charges read in
  partial kinetic energy density read in
  atomic valenz-charges read in
  non local Contribution for L=           0  read in
    real space projection operators read in
  non local Contribution for L=           0  read in
    real space projection operators read in
  non local Contribution for L=           1  read in
    real space projection operators read in
  non local Contribution for L=           1  read in
    real space projection operators read in
    PAW grid and wavefunctions read in
 
   number of l-projection  operators is LMAX  =           4
   number of lm-projection operators is LMMAX =           8
 
 POTCAR:    PAW_PBE N 08Apr2002                   
   VRHFIN =N: s2p3                                                              
   LEXCH  = PE                                                                  
   EATOM  =   264.5486 eV,   19.4438 Ry                                         
                                                                                
   TITEL  = PAW_PBE N 08Apr2002                                                 
   LULTRA =        F    use ultrasoft PP ?                                      
   IUNSCR =        1    unscreen: 0-lin 1-nonlin 2-no                           
   RPACOR =    1.200    partial core radius                                     
   POMASS =   14.001; ZVAL   =    5.000    mass and valenz                      
   RCORE  =    1.500    outmost cutoff radius                                   
   RWIGS  =    1.400; RWIGS  =    0.741    wigner-seitz radius (au A)           
   ENMAX  =  400.000; ENMIN  =  300.000 eV                                      
   ICORE  =        2    local potential                                         
   LCOR   =        T    correct aug charges                                     
   LPAW   =        T    paw PP                                                  
   EAUG   =  627.112                                                            
   DEXC   =    0.000                                                            
   RMAX   =    1.529    core radius for proj-oper                               
   RAUG   =    1.300    factor for augmentation sphere                          
   RDEP   =    1.514    radius for radial grids                                 
   RDEPT  =    1.338    core radius for aug-charge                              
                                                                                
   Atomic configuration                                                         
    4 entries                                                                   
     n  l   j            E        occ.                                          
     1  0  0.50      -384.7179   2.0000                                         
     2  0  0.50       -18.5828   2.0000                                         
     2  1  0.50        -7.0898   3.0000                                         
     3  2  1.50        -6.8029   0.0000                                         
   Description                                                                  
     l       E           TYP  RCUT    TYP  RCUT                                 
     0    -18.5828119     23  1.200                                             
     0    -13.5018863     23  1.200                                             
     1     -7.0897853     23  1.500                                             
     1      9.5240782     23  1.500                                             
     2     -6.8029130      7  1.500                                             
  local pseudopotential read in
  partial core-charges read in
  partial kinetic energy density read in
  atomic valenz-charges read in
  non local Contribution for L=           0  read in
    real space projection operators read in
  non local Contribution for L=           0  read in
    real space projection operators read in
  non local Contribution for L=           1  read in
    real space projection operators read in
  non local Contribution for L=           1  read in
    real space projection operators read in
    PAW grid and wavefunctions read in
 
   number of l-projection  operators is LMAX  =           4
   number of lm-projection operators is LMMAX =           8
 
 POTCAR:    PAW_PBE Ni 02Aug2007                  
   VRHFIN =Ni:                                                                  
   LEXCH  = PE                                                                  
   EATOM  =  1077.6739 eV,   79.2068 Ry                                         
                                                                                
   TITEL  = PAW_PBE Ni 02Aug2007                                                
   LULTRA =        F    use ultrasoft PP ?                                      
   IUNSCR =        1    unscreen: 0-lin 1-nonlin 2-no                           
   RPACOR =    2.000    partial core radius                                     
   POMASS =   58.690; ZVAL   =   10.000    mass and valenz                      
   RCORE  =    2.300    outmost cutoff radius                                   
   RWIGS  =    2.430; RWIGS  =    1.286    wigner-seitz radius (au A)           
   ENMAX  =  269.532; ENMIN  =  202.149 eV                                      
   RCLOC  =    1.201    cutoff for local pot                                    
   LCOR   =        T    correct aug charges                                     
   LPAW   =        T    paw PP                                                  
   EAUG   =  544.565                                                            
   DEXC   =    0.000                                                            
   RMAX   =    2.357    core radius for proj-oper                               
   RAUG   =    1.300    factor for augmentation sphere                          
   RDEP   =    2.390    radius for radial grids                                 
   RDEPT  =    1.838    core radius for aug-charge                              
                                                                                
   Atomic configuration                                                         
    9 entries                                                                   
     n  l   j            E        occ.                                          
     1  0  0.50     -8206.4253   2.0000                                         
     2  0  0.50      -976.1748   2.0000                                         
     2  1  1.50      -839.0571   6.0000                                         
     3  0  0.50      -105.9991   2.0000                                         
     3  1  1.50       -66.4603   6.0000                                         
     3  2  2.50        -4.6458   9.0000                                         
     4  0  0.50        -4.4926   1.0000                                         
     4  1  1.50        -4.0817   0.0000                                         
     4  3  2.50        -1.3606   0.0000                                         
   Description                                                                  
     l       E           TYP  RCUT    TYP  RCUT                                 
     2     -4.6457903     23  2.300                                             
     2     -6.0063729     23  2.300                                             
     0     -4.4925590     23  2.300                                             
     0      5.0102601     23  2.300                                             
     1     -2.7211652     23  2.300                                             
     1     16.5183231     23  2.300                                             
  local pseudopotential read in
  partial core-charges read in
  partial kinetic energy density read in
  atomic valenz-charges read in
  non local Contribution for L=           2  read in
    real space projection operators read in
  non local Contribution for L=           2  read in
    real space projection operators read in
  non local Contribution for L=           0  read in
    real space projection operators read in
  non local Contribution for L=           0  read in
    real space projection operators read in
  non local Contribution for L=           1  read in
    real space projection operators read in
  non local Contribution for L=           1  read in
    real space projection operators read in
    PAW grid and wavefunctions read in
 
   number of l-projection  operators is LMAX  =           6
   number of lm-projection operators is LMMAX =          18
 
 POTCAR:    PAW_PBE Fe 06Sep2000                  
   VRHFIN =Fe:  d7 s1                                                           
   LEXCH  = PE                                                                  
   EATOM  =   594.3153 eV,   43.6809 Ry                                         
                                                                                
   TITEL  = PAW_PBE Fe 06Sep2000                                                
   LULTRA =        F    use ultrasoft PP ?                                      
   IUNSCR =        1    unscreen: 0-lin 1-nonlin 2-no                           
   RPACOR =    2.000    partial core radius                                     
   POMASS =   55.847; ZVAL   =    8.000    mass and valenz                      
   RCORE  =    2.300    outmost cutoff radius                                   
   RWIGS  =    2.460; RWIGS  =    1.302    wigner-seitz radius (au A)           
   ENMAX  =  267.882; ENMIN  =  200.911 eV                                      
   RCLOC  =    1.701    cutoff for local pot                                    
   LCOR   =        T    correct aug charges                                     
   LPAW   =        T    paw PP                                                  
   EAUG   =  511.368                                                            
   DEXC   =    0.000                                                            
   RMAX   =    2.356    core radius for proj-oper                               
   RAUG   =    1.300    factor for augmentation sphere                          
   RDEP   =    2.442    radius for radial grids                                 
   RDEPT  =    1.890    core radius for aug-charge                              
                                                                                
   Atomic configuration                                                         
    9 entries                                                                   
     n  l   j            E        occ.                                          
     1  0  0.50     -6993.8440   2.0000                                         
     2  0  0.50      -814.6047   2.0000                                         
     2  1  1.50      -693.3689   6.0000                                         
     3  0  0.50       -89.4732   2.0000                                         
     3  1  1.50       -55.6373   6.0000                                         
     3  2  2.50        -3.8151   7.0000                                         
     4  0  0.50        -4.2551   1.0000                                         
     4  1  1.50        -3.4015   0.0000                                         
     4  3  2.50        -1.3606   0.0000                                         
   Description                                                                  
     l       E           TYP  RCUT    TYP  RCUT                                 
     2     -3.8151135     23  2.300                                             
     2     -5.1756961     23  2.300                                             
     0     -4.2550963     23  2.300                                             
     0      7.2035603     23  2.300                                             
     1     -2.7211652     23  2.300                                             
     1     18.4316424     23  2.300                                             
  local pseudopotential read in
  partial core-charges read in
  partial kinetic energy density read in
  atomic valenz-charges read in
  non local Contribution for L=           2  read in
    real space projection operators read in
  non local Contribution for L=           2  read in
    real space projection operators read in
  non local Contribution for L=           0  read in
    real space projection operators read in
  non local Contribution for L=           0  read in
    real space projection operators read in
  non local Contribution for L=           1  read in
    real space projection operators read in
  non local Contribution for L=           1  read in
    real space projection operators read in
    PAW grid and wavefunctions read in
 
   number of l-projection  operators is LMAX  =           6
   number of lm-projection operators is LMMAX =          18
 

 ----------------------------------------------------------------------------- 
|                                                                             |
|  ADVICE TO THIS USER RUNNING 'VASP/VAMP'   (HEAR YOUR MASTER'S VOICE ...):  |
|                                                                             |
|      You have a (more or less) 'large supercell' and for larger cells       |
|      it might be more efficient to use real space projection opertators     |
|      So try LREAL= Auto  in the INCAR   file.                               |
|      Mind:          For very  accurate calculation you might also keep the  |
|      reciprocal projection scheme          (i.e. LREAL=.FALSE.)             |
|                                                                             |
 ----------------------------------------------------------------------------- 

  PAW_PBE C 08Apr2002                   :
 energy of atom  1       EATOM= -147.1560
 kinetic energy error for atom=    0.0076 (will be added to EATOM!!)
  PAW_PBE N 08Apr2002                   :
 energy of atom  2       EATOM= -264.5486
 kinetic energy error for atom=    0.0138 (will be added to EATOM!!)
  PAW_PBE Ni 02Aug2007                  :
 energy of atom  3       EATOM=-1077.6739
 kinetic energy error for atom=    0.0030 (will be added to EATOM!!)
  PAW_PBE Fe 06Sep2000                  :
 energy of atom  4       EATOM= -594.3153
 kinetic energy error for atom=    0.0026 (will be added to EATOM!!)
 
 
 POSCAR:  C  N Ni Fe                             
  positions in cartesian coordinates
  No initial velocities read in
 exchange correlation table for  LEXCH =        8
   RHO(1)=    0.500       N(1)  =     2000
   RHO(2)=  100.500       N(2)  =     4000

 VTST: version 3.2, (02/03/18)

 CHAIN: initializing optimizer
 
 OPT: Using VASP Conjugate-Gradient optimizer
 CHAIN: Read ICHAIN            0
 
 POSCAR:  C  N Ni Fe                             
  positions in cartesian coordinates
  No initial velocities read in
 


--------------------------------------------------------------------------------------------------------


 ion  position               nearest neighbor table
   1  0.222  0.998  0.500-   3 1.41   4 1.43  17 1.43
   2  0.055  0.099  0.500-  34 1.42   7 1.43   3 1.44
   3  0.111  0.999  0.500-   1 1.41  15 1.43   2 1.44
   4  0.277  0.097  0.500-  19 1.41   5 1.42   1 1.43
   5  0.222  0.196  0.500-   7 1.42   4 1.42   8 1.44
   6  0.054  0.299  0.500-  38 1.42  10 1.44   7 1.44
   7  0.110  0.199  0.500-   5 1.42   2 1.43   6 1.44
   8  0.279  0.295  0.500-  51 1.43  53 1.43   5 1.44  57 2.49
   9  0.057  0.498  0.500-  42 1.42  10 1.45  12 1.45
  10  0.112  0.397  0.500-  51 1.40   6 1.44   9 1.45
  11  0.058  0.698  0.500-  46 1.42  16 1.43  12 1.45
  12  0.116  0.598  0.500-  52 1.42  11 1.45   9 1.45
  13  0.279  0.700  0.500-  52 1.41  14 1.43  25 1.44
  14  0.224  0.799  0.500-  16 1.41  13 1.43  17 1.43
  15  0.056  0.899  0.500-  50 1.41   3 1.43  16 1.44
  16  0.112  0.799  0.500-  14 1.41  11 1.43  15 1.44
  17  0.278  0.899  0.500-  28 1.41   1 1.43  14 1.43
  18  0.556  0.999  0.500-  20 1.41  30 1.42  21 1.43
  19  0.389  0.098  0.500-   4 1.41  20 1.43  23 1.43
  20  0.444  0.998  0.500-  18 1.41  28 1.43  19 1.43
  21  0.611  0.098  0.500-  32 1.41  22 1.41  18 1.43
  22  0.556  0.196  0.500-  55 1.38  21 1.41  23 1.42
  23  0.444  0.197  0.500-  22 1.42  53 1.43  19 1.43
  24  0.558  0.607  0.500-  56 1.39  54 1.41  26 1.42  58 2.53
  25  0.393  0.699  0.500-  54 1.43  29 1.43  13 1.44
  26  0.613  0.705  0.500-  44 1.41  27 1.41  24 1.42
  27  0.557  0.802  0.500-  29 1.41  26 1.41  30 1.42
  28  0.390  0.899  0.500-  17 1.41  20 1.43  29 1.43
  29  0.446  0.800  0.500-  27 1.41  28 1.43  25 1.43
  30  0.612  0.901  0.500-  48 1.41  18 1.42  27 1.42
  31  0.890  1.000  0.500-  33 1.41  34 1.43  50 1.44
  32  0.722  0.100  0.500-  21 1.41  37 1.43  33 1.43
  33  0.778  0.000  0.500-  31 1.41  48 1.43  32 1.43
  34  0.943  0.100  0.500-   2 1.42  31 1.43  35 1.45
  35  0.887  0.200  0.500-  37 1.42  38 1.43  34 1.45
  36  0.714  0.300  0.500-  55 1.39  37 1.45  41 1.46
  37  0.774  0.201  0.500-  35 1.42  32 1.43  36 1.45
  38  0.942  0.300  0.500-   6 1.42  35 1.43  39 1.44
  39  0.885  0.400  0.500-  41 1.44  38 1.44  42 1.46
  40  0.719  0.504  0.500-  56 1.35  45 1.44  41 1.46
  41  0.771  0.400  0.500-  39 1.44  36 1.46  40 1.46
  42  0.944  0.499  0.500-   9 1.42  43 1.44  39 1.46
  43  0.890  0.600  0.500-  45 1.41  46 1.44  42 1.44
  44  0.724  0.702  0.500-  26 1.41  49 1.42  45 1.43
  45  0.778  0.602  0.500-  43 1.41  44 1.43  40 1.44
  46  0.946  0.699  0.500-  11 1.42  43 1.44  47 1.44
  47  0.891  0.800  0.500-  49 1.41  50 1.43  46 1.44
  48  0.724  0.901  0.500-  30 1.41  33 1.43  49 1.43
  49  0.780  0.801  0.500-  47 1.41  44 1.42  48 1.43
  50  0.945  0.900  0.500-  15 1.41  47 1.43  31 1.44
  51  0.222  0.393  0.500-  10 1.40   8 1.43  57 1.80
  52  0.228  0.600  0.500-  13 1.41  12 1.42  57 1.90
  53  0.393  0.299  0.500-  23 1.43   8 1.43  58 1.99  57 2.50
  54  0.447  0.599  0.500-  24 1.41  25 1.43  57 2.05  58 2.42
  55  0.604  0.295  0.500-  22 1.38  36 1.39  58 1.98
  56  0.613  0.511  0.500-  40 1.35  24 1.39  58 1.88
  57  0.329  0.488  0.500-  51 1.80  52 1.90  54 2.05  58 2.37   8 2.49  53 2.50
  58  0.501  0.413  0.500-  56 1.88  55 1.98  53 1.99  57 2.37  54 2.42  24 2.53
 
  LATTYP: Found a triclinic cell.
 ALAT       =    17.8033188971
 B/A-ratio  =     0.7042394776
 C/A-ratio  =     1.1240488426
 COS(alpha) =     0.0000994838
 COS(beta)  =     0.0004809228
 COS(gamma) =     0.7029919957
  
  Lattice vectors:
  
 A1 = (  12.6397080092, -12.5377807124,   0.0000000000)
 A2 = (  -0.0219919908, -12.5377807124,   0.0000000000)
 A3 = (   0.0115608959,  -0.0020111308, -20.0117965596)


Analysis of symmetry for initial positions (statically):
=====================================================================
 Subroutine PRICEL returns:
 Original cell was already a primitive cell.
 

 Routine SETGRP: Setting up the symmetry group for a 
 triclinic supercell.


 Subroutine GETGRP returns: Found  1 space group operations
 (whereof  1 operations were pure point group operations)
 out of a pool of  2 trial point group operations.


The static configuration has the point symmetry C_1 .


Analysis of symmetry for dynamics (positions and initial velocities):
=====================================================================
 Subroutine PRICEL returns:
 Original cell was already a primitive cell.
 

 Routine SETGRP: Setting up the symmetry group for a 
 triclinic supercell.


 Subroutine GETGRP returns: Found  1 space group operations
 (whereof  1 operations were pure point group operations)
 out of a pool of  2 trial point group operations.


The dynamic configuration has the point symmetry C_1 .


Analysis of structural, dynamic, and magnetic symmetry:
=====================================================================
 Subroutine PRICEL returns:
 Original cell was already a primitive cell.
 

 Routine SETGRP: Setting up the symmetry group for a 
 triclinic supercell.


 Subroutine GETGRP returns: Found  1 space group operations
 (whereof  1 operations were pure point group operations)
 out of a pool of  2 trial point group operations.


The magnetic configuration has the point symmetry C_1 .


 Subroutine INISYM returns: Found  1 space group operations
 (whereof  1 operations are pure point group operations),
 and found     1 'primitive' translations

 
 
 KPOINTS: KPOINTS created by Atomic Simulation Env

Automatic generation of k-mesh.
Space group operators:
 irot       det(A)        alpha          n_x          n_y          n_z        tau_x        tau_y        tau_z
    1     1.000000     0.000000     1.000000     0.000000     0.000000     0.000000     0.000000     0.000000
 
 Subroutine IBZKPT returns following result:
 ===========================================
 
 Found      2 irreducible k-points:
 
 Following reciprocal coordinates:
            Coordinates               Weight
  0.250000  0.250000 -0.000000      2.000000
 -0.250000  0.250000  0.000000      2.000000
 
 Following cartesian coordinates:
            Coordinates               Weight
  0.019745  0.019905  0.000009      2.000000
 -0.019745  0.019974 -0.000013      2.000000
 
 
 Subroutine IBZKPT_HF returns following result:
 ==============================================
 
 Found      4 k-points in 1st BZ
 the following      4 k-points will be used (e.g. in the exchange kernel)
 Following reciprocal coordinates:   # in IRBZ
  0.250000  0.250000 -0.000000    0.25000000   1 t-inv F
 -0.250000  0.250000  0.000000    0.25000000   2 t-inv F
 -0.250000 -0.250000  0.000000    0.25000000   1 t-inv T
  0.250000 -0.250000 -0.000000    0.25000000   2 t-inv T


--------------------------------------------------------------------------------------------------------




 Dimension of arrays:
   k-points           NKPTS =      2   k-points in BZ     NKDIM =      4   number of bands    NBANDS=    156
   number of dos      NEDOS =    301   number of ions     NIONS =     58
   non local maximal  LDIM  =      6   non local SUM 2l+1 LMDIM =     18
   total plane-waves  NPLWV = ******
   max r-space proj   IRMAX =      1   max aug-charges    IRDMAX=  15698
   dimension x,y,z NGX =    96 NGY =   96 NGZ =  150
   dimension x,y,z NGXF=   192 NGYF=  192 NGZF=  300
   support grid    NGXF=   192 NGYF=  192 NGZF=  300
   ions per type =              54   2   1   1
   NGX,Y,Z   is equivalent  to a cutoff of  12.60, 12.73, 12.46 a.u.
   NGXF,Y,Z  is equivalent  to a cutoff of  25.21, 25.46, 24.92 a.u.

 SYSTEM =  unknown system                          
 POSCAR =   C  N Ni Fe                             

 Startparameter for this run:
   NWRITE =      2    write-flag & timer
   PREC   = accura    normal or accurate (medium, high low for compatibility)
   ISTART =      1    job   : 0-new  1-cont  2-samecut
   ICHARG =      0    charge: 1-file 2-atom 10-const
   ISPIN  =      2    spin polarized calculation?
   LNONCOLLINEAR =      F non collinear calculations
   LSORBIT =      F    spin-orbit coupling
   INIWAV =      1    electr: 0-lowe 1-rand  2-diag
   LASPH  =      T    aspherical Exc in radial PAW
   METAGGA=      F    non-selfconsistent MetaGGA calc.

 Electronic Relaxation 1
   ENCUT  =  500.0 eV  36.75 Ry    6.06 a.u.  23.09 22.86 36.49*2*pi/ulx,y,z
   ENINI  =  500.0     initial cutoff
   ENAUG  =  644.9 eV  augmentation charge cutoff
   NELM   =    250;   NELMIN=  2; NELMDL=  0     # of ELM steps 
   EDIFF  = 0.1E-03   stopping-criterion for ELM
   LREAL  =      F    real-space projection
   NLSPLINE    = F    spline interpolate recip. space projectors
   LCOMPAT=      F    compatible to vasp.4.4
   GGA_COMPAT  = T    GGA compatible to vasp.4.4-vasp.4.6
   LMAXPAW     = -100 max onsite density
   LMAXMIX     =    2 max onsite mixed and CHGCAR
   VOSKOWN=      0    Vosko Wilk Nusair interpolation
   ROPT   =    0.00000   0.00000   0.00000   0.00000
 Ionic relaxation
   EDIFFG = -.3E-01   stopping-criterion for IOM
   NSW    =      0    number of steps for IOM
   NBLOCK =      1;   KBLOCK =      1    inner block; outer block 
   IBRION =     -1    ionic relax: 0-MD 1-quasi-New 2-CG
   NFREE  =      1    steps in history (QN), initial steepest desc. (CG)
   ISIF   =      2    stress and relaxation
   IWAVPR =     10    prediction:  0-non 1-charg 2-wave 3-comb
   ISYM   =      3    0-nonsym 1-usesym 2-fastsym
   LCORR  =      T    Harris-Foulkes like correction to forces

   POTIM  = 0.5000    time-step for ionic-motion
   TEIN   =    0.0    initial temperature
   TEBEG  =    0.0;   TEEND  =   0.0 temperature during run
   SMASS  =  -3.00    Nose mass-parameter (am)
   estimated Nose-frequenzy (Omega)   =  0.10E-29 period in steps =****** mass=  -0.366E-26a.u.
   SCALEE = 1.0000    scale energy and forces
   NPACO  =    256;   APACO  = 16.0  distance and # of slots for P.C.
   PSTRESS=    0.0 pullay stress

  Mass of Ions in am
   POMASS =  12.01 14.00 58.69 55.85
  Ionic Valenz
   ZVAL   =   4.00  5.00 10.00  8.00
  Atomic Wigner-Seitz radii
   RWIGS  =  -1.00 -1.00 -1.00 -1.00
  virtual crystal weights 
   VCA    =   1.00  1.00  1.00  1.00
   NELECT =     244.0000    total number of electrons
   NUPDOWN=      -1.0000    fix difference up-down

 DOS related values:
   EMIN   =  10.00;   EMAX   =-10.00  energy-range for DOS
   EFERMI =   0.00
   ISMEAR =     0;   SIGMA  =   0.10  broadening in eV -4-tet -1-fermi 0-gaus

 Electronic relaxation 2 (details)
   IALGO  =     53    algorithm
   LDIAG  =      T    sub-space diagonalisation (order eigenvalues)
   LSUBROT=      F    optimize rotation matrix (better conditioning)
   TURBO    =      0    0=normal 1=particle mesh
   IRESTART =      0    0=no restart 2=restart with 2 vectors
   NREBOOT  =      0    no. of reboots
   NMIN     =      0    reboot dimension
   EREF     =   0.00    reference energy to select bands
   IMIX   =      4    mixing-type and parameters
     AMIX     =   0.40;   BMIX     =  1.00
     AMIX_MAG =   1.60;   BMIX_MAG =  1.00
     AMIN     =   0.10
     WC   =   100.;   INIMIX=   1;  MIXPRE=   1;  MAXMIX= -45

 Intra band minimization:
   WEIMIN = 0.0000     energy-eigenvalue tresh-hold
   EBREAK =  0.16E-06  absolut break condition
   DEPER  =   0.30     relativ break condition  

   TIME   =   0.20     timestep for ELM

  volume/ion in A,a.u.               =      54.77       369.63
  Fermi-wavevector in a.u.,A,eV,Ry     =   0.695887  1.315035  6.588734  0.484258
  Thomas-Fermi vector in A             =   1.778784
 
 Write flags
   LWAVE        =      T    write WAVECAR
   LDOWNSAMPLE  =      F    k-point downsampling of WAVECAR
   LCHARG       =      T    write CHGCAR
   LVTOT        =      F    write LOCPOT, total local potential
   LVHAR        =      F    write LOCPOT, Hartree potential only
   LELF         =      F    write electronic localiz. function (ELF)
   LORBIT       =     11    0 simple, 1 ext, 2 COOP (PROOUT), +10 PAW based schemes


 Dipole corrections
   LMONO  =      F    monopole corrections only (constant potential shift)
   LDIPOL =      T    correct potential (dipole corrections)
   IDIPOL =      3    1-x, 2-y, 3-z, 4-all directions 
   EPSILON=  1.0000000 bulk dielectric constant

 Exchange correlation treatment:
   GGA     =    PE    GGA type
   LEXCH   =     8    internal setting for exchange type
   VOSKOWN=      0    Vosko Wilk Nusair interpolation
   EXXOEP  =     0    0=HF, 1=EXX-LHF (local Hartree Fock) 2=EXX OEP
   LHFCALC =     T    Hartree Fock is set to
   LSYMGRAD=     F    symmetrize gradient (conserves proper symmetry)
   PRECFOCK=normal    Normal, Fast or Accurate (Low or Medium for compatibility)
   LRHFCALC=     F    long range Hartree Fock
   LRSCOR  =     F    long range correlation only (use DFT for short range part)
   LTHOMAS =     F    Thomas Fermi screening in HF
   LMODELHF=     F    short range full HF, long range fraction AEXX
   ENCUT4O =  -1.0   cutoff for four orbital integrals eV
   LMAXFOCK=     4    L truncation for augmentation on plane wave grid
   LMAXFOCKAE=  -1    L truncation for all-electron charge restoration on plane wave grid
   NMAXFOCKAE=   1    number of basis functions for all-electron charge restoration
   LFOCKAEDFT=     F  apply the AE augmentation even for DFT
   NKREDX  =     1    reduce k-point grid by
   NKREDY  =     1    reduce k-point grid by
   NKREDZ  =     1    reduce k-point grid by
   SHIFTRED=     F    shift reduced grid of Gamma
   HFKIDENT=     F    idential grid for each k-point
   ODDONLY =     F    use only odd q-grid points
   EVENONLY=     F    use only even q-grid points
   HFALPHA =   -1.0000 decay constant for conv. correction
   MCALPHA =    0.0000 extent of test-charge in conv. correction in multipole expansion
   AEXX    =    0.2500 exact exchange contribution
   HFSCREEN=    0.2000 screening length (either q_TF or 0.3 A-1)
   HFSCREENC=   0.2000 screening length for correlation (either q_TF or 0.3 A-1)
   HFRCUT  =    0.0000 spherical cutoff for potential kernel
   ALDAX   =    0.7500 LDA exchange part
   AGGAX   =    0.7500 GGA exchange part
   ALDAC   =    1.0000 LDA correlation
   AGGAC   =    1.0000 GGA correlation
   ENCUTFOCK=  -1.0 apply spherical cutoff to Coloumb kernel
   NBANDSGWLOW=     1    first orbital included in HF term
   NBLOCK_FOCK=    64    blocking factor in FOCK_ACC
 Linear response parameters
   LEPSILON=     F    determine dielectric tensor
   LRPA    =     F    only Hartree local field effects (RPA)
   LNABLA  =     F    use nabla operator in PAW spheres
   LVEL    =     F    velocity operator in full k-point grid
   LINTERFAST=   F  fast interpolation
   KINTER  =     0    interpolate to denser k-point grid
   CSHIFT  =0.1000    complex shift for real part using Kramers Kronig
   OMEGAMAX=  -1.0    maximum frequency
   DEG_THRESHOLD= 0.2000000E-02 threshold for treating states as degnerate
   RTIME   =   -0.100 relaxation time in fs
  (WPLASMAI=    0.000 imaginary part of plasma frequency in eV, 0.658/RTIME)
   DFIELD  = 0.0000000 0.0000000 0.0000000 field for delta impulse in time
 
 Orbital magnetization related:
   ORBITALMAG=     F  switch on orbital magnetization
   LCHIMAG   =     F  perturbation theory with respect to B field
   DQ        =  0.001000  dq finite difference perturbation B field
   LLRAUG    =     F  two centre corrections for induced B field



--------------------------------------------------------------------------------------------------------


 Static calculation
 charge density and potential will be updated during run
 spin polarized calculation
 Conjugate gradient for all bands (Freysoldt, et al. PRB 79, 241103 (2009))
 perform sub-space diagonalisation
    before iterative eigenvector-optimisation
 modified Broyden-mixing scheme, WC =      100.0
 initial mixing is a Kerker type mixing with AMIX =  0.4000 and BMIX =      1.0000
 Hartree-type preconditioning will be used
 using additional bands           34
 reciprocal scheme for non local part
 use partial core corrections
 no Harris-corrections to forces 
 use gradient corrections 
 use of overlap-Matrix (Vanderbilt PP)
 Gauss-broadening in eV      SIGMA  =   0.10


--------------------------------------------------------------------------------------------------------


  energy-cutoff  :      500.00
  volume of cell :     3176.87
      direct lattice vectors                 reciprocal lattice vectors
    12.661700000  0.000000000  0.000000000     0.078978336 -0.000138533  0.000045640
     0.021991991 12.537780712  0.000000000     0.000000000  0.079758932 -0.000008016
    -0.011560896  0.002011131 20.011796560     0.000000000  0.000000000  0.049970526

  length of vectors
    12.661700000 12.537800000 20.011800000     0.078978471  0.079758932  0.049970526


 
 old parameters found on file WAVECAR:
  energy-cutoff  :      500.00
  volume of cell :     3176.87
      direct lattice vectors                 reciprocal lattice vectors
    12.661700000  0.000000000  0.000000000     0.078978336 -0.000138533  0.000045640
     0.021991991 12.537780712  0.000000000     0.000000000  0.079758932 -0.000008016
    -0.011560896  0.002011131 20.011796560     0.000000000  0.000000000  0.049970526

  length of vectors

 
 k-points in units of 2pi/SCALE and weight: KPOINTS created by Atomic Simulation Env
   0.01974458  0.01990510  0.00000941       0.500
  -0.01974458  0.01997437 -0.00001341       0.500
 
 k-points in reciprocal lattice and weights: KPOINTS created by Atomic Simulation Env
   0.25000000  0.25000000 -0.00000000       0.500
  -0.25000000  0.25000000  0.00000000       0.500
 
 position of ions in fractional coordinates (direct lattice) 
   0.22233096  0.99811482  0.50002214
   0.05493898  0.09909678  0.49997743
   0.11061564  0.99897098  0.50000448
   0.27735095  0.09737071  0.50005012
   0.22219617  0.19649050  0.50006879
   0.05437182  0.29857300  0.49997740
   0.11019833  0.19853378  0.50000013
   0.27931876  0.29542068  0.50015518
   0.05653386  0.49827108  0.49995420
   0.11182803  0.39728219  0.49997852
   0.05848664  0.69809170  0.49999726
   0.11567037  0.59757725  0.49998503
   0.27922187  0.69985778  0.50007747
   0.22354926  0.79907264  0.50006176
   0.05649683  0.89892431  0.50001084
   0.11202795  0.79863021  0.50003576
   0.27793584  0.89897638  0.50003436
   0.55592808  0.99921107  0.49987691
   0.38893938  0.09766720  0.50004964
   0.44429805  0.99834826  0.49994234
   0.61116863  0.09828234  0.49995233
   0.55599325  0.19638513  0.50015703
   0.44371961  0.19738155  0.50018669
   0.55784367  0.60689355  0.50021626
   0.39280694  0.69880962  0.50011231
   0.61326642  0.70480133  0.50005133
   0.55714272  0.80237431  0.49995639
   0.38954551  0.89893496  0.49998095
   0.44584994  0.79976654  0.50001114
   0.61221968  0.90118909  0.49986569
   0.88964379  0.99989382  0.49993798
   0.72237021  0.09950324  0.49993727
   0.77832630  0.00030179  0.49989487
   0.94304037  0.10017794  0.49995341
   0.88659745  0.20049331  0.49997621
   0.71421870  0.29967118  0.50017491
   0.77417579  0.20077866  0.50001976
   0.94186340  0.29985314  0.49998224
   0.88487835  0.39964657  0.50002747
   0.71881300  0.50401278  0.50019467
   0.77122064  0.40036429  0.50015798
   0.94440955  0.49889593  0.49997479
   0.88993280  0.59992191  0.49997798
   0.72442581  0.70240905  0.50000131
   0.77846184  0.60187361  0.50004157
   0.94627070  0.69914654  0.49996811
   0.89112621  0.79973345  0.49995805
   0.72369205  0.90080089  0.49988321
   0.77964363  0.80119954  0.49993305
   0.94528243  0.89979132  0.49997027
   0.22201025  0.39341478  0.50005618
   0.22775717  0.59984277  0.50003533
   0.39253846  0.29877519  0.50029017
   0.44694195  0.59886714  0.50021896
   0.60436450  0.29479805  0.50030846
   0.61276596  0.51110279  0.50034517
   0.32891632  0.48770161  0.50008839
   0.50080826  0.41334897  0.50045232
 
 position of ions in cartesian coordinates  (Angst):
   2.83125770 12.51515038 10.00634135
   0.69202008  1.24345920 10.00544655
   1.41677092 12.52588466 10.00598790
   3.50809484  1.22181833 10.00690123
   2.81192117  2.46456045 10.00727487
   0.68922573  3.74444834 10.00544609
   1.39388387  2.49017858 10.00590079
   3.53736500  3.70492562 10.00900369
   0.72099277  6.24821897 10.00498171
   1.41888985  4.98204249 10.00546834
   0.75011226  8.75352621 10.00584354
   1.47194510  7.49329801 10.00559868
   3.54503345  8.77566910 10.00744868
   2.84230567 10.01960319 10.00713429
   0.72933446 11.27152150 10.00611530
   1.43024693 10.01405608 10.00661399
   3.53312962 11.27217440 10.00658589
   7.05519022 12.52889461 10.00343496
   4.92100058  1.22553557 10.00689169
   5.64174451 12.51807701 10.00474445
   7.73481532  1.23324787 10.00494431
   7.03835634  2.46323957 10.00904078
   5.61680280  2.47573252 10.00963429
   7.07081306  7.61010419 10.01022596
   4.98319014  8.76252755 10.00814583
   7.77471433  8.83765021 10.00692546
   7.06623983 10.06099866 10.00502558
   4.94629749 11.27165493 10.00551711
   5.65702602 10.02830313 10.00612123
   7.76578196 11.29991652 10.00321058
  11.28061270 12.53745488 10.00465717
   9.14284350  1.24855522 10.00464294
   9.84916153  0.00478907 10.00379439
  11.93691750  1.25701457 10.00496585
  11.22445998  2.51474669 10.00542226
   9.04403079  3.75821744 10.00939863
   9.80101642  2.51832436 10.00629374
  11.92640593  3.76049843 10.00554294
  11.20707247  5.01168667 10.00644804
   9.10669613  6.32020768 10.00979403
   9.76798686  5.02068551 10.00905967
  11.96302191  6.25605329 10.00539388
  11.27547541  7.52269487 10.00545764
   9.18212917  8.80765624 10.00592457
   9.86410576  7.54716505 10.00673012
  11.99099133  8.76675151 10.00526007
  11.29498050 10.02788807 10.00505879
   9.17720298 11.29504939 10.00356120
   9.88345407 10.04626963 10.00455848
  11.98289058 11.28239178 10.00530338
   2.81389810  4.93355394 10.00702259
   2.89120387  7.52170279 10.00660531
   4.97099107  3.74698396 10.01170516
   5.66643216  7.50947089 10.01028007
   7.65298119  3.69711948 10.01207105
   7.76411447  6.40910096 10.01280575
   4.16958384  6.11570152 10.00766706
   6.34438862  5.18348521 10.01494993
 


--------------------------------------------------------------------------------------------------------


 k-point  1 :   0.2500 0.2500-0.0000  plane waves:   80657
 k-point  2 :  -0.2500 0.2500 0.0000  plane waves:   80666

 maximum and minimum number of plane-waves per node :      2554     2481

 maximum number of plane-waves:     80666
 maximum index in each direction: 
   IXMAX=   23   IYMAX=   22   IZMAX=   36
   IXMIN=  -23   IYMIN=  -23   IZMIN=  -36


 parallel 3D FFT for wavefunctions:
    minimum data exchange during FFTs selected (reduces bandwidth)
 parallel 3D FFT for charge:
    minimum data exchange during FFTs selected (reduces bandwidth)


 FFT grid for exact exchange (Hartree Fock) 
  NGX = 70; NGY = 70; NGZ =112

 
 Radii for the augmentation spheres in the non-local exchange
 for species   1 augmentation radius   0.874 (default was   0.699)
       energy cutoff for augmentation   2000.0
 for species   2 augmentation radius   0.886 (default was   0.709)
       energy cutoff for augmentation   2000.0
 for species   3 augmentation radius   1.224 (default was   0.979)
       energy cutoff for augmentation   2000.0
 for species   4 augmentation radius   1.263 (default was   1.010)
       energy cutoff for augmentation   2000.0

 real space projection operators:
  total allocation   :       2415.95 KBytes
  max/ min on nodes  :        108.11         39.52

 Maximum index for augmentation-charges in exchange          128
  SETUP_FOCK is finished

 total amount of memory used by VASP MPI-rank0   165591. kBytes
=======================================================================

   base      :      30000. kBytes
   nonl-proj :       5328. kBytes
   fftplans  :      14250. kBytes
   grid      :      36827. kBytes
   one-center:         62. kBytes
   HF        :         23. kBytes
   nonlr-proj:       1587. kBytes
   wavefun   :      77514. kBytes
 
     INWAV:  cpu time    3.5106: real time    3.5114
 Broyden mixing: mesh for mixing (old mesh)
   NGX = 47   NGY = 45   NGZ = 73
  (NGX  =192   NGY  =192   NGZ  =300)
  gives a total of 154395 points

 charge density for first step will be calculated from the start-wavefunctions


--------------------------------------------------------------------------------------------------------


 Maximum index for augmentation-charges          734 (set IRDMAX)


--------------------------------------------------------------------------------------------------------


 initial charge from wavefunction
 First call to EWALD:  gamma=   0.121
 Maximum number of real-space cells 3x 3x 2
 Maximum number of reciprocal cells 2x 2x 4

    FEWALD:  cpu time    0.0036: real time    0.0036


--------------------------------------- Iteration      1(   1)  ---------------------------------------


    POTLOK:  cpu time    1.3802: real time    1.3810
    SETDIJ:  cpu time    2.0899: real time    2.0912
    TRIAL :  cpu time  519.6372: real time  519.8603
    CORREC:  cpu time    0.0015: real time    0.0018
    CHARGE:  cpu time    1.6812: real time    1.6816
    --------------------------------------------
      LOOP:  cpu time  524.8065: real time  525.0345

 eigenvalue-minimisations  :     0
 total energy-change (2. order) :-0.6030622E+03  (-0.4712420E+00)
 number of electron     243.9999998 magnetization       2.0000002
 augmentation part       15.8231792 magnetization       1.5151047

 DIPCOR: dipole corrections for dipol
 direction  3 min pos     1,
 dipolmoment           0.000000     -0.000000     -0.000414 electrons x Angstroem
 Tr[quadrupol]     -6582.498338

 energy correction for charged system         0.000000 eV
 dipol+quadrupol energy correction            0.000000 eV
 added-field ion interaction          0.000000 eV  (added to PSCEN)


 Free energy of the ion-electron system (eV)
  ---------------------------------------------------
  alpha Z        PSCENC =        99.03815231
  Ewald energy   TEWEN  =     39338.78984456
  -Hartree energ DENC   =    -48024.80319722
  -exchange      EXHF   =       550.97277509
  -V(xc)+E(xc)   XCENC  =       626.13412574
  PAW double counting   =     26572.68675959   -26672.06677282
  entropy T*S    EENTRO =        -0.00000008
  eigenvalues    EBANDS =     -3130.73592632
  atomic energy  EATOM  =     10036.92208704
  ---------------------------------------------------
  free energy    TOTEN  =      -603.06215330 eV

  energy without entropy =     -603.06215322  energy(sigma->0) =     -603.06215326
  exchange ACFDT corr.  =        -0.00000083  see jH, gK, PRB 81, 115126


--------------------------------------------------------------------------------------------------------




--------------------------------------- Iteration      1(   2)  ---------------------------------------


    POTLOK:  cpu time    1.3976: real time    1.3982
    SETDIJ:  cpu time    2.0857: real time    2.0860
    TRIAL :  cpu time  519.3966: real time  519.5729
    CORREC:  cpu time    0.0014: real time    0.0017
    CHARGE:  cpu time    1.6824: real time    1.6828
    --------------------------------------------
      LOOP:  cpu time  524.6697: real time  524.9240

 eigenvalue-minimisations  :     0
 total energy-change (2. order) :-0.3694302E+00  (-0.4002197E+00)
 number of electron     243.9999998 magnetization       2.0000002
 augmentation part       15.8052416 magnetization       1.5371035

 DIPCOR: dipole corrections for dipol
 direction  3 min pos     1,
 dipolmoment           0.000000     -0.000000     -0.000451 electrons x Angstroem
 Tr[quadrupol]     -6582.348427

 energy correction for charged system         0.000000 eV
 dipol+quadrupol energy correction            0.000000 eV
 added-field ion interaction          0.000000 eV  (added to PSCEN)


 Free energy of the ion-electron system (eV)
  ---------------------------------------------------
  alpha Z        PSCENC =        99.03815231
  Ewald energy   TEWEN  =     39338.78984456
  -Hartree energ DENC   =    -48016.54866018
  -exchange      EXHF   =       550.96752430
  -V(xc)+E(xc)   XCENC  =       625.90393778
  PAW double counting   =     26699.61372030   -26799.88504078
  entropy T*S    EENTRO =        -0.00000000
  eigenvalues    EBANDS =     -3138.23314871
  atomic energy  EATOM  =     10036.92208704
  ---------------------------------------------------
  free energy    TOTEN  =      -603.43158347 eV

  energy without entropy =     -603.43158346  energy(sigma->0) =     -603.43158347
  exchange ACFDT corr.  =        -0.00000003  see jH, gK, PRB 81, 115126


--------------------------------------------------------------------------------------------------------




--------------------------------------- Iteration      1(   3)  ---------------------------------------


    POTLOK:  cpu time    1.4018: real time    1.4025
    SETDIJ:  cpu time    2.0845: real time    2.0849
    TRIAL :  cpu time  518.1716: real time  518.3482
    CORREC:  cpu time    0.0012: real time    0.0014
    CHARGE:  cpu time    1.6767: real time    1.6772
    --------------------------------------------
      LOOP:  cpu time  523.3382: real time  523.5166

 eigenvalue-minimisations  :     0
 total energy-change (2. order) :-0.3138647E+00  (-0.2362224E+00)
 number of electron     243.9999998 magnetization       2.0000002
 augmentation part       15.7802856 magnetization       1.5528502

 DIPCOR: dipole corrections for dipol
 direction  3 min pos     1,
 dipolmoment           0.000000     -0.000000     -0.000403 electrons x Angstroem
 Tr[quadrupol]     -6582.165907

 energy correction for charged system         0.000000 eV
 dipol+quadrupol energy correction            0.000000 eV
 added-field ion interaction          0.000000 eV  (added to PSCEN)


 Free energy of the ion-electron system (eV)
  ---------------------------------------------------
  alpha Z        PSCENC =        99.03815231
  Ewald energy   TEWEN  =     39338.78984456
  -Hartree energ DENC   =    -48001.14758790
  -exchange      EXHF   =       550.91158781
  -V(xc)+E(xc)   XCENC  =       625.51091867
  PAW double counting   =     26853.53790234   -26953.11564250
  entropy T*S    EENTRO =        -0.00000000
  eigenvalues    EBANDS =     -3154.19271049
  atomic energy  EATOM  =     10036.92208704
  ---------------------------------------------------
  free energy    TOTEN  =      -603.74544817 eV

  energy without entropy =     -603.74544817  energy(sigma->0) =     -603.74544817
  exchange ACFDT corr.  =        -0.00000000  see jH, gK, PRB 81, 115126


--------------------------------------------------------------------------------------------------------




--------------------------------------- Iteration      1(   4)  ---------------------------------------


    POTLOK:  cpu time    1.4059: real time    1.4061
    SETDIJ:  cpu time    2.0828: real time    2.0835
    TRIAL :  cpu time  517.3687: real time  517.5170
    CORREC:  cpu time    0.0010: real time    0.0014
    CHARGE:  cpu time    1.6784: real time    1.6790
    --------------------------------------------
      LOOP:  cpu time  522.5393: real time  522.6893

 eigenvalue-minimisations  :     0
 total energy-change (2. order) :-0.1768854E+00  (-0.1337288E+00)
 number of electron     243.9999998 magnetization       2.0000002
 augmentation part       15.7881502 magnetization       1.5592993

 DIPCOR: dipole corrections for dipol
 direction  3 min pos     1,
 dipolmoment           0.000000     -0.000000     -0.000408 electrons x Angstroem
 Tr[quadrupol]     -6582.080114

 energy correction for charged system         0.000000 eV
 dipol+quadrupol energy correction            0.000000 eV
 added-field ion interaction          0.000000 eV  (added to PSCEN)


 Free energy of the ion-electron system (eV)
  ---------------------------------------------------
  alpha Z        PSCENC =        99.03815231
  Ewald energy   TEWEN  =     39338.78984456
  -Hartree energ DENC   =    -47991.71546068
  -exchange      EXHF   =       551.00311569
  -V(xc)+E(xc)   XCENC  =       625.27953060
  PAW double counting   =     26987.96173215   -27086.60163919
  entropy T*S    EENTRO =        -0.00000000
  eigenvalues    EBANDS =     -3164.59969599
  atomic energy  EATOM  =     10036.92208704
  ---------------------------------------------------
  free energy    TOTEN  =      -603.92233352 eV

  energy without entropy =     -603.92233352  energy(sigma->0) =     -603.92233352
  exchange ACFDT corr.  =        -0.00000000  see jH, gK, PRB 81, 115126


--------------------------------------------------------------------------------------------------------




--------------------------------------- Iteration      1(   5)  ---------------------------------------


    POTLOK:  cpu time    1.4047: real time    1.4050
    SETDIJ:  cpu time    2.0809: real time    2.0814
    TRIAL :  cpu time  516.8656: real time  517.0066
    CORREC:  cpu time    0.0010: real time    0.0014
    CHARGE:  cpu time    1.6774: real time    1.6780
    --------------------------------------------
      LOOP:  cpu time  522.0322: real time  522.1749

 eigenvalue-minimisations  :     0
 total energy-change (2. order) :-0.1076791E+00  (-0.8596578E-01)
 number of electron     243.9999998 magnetization       2.0000002
 augmentation part       15.8048110 magnetization       1.5598859

 DIPCOR: dipole corrections for dipol
 direction  3 min pos     1,
 dipolmoment           0.000000     -0.000000     -0.000478 electrons x Angstroem
 Tr[quadrupol]     -6582.109851

 energy correction for charged system         0.000000 eV
 dipol+quadrupol energy correction            0.000000 eV
 added-field ion interaction          0.000000 eV  (added to PSCEN)


 Free energy of the ion-electron system (eV)
  ---------------------------------------------------
  alpha Z        PSCENC =        99.03815231
  Ewald energy   TEWEN  =     39338.78984456
  -Hartree energ DENC   =    -47993.36974731
  -exchange      EXHF   =       551.28851867
  -V(xc)+E(xc)   XCENC  =       625.32751513
  PAW double counting   =     27091.62290497   -27190.33425891
  entropy T*S    EENTRO =        -0.00000000
  eigenvalues    EBANDS =     -3163.31502911
  atomic energy  EATOM  =     10036.92208704
  ---------------------------------------------------
  free energy    TOTEN  =      -604.03001265 eV

  energy without entropy =     -604.03001265  energy(sigma->0) =     -604.03001265
  exchange ACFDT corr.  =        -0.00000000  see jH, gK, PRB 81, 115126


--------------------------------------------------------------------------------------------------------




--------------------------------------- Iteration      1(   6)  ---------------------------------------


    POTLOK:  cpu time    1.4054: real time    1.4056
    SETDIJ:  cpu time    2.0863: real time    2.0867
    TRIAL :  cpu time  516.7049: real time  516.8287
    CORREC:  cpu time    0.0010: real time    0.0013
    CHARGE:  cpu time    1.6628: real time    1.6631
    --------------------------------------------
      LOOP:  cpu time  521.8632: real time  521.9883

 eigenvalue-minimisations  :     0
 total energy-change (2. order) :-0.7050796E-01  (-0.5557499E-01)
 number of electron     243.9999998 magnetization       2.0000002
 augmentation part       15.8114539 magnetization       1.5580394

 DIPCOR: dipole corrections for dipol
 direction  3 min pos     1,
 dipolmoment           0.000000     -0.000000     -0.000542 electrons x Angstroem
 Tr[quadrupol]     -6582.179257

 energy correction for charged system         0.000000 eV
 dipol+quadrupol energy correction            0.000000 eV
 added-field ion interaction          0.000000 eV  (added to PSCEN)


 Free energy of the ion-electron system (eV)
  ---------------------------------------------------
  alpha Z        PSCENC =        99.03815231
  Ewald energy   TEWEN  =     39338.78984456
  -Hartree energ DENC   =    -47998.81968556
  -exchange      EXHF   =       551.60547021
  -V(xc)+E(xc)   XCENC  =       625.47488808
  PAW double counting   =     27162.35594801   -27261.39526647
  entropy T*S    EENTRO =        -0.00000000
  eigenvalues    EBANDS =     -3158.07195878
  atomic energy  EATOM  =     10036.92208704
  ---------------------------------------------------
  free energy    TOTEN  =      -604.10052061 eV

  energy without entropy =     -604.10052061  energy(sigma->0) =     -604.10052061
  exchange ACFDT corr.  =        -0.00000000  see jH, gK, PRB 81, 115126


--------------------------------------------------------------------------------------------------------




--------------------------------------- Iteration      1(   7)  ---------------------------------------


    POTLOK:  cpu time    1.4004: real time    1.4007
    SETDIJ:  cpu time    2.0808: real time    2.0812
    TRIAL :  cpu time  517.7460: real time  517.8801
    CORREC:  cpu time    0.0010: real time    0.0013
    CHARGE:  cpu time    1.6680: real time    1.6682
    --------------------------------------------
      LOOP:  cpu time  522.8989: real time  523.0343

 eigenvalue-minimisations  :     0
 total energy-change (2. order) :-0.4747234E-01  (-0.3731639E-01)
 number of electron     243.9999998 magnetization       2.0000002
 augmentation part       15.8124583 magnetization       1.5553485

 DIPCOR: dipole corrections for dipol
 direction  3 min pos     1,
 dipolmoment           0.000000     -0.000000     -0.000577 electrons x Angstroem
 Tr[quadrupol]     -6582.233194

 energy correction for charged system         0.000000 eV
 dipol+quadrupol energy correction            0.000000 eV
 added-field ion interaction          0.000000 eV  (added to PSCEN)


 Free energy of the ion-electron system (eV)
  ---------------------------------------------------
  alpha Z        PSCENC =        99.03815231
  Ewald energy   TEWEN  =     39338.78984456
  -Hartree energ DENC   =    -48002.60723718
  -exchange      EXHF   =       551.84491882
  -V(xc)+E(xc)   XCENC  =       625.58579086
  PAW double counting   =     27205.46034190   -27304.52825581
  entropy T*S    EENTRO =        -0.00000000
  eigenvalues    EBANDS =     -3154.65363545
  atomic energy  EATOM  =     10036.92208704
  ---------------------------------------------------
  free energy    TOTEN  =      -604.14799295 eV

  energy without entropy =     -604.14799295  energy(sigma->0) =     -604.14799295
  exchange ACFDT corr.  =        -0.00000000  see jH, gK, PRB 81, 115126


--------------------------------------------------------------------------------------------------------




--------------------------------------- Iteration      1(   8)  ---------------------------------------


    POTLOK:  cpu time    1.3947: real time    1.3950
    SETDIJ:  cpu time    2.1165: real time    2.1169
    TRIAL :  cpu time  516.5288: real time  516.6532
    CORREC:  cpu time    0.0010: real time    0.0013
    CHARGE:  cpu time    1.6689: real time    1.6690
    --------------------------------------------
      LOOP:  cpu time  521.7126: real time  521.8380

 eigenvalue-minimisations  :     0
 total energy-change (2. order) :-0.3198979E-01  (-0.2466171E-01)
 number of electron     243.9999998 magnetization       2.0000002
 augmentation part       15.8160325 magnetization       1.5525255

 DIPCOR: dipole corrections for dipol
 direction  3 min pos     1,
 dipolmoment           0.000000     -0.000000     -0.000590 electrons x Angstroem
 Tr[quadrupol]     -6582.260839

 energy correction for charged system         0.000000 eV
 dipol+quadrupol energy correction            0.000000 eV
 added-field ion interaction          0.000000 eV  (added to PSCEN)


 Free energy of the ion-electron system (eV)
  ---------------------------------------------------
  alpha Z        PSCENC =        99.03815231
  Ewald energy   TEWEN  =     39338.78984456
  -Hartree energ DENC   =    -48004.34800728
  -exchange      EXHF   =       552.00227079
  -V(xc)+E(xc)   XCENC  =       625.64652933
  PAW double counting   =     27229.71506770   -27328.68342967
  entropy T*S    EENTRO =        -0.00000000
  eigenvalues    EBANDS =     -3153.26249752
  atomic energy  EATOM  =     10036.92208704
  ---------------------------------------------------
  free energy    TOTEN  =      -604.17998274 eV

  energy without entropy =     -604.17998274  energy(sigma->0) =     -604.17998274
  exchange ACFDT corr.  =        -0.00000000  see jH, gK, PRB 81, 115126


--------------------------------------------------------------------------------------------------------




--------------------------------------- Iteration      1(   9)  ---------------------------------------


    POTLOK:  cpu time    1.3904: real time    1.3907
    SETDIJ:  cpu time    2.0832: real time    2.0835
    TRIAL :  cpu time  516.7924: real time  516.9244
    CORREC:  cpu time    0.0010: real time    0.0014
    CHARGE:  cpu time    1.6703: real time    1.6705
    --------------------------------------------
      LOOP:  cpu time  521.9396: real time  522.0729

 eigenvalue-minimisations  :     0
 total energy-change (2. order) :-0.2168052E-01  (-0.1712213E-01)
 number of electron     243.9999998 magnetization       2.0000002
 augmentation part       15.8209093 magnetization       1.5499656

 DIPCOR: dipole corrections for dipol
 direction  3 min pos     1,
 dipolmoment           0.000000     -0.000000     -0.000594 electrons x Angstroem
 Tr[quadrupol]     -6582.271798

 energy correction for charged system         0.000000 eV
 dipol+quadrupol energy correction            0.000000 eV
 added-field ion interaction          0.000000 eV  (added to PSCEN)


 Free energy of the ion-electron system (eV)
  ---------------------------------------------------
  alpha Z        PSCENC =        99.03815231
  Ewald energy   TEWEN  =     39338.78984456
  -Hartree energ DENC   =    -48005.32145440
  -exchange      EXHF   =       552.10958292
  -V(xc)+E(xc)   XCENC  =       625.68505086
  PAW double counting   =     27243.10895881   -27342.11279191
  entropy T*S    EENTRO =        -0.00000000
  eigenvalues    EBANDS =     -3152.42109346
  atomic energy  EATOM  =     10036.92208704
  ---------------------------------------------------
  free energy    TOTEN  =      -604.20166327 eV

  energy without entropy =     -604.20166327  energy(sigma->0) =     -604.20166327
  exchange ACFDT corr.  =        -0.00000000  see jH, gK, PRB 81, 115126


--------------------------------------------------------------------------------------------------------




--------------------------------------- Iteration      1(  10)  ---------------------------------------


    POTLOK:  cpu time    1.3858: real time    1.3860
    SETDIJ:  cpu time    2.0778: real time    2.0787
    TRIAL :  cpu time  517.3698: real time  517.4828
    CORREC:  cpu time    0.0010: real time    0.0013
    CHARGE:  cpu time    1.6724: real time    1.6728
    --------------------------------------------
      LOOP:  cpu time  522.5093: real time  522.6242

 eigenvalue-minimisations  :     0
 total energy-change (2. order) :-0.1515889E-01  (-0.1181438E-01)
 number of electron     243.9999998 magnetization       2.0000002
 augmentation part       15.8236990 magnetization       1.5477228

 DIPCOR: dipole corrections for dipol
 direction  3 min pos     1,
 dipolmoment           0.000000     -0.000000     -0.000594 electrons x Angstroem
 Tr[quadrupol]     -6582.274259

 energy correction for charged system         0.000000 eV
 dipol+quadrupol energy correction            0.000000 eV
 added-field ion interaction          0.000000 eV  (added to PSCEN)


 Free energy of the ion-electron system (eV)
  ---------------------------------------------------
  alpha Z        PSCENC =        99.03815231
  Ewald energy   TEWEN  =     39338.78984456
  -Hartree energ DENC   =    -48005.86766918
  -exchange      EXHF   =       552.18388452
  -V(xc)+E(xc)   XCENC  =       625.70901321
  PAW double counting   =     27250.24109278   -27349.35988063
  entropy T*S    EENTRO =        -0.00000000
  eigenvalues    EBANDS =     -3151.87334676
  atomic energy  EATOM  =     10036.92208704
  ---------------------------------------------------
  free energy    TOTEN  =      -604.21682215 eV

  energy without entropy =     -604.21682215  energy(sigma->0) =     -604.21682215
  exchange ACFDT corr.  =        -0.00000000  see jH, gK, PRB 81, 115126


--------------------------------------------------------------------------------------------------------




--------------------------------------- Iteration      1(  11)  ---------------------------------------


    POTLOK:  cpu time    1.3811: real time    1.3814
    SETDIJ:  cpu time    2.0799: real time    2.0802
    TRIAL :  cpu time  517.1417: real time  517.2730
    CORREC:  cpu time    0.0010: real time    0.0013
    CHARGE:  cpu time    1.6718: real time    1.6721
    --------------------------------------------
      LOOP:  cpu time  522.2783: real time  522.4108

 eigenvalue-minimisations  :     0
 total energy-change (2. order) :-0.1059249E-01  (-0.8417533E-02)
 number of electron     243.9999998 magnetization       2.0000002
 augmentation part       15.8241344 magnetization       1.5456467

 DIPCOR: dipole corrections for dipol
 direction  3 min pos     1,
 dipolmoment           0.000000     -0.000000     -0.000592 electrons x Angstroem
 Tr[quadrupol]     -6582.273238

 energy correction for charged system         0.000000 eV
 dipol+quadrupol energy correction            0.000000 eV
 added-field ion interaction          0.000000 eV  (added to PSCEN)


 Free energy of the ion-electron system (eV)
  ---------------------------------------------------
  alpha Z        PSCENC =        99.03815231
  Ewald energy   TEWEN  =     39338.78984456
  -Hartree energ DENC   =    -48005.97543619
  -exchange      EXHF   =       552.23448997
  -V(xc)+E(xc)   XCENC  =       625.71894562
  PAW double counting   =     27253.74353642   -27352.93171162
  entropy T*S    EENTRO =        -0.00000000
  eigenvalues    EBANDS =     -3151.76732274
  atomic energy  EATOM  =     10036.92208704
  ---------------------------------------------------
  free energy    TOTEN  =      -604.22741464 eV

  energy without entropy =     -604.22741464  energy(sigma->0) =     -604.22741464
  exchange ACFDT corr.  =        -0.00000000  see jH, gK, PRB 81, 115126


--------------------------------------------------------------------------------------------------------




--------------------------------------- Iteration      1(  12)  ---------------------------------------


    POTLOK:  cpu time    1.3746: real time    1.3749
    SETDIJ:  cpu time    2.0837: real time    2.0841
    TRIAL :  cpu time  517.6972: real time  517.8119
    CORREC:  cpu time    0.0010: real time    0.0013
    CHARGE:  cpu time    1.6772: real time    1.6775
    --------------------------------------------
      LOOP:  cpu time  522.8361: real time  522.9520

 eigenvalue-minimisations  :     0
 total energy-change (2. order) :-0.7618979E-02  (-0.6050915E-02)
 number of electron     243.9999998 magnetization       2.0000002
 augmentation part       15.8243499 magnetization       1.5436354

 DIPCOR: dipole corrections for dipol
 direction  3 min pos     1,
 dipolmoment           0.000000     -0.000000     -0.000591 electrons x Angstroem
 Tr[quadrupol]     -6582.272048

 energy correction for charged system         0.000000 eV
 dipol+quadrupol energy correction            0.000000 eV
 added-field ion interaction          0.000000 eV  (added to PSCEN)


 Free energy of the ion-electron system (eV)
  ---------------------------------------------------
  alpha Z        PSCENC =        99.03815231
  Ewald energy   TEWEN  =     39338.78984456
  -Hartree energ DENC   =    -48005.84270459
  -exchange      EXHF   =       552.27091477
  -V(xc)+E(xc)   XCENC  =       625.72045553
  PAW double counting   =     27255.46635711   -27354.65682159
  entropy T*S    EENTRO =        -0.00000000
  eigenvalues    EBANDS =     -3151.94331876
  atomic energy  EATOM  =     10036.92208704
  ---------------------------------------------------
  free energy    TOTEN  =      -604.23503362 eV

  energy without entropy =     -604.23503362  energy(sigma->0) =     -604.23503362
  exchange ACFDT corr.  =        -0.00000000  see jH, gK, PRB 81, 115126


--------------------------------------------------------------------------------------------------------




--------------------------------------- Iteration      1(  13)  ---------------------------------------


    POTLOK:  cpu time    1.3719: real time    1.3721
    SETDIJ:  cpu time    2.0786: real time    2.0792
    TRIAL :  cpu time  518.1332: real time  518.2649
    CORREC:  cpu time    0.0010: real time    0.0013
    CHARGE:  cpu time    1.6782: real time    1.6784
    --------------------------------------------
      LOOP:  cpu time  523.2652: real time  523.3984

 eigenvalue-minimisations  :     0
 total energy-change (2. order) :-0.5512817E-02  (-0.4411298E-02)
 number of electron     243.9999998 magnetization       2.0000002
 augmentation part       15.8253531 magnetization       1.5416716

 DIPCOR: dipole corrections for dipol
 direction  3 min pos     1,
 dipolmoment           0.000000     -0.000000     -0.000592 electrons x Angstroem
 Tr[quadrupol]     -6582.272541

 energy correction for charged system         0.000000 eV
 dipol+quadrupol energy correction            0.000000 eV
 added-field ion interaction          0.000000 eV  (added to PSCEN)


 Free energy of the ion-electron system (eV)
  ---------------------------------------------------
  alpha Z        PSCENC =        99.03815231
  Ewald energy   TEWEN  =     39338.78984456
  -Hartree energ DENC   =    -48005.80003622
  -exchange      EXHF   =       552.30204700
  -V(xc)+E(xc)   XCENC  =       625.72223079
  PAW double counting   =     27256.82418840   -27356.01187600
  entropy T*S    EENTRO =        -0.00000000
  eigenvalues    EBANDS =     -3152.02718431
  atomic energy  EATOM  =     10036.92208704
  ---------------------------------------------------
  free energy    TOTEN  =      -604.24054644 eV

  energy without entropy =     -604.24054644  energy(sigma->0) =     -604.24054644
  exchange ACFDT corr.  =        -0.00000000  see jH, gK, PRB 81, 115126


--------------------------------------------------------------------------------------------------------




--------------------------------------- Iteration      1(  14)  ---------------------------------------


    POTLOK:  cpu time    1.3701: real time    1.3704
    SETDIJ:  cpu time    2.0775: real time    2.0778
    TRIAL :  cpu time  517.3777: real time  517.5158
    CORREC:  cpu time    0.0010: real time    0.0013
    CHARGE:  cpu time    1.6832: real time    1.6839
    --------------------------------------------
      LOOP:  cpu time  522.5117: real time  522.6515

 eigenvalue-minimisations  :     0
 total energy-change (2. order) :-0.4054942E-02  (-0.3270351E-02)
 number of electron     243.9999998 magnetization       2.0000002
 augmentation part       15.8264718 magnetization       1.5397413

 DIPCOR: dipole corrections for dipol
 direction  3 min pos     1,
 dipolmoment           0.000000     -0.000000     -0.000595 electrons x Angstroem
 Tr[quadrupol]     -6582.274579

 energy correction for charged system         0.000000 eV
 dipol+quadrupol energy correction            0.000000 eV
 added-field ion interaction          0.000000 eV  (added to PSCEN)


 Free energy of the ion-electron system (eV)
  ---------------------------------------------------
  alpha Z        PSCENC =        99.03815231
  Ewald energy   TEWEN  =     39338.78984456
  -Hartree energ DENC   =    -48005.94299375
  -exchange      EXHF   =       552.33117862
  -V(xc)+E(xc)   XCENC  =       625.72721442
  PAW double counting   =     27258.42813178   -27357.63938621
  entropy T*S    EENTRO =        -0.00000000
  eigenvalues    EBANDS =     -3151.89883015
  atomic energy  EATOM  =     10036.92208704
  ---------------------------------------------------
  free energy    TOTEN  =      -604.24460138 eV

  energy without entropy =     -604.24460138  energy(sigma->0) =     -604.24460138
  exchange ACFDT corr.  =        -0.00000000  see jH, gK, PRB 81, 115126


--------------------------------------------------------------------------------------------------------




--------------------------------------- Iteration      1(  15)  ---------------------------------------


    POTLOK:  cpu time    1.3697: real time    1.3699
    SETDIJ:  cpu time    2.0819: real time    2.0822
    TRIAL :  cpu time  517.4867: real time  517.6746
    CORREC:  cpu time    0.0010: real time    0.0013
    CHARGE:  cpu time    1.6723: real time    1.6726
    --------------------------------------------
      LOOP:  cpu time  522.6142: real time  522.8033

 eigenvalue-minimisations  :     0
 total energy-change (2. order) :-0.3022952E-02  (-0.2467187E-02)
 number of electron     243.9999998 magnetization       2.0000002
 augmentation part       15.8271093 magnetization       1.5378308

 DIPCOR: dipole corrections for dipol
 direction  3 min pos     1,
 dipolmoment           0.000000     -0.000000     -0.000598 electrons x Angstroem
 Tr[quadrupol]     -6582.276821

 energy correction for charged system         0.000000 eV
 dipol+quadrupol energy correction            0.000000 eV
 added-field ion interaction          0.000000 eV  (added to PSCEN)


 Free energy of the ion-electron system (eV)
  ---------------------------------------------------
  alpha Z        PSCENC =        99.03815231
  Ewald energy   TEWEN  =     39338.78984456
  -Hartree energ DENC   =    -48006.12635662
  -exchange      EXHF   =       552.35677906
  -V(xc)+E(xc)   XCENC  =       625.73245451
  PAW double counting   =     27260.29143072   -27359.53130603
  entropy T*S    EENTRO =        -0.00000000
  eigenvalues    EBANDS =     -3151.72070989
  atomic energy  EATOM  =     10036.92208704
  ---------------------------------------------------
  free energy    TOTEN  =      -604.24762433 eV

  energy without entropy =     -604.24762433  energy(sigma->0) =     -604.24762433
  exchange ACFDT corr.  =        -0.00000000  see jH, gK, PRB 81, 115126


--------------------------------------------------------------------------------------------------------




--------------------------------------- Iteration      1(  16)  ---------------------------------------


    POTLOK:  cpu time    1.3669: real time    1.3675
    SETDIJ:  cpu time    2.0779: real time    2.0787
    TRIAL :  cpu time  517.4918: real time  517.6795
    CORREC:  cpu time    0.0010: real time    0.0013
    CHARGE:  cpu time    1.6729: real time    1.6735
    --------------------------------------------
      LOOP:  cpu time  522.6126: real time  522.8025

 eigenvalue-minimisations  :     0
 total energy-change (2. order) :-0.2296112E-02  (-0.1901679E-02)
 number of electron     243.9999998 magnetization       2.0000002
 augmentation part       15.8273753 magnetization       1.5359781

 DIPCOR: dipole corrections for dipol
 direction  3 min pos     1,
 dipolmoment           0.000000     -0.000000     -0.000599 electrons x Angstroem
 Tr[quadrupol]     -6582.278439

 energy correction for charged system         0.000000 eV
 dipol+quadrupol energy correction            0.000000 eV
 added-field ion interaction          0.000000 eV  (added to PSCEN)


 Free energy of the ion-electron system (eV)
  ---------------------------------------------------
  alpha Z        PSCENC =        99.03815231
  Ewald energy   TEWEN  =     39338.78984456
  -Hartree energ DENC   =    -48006.24052737
  -exchange      EXHF   =       552.37786536
  -V(xc)+E(xc)   XCENC  =       625.73573002
  PAW double counting   =     27262.25651937   -27361.51074154
  entropy T*S    EENTRO =        -0.00000000
  eigenvalues    EBANDS =     -3151.61885018
  atomic energy  EATOM  =     10036.92208704
  ---------------------------------------------------
  free energy    TOTEN  =      -604.24992044 eV

  energy without entropy =     -604.24992044  energy(sigma->0) =     -604.24992044
  exchange ACFDT corr.  =        -0.00000000  see jH, gK, PRB 81, 115126


--------------------------------------------------------------------------------------------------------




--------------------------------------- Iteration      1(  17)  ---------------------------------------


    POTLOK:  cpu time    1.3642: real time    1.3647
    SETDIJ:  cpu time    2.0765: real time    2.0772
    TRIAL :  cpu time  516.9396: real time  517.1387
    CORREC:  cpu time    0.0010: real time    0.0010
    CHARGE:  cpu time    1.6738: real time    1.6745
    --------------------------------------------
      LOOP:  cpu time  522.0570: real time  522.2579

 eigenvalue-minimisations  :     0
 total energy-change (2. order) :-0.1778944E-02  (-0.1490081E-02)
 number of electron     243.9999998 magnetization       2.0000002
 augmentation part       15.8276397 magnetization       1.5342583

 DIPCOR: dipole corrections for dipol
 direction  3 min pos     1,
 dipolmoment           0.000000     -0.000000     -0.000599 electrons x Angstroem
 Tr[quadrupol]     -6582.279370

 energy correction for charged system         0.000000 eV
 dipol+quadrupol energy correction            0.000000 eV
 added-field ion interaction          0.000000 eV  (added to PSCEN)


 Free energy of the ion-electron system (eV)
  ---------------------------------------------------
  alpha Z        PSCENC =        99.03815231
  Ewald energy   TEWEN  =     39338.78984456
  -Hartree energ DENC   =    -48006.29115334
  -exchange      EXHF   =       552.39520138
  -V(xc)+E(xc)   XCENC  =       625.73740763
  PAW double counting   =     27264.16472947   -27363.42220132
  entropy T*S    EENTRO =        -0.00000000
  eigenvalues    EBANDS =     -3151.58576711
  atomic energy  EATOM  =     10036.92208704
  ---------------------------------------------------
  free energy    TOTEN  =      -604.25169939 eV

  energy without entropy =     -604.25169939  energy(sigma->0) =     -604.25169939
  exchange ACFDT corr.  =        -0.00000000  see jH, gK, PRB 81, 115126


--------------------------------------------------------------------------------------------------------




--------------------------------------- Iteration      1(  18)  ---------------------------------------


    POTLOK:  cpu time    1.3651: real time    1.3659
    SETDIJ:  cpu time    2.0748: real time    2.0753
    TRIAL :  cpu time  517.1692: real time  517.3651
    CORREC:  cpu time    0.0010: real time    0.0013
    CHARGE:  cpu time    1.6729: real time    1.6737
    --------------------------------------------
      LOOP:  cpu time  522.2853: real time  522.4836

 eigenvalue-minimisations  :     0
 total energy-change (2. order) :-0.1401413E-02  (-0.1188690E-02)
 number of electron     243.9999998 magnetization       2.0000002
 augmentation part       15.8279995 magnetization       1.5326874

 DIPCOR: dipole corrections for dipol
 direction  3 min pos     1,
 dipolmoment           0.000000     -0.000000     -0.000599 electrons x Angstroem
 Tr[quadrupol]     -6582.279925

 energy correction for charged system         0.000000 eV
 dipol+quadrupol energy correction            0.000000 eV
 added-field ion interaction          0.000000 eV  (added to PSCEN)


 Free energy of the ion-electron system (eV)
  ---------------------------------------------------
  alpha Z        PSCENC =        99.03815231
  Ewald energy   TEWEN  =     39338.78984456
  -Hartree energ DENC   =    -48006.33052109
  -exchange      EXHF   =       552.41010509
  -V(xc)+E(xc)   XCENC  =       625.73880896
[...]
  augment   174.45336   179.21512   195.93970    -0.91128    -0.00122    -0.01365
  Kinetic  3558.85733  3547.87704  4020.82487    12.92358    -0.00925     0.06979
  Fock     -347.26028  -350.02675  -331.94655     1.41643     0.00290     0.00750
  -------------------------------------------------------------------------------------
  Total     -14.35523   -54.47415    -0.29761     9.97670    -0.00170     0.00786
  in kB      -7.23972   -27.47276    -0.15009     5.03151    -0.00086     0.00396
  external pressure =      -11.62 kB  Pullay stress =        0.00 kB


 VOLUME and BASIS-vectors are now :
 -----------------------------------------------------------------------------
  energy-cutoff  :      500.00
  volume of cell :     3176.87
      direct lattice vectors                 reciprocal lattice vectors
    12.661700000  0.000000000  0.000000000     0.078978336 -0.000138533  0.000045640
     0.021991991 12.537780712  0.000000000     0.000000000  0.079758932 -0.000008016
    -0.011560896  0.002011131 20.011796560     0.000000000  0.000000000  0.049970526

  length of vectors
    12.661700000 12.537800000 20.011800000     0.078978471  0.079758932  0.049970526


 FORCES acting on ions:
    Electron-Ion                     Ewald-Force                    Non-Local-Force
 -----------------------------------------------------------------------------------------------
   0.629E+00 0.109E+01 0.759E-01   -.506E+00 -.125E+01 -.776E-01   -.872E-01 0.599E-01 0.251E-02
   -.177E+01 0.179E+01 0.242E+00   0.187E+01 -.167E+01 -.242E+00   -.171E+00 -.118E+00 0.123E-02
   0.767E+01 -.190E+01 0.764E-01   -.761E+01 0.185E+01 -.757E-01   -.634E-01 0.112E-01 -.119E-03
   0.771E+01 0.359E+01 -.131E-02   -.779E+01 -.342E+01 0.281E-02   0.108E+00 -.131E+00 -.112E-02
   0.416E+01 0.485E+01 -.661E-01   -.378E+01 -.424E+01 0.661E-01   -.320E+00 -.632E+00 -.215E-03
   0.482E+01 0.130E+01 0.331E+00   -.439E+01 -.829E+00 -.329E+00   -.427E+00 -.454E+00 -.108E-02
   0.965E+01 0.638E-01 0.212E+00   -.942E+01 0.171E+00 -.212E+00   -.206E+00 -.211E+00 0.680E-03
   0.864E+01 0.255E+02 -.455E+00   -.829E+01 -.253E+02 0.460E+00   -.547E+00 -.398E+00 -.679E-02
   0.838E+00 -.303E+01 0.514E+00   0.621E-02 0.315E+01 -.516E+00   -.951E+00 -.715E-01 0.363E-02
   0.210E+02 -.508E+01 0.430E+00   -.200E+02 0.507E+01 -.430E+00   -.771E+00 -.232E+00 0.141E-02
   -.839E+00 0.423E+01 0.118E+00   0.135E+01 -.479E+01 -.119E+00   -.510E+00 0.499E+00 -.535E-03
   0.149E+02 0.322E+01 0.317E+00   -.135E+02 -.316E+01 -.315E+00   -.132E+01 0.156E+00 -.562E-03
   0.901E+01 -.187E+02 -.151E+00   -.942E+01 0.174E+02 0.152E+00   0.601E-01 0.120E+01 -.133E-02
   0.457E+00 -.439E+01 -.205E+00   -.237E+00 0.378E+01 0.204E+00   -.246E+00 0.582E+00 -.124E-02
   -.488E+01 0.173E+01 -.420E-01   0.503E+01 -.186E+01 0.411E-01   -.184E+00 0.180E+00 -.482E-03
   0.102E+02 -.229E+01 -.131E+00   -.100E+02 0.194E+01 0.131E+00   -.138E+00 0.286E+00 -.175E-02
   0.727E+01 -.105E+01 -.624E-01   -.745E+01 0.904E+00 0.654E-01   0.123E+00 0.214E+00 -.371E-02
   -.255E+01 0.111E+01 0.970E+00   0.218E+01 -.142E+01 -.969E+00   0.376E+00 0.269E+00 0.363E-02
   -.209E-01 0.401E+01 0.965E-01   -.127E-01 -.380E+01 -.976E-01   -.710E-01 -.262E+00 0.180E-02
   0.576E+01 0.196E+01 0.605E+00   -.616E+01 -.204E+01 -.604E+00   0.330E+00 0.659E-01 0.217E-02
   -.246E-01 0.121E+02 0.676E+00   0.951E-01 -.127E+02 -.680E+00   -.119E-01 0.570E+00 0.712E-02
   0.767E+01 0.331E+02 -.305E+00   -.101E+02 -.357E+02 0.300E+00   0.264E+01 0.301E+01 0.402E-02
   0.134E+02 0.128E+02 -.547E+00   -.150E+02 -.113E+02 0.552E+00   0.130E+01 -.117E+01 -.569E-02
   0.679E+01 -.378E+02 -.563E+00   -.105E+02 0.417E+02 0.551E+00   0.362E+01 -.371E+01 0.102E-01
   0.646E+00 -.170E+02 -.267E+00   -.453E+00 0.157E+02 0.272E+00   0.125E-01 0.113E+01 -.499E-02
   -.388E+01 -.147E+02 0.104E+00   0.350E+01 0.150E+02 -.104E+00   0.350E+00 -.249E+00 0.694E-03
   -.287E+01 -.924E+01 0.503E+00   0.234E+01 0.927E+01 -.502E+00   0.450E+00 -.108E+00 0.787E-03
   -.776E+00 -.573E+00 0.327E+00   0.669E+00 0.378E+00 -.328E+00   0.986E-01 0.245E+00 0.123E-02
   0.895E+01 -.637E+01 0.195E+00   -.931E+01 0.572E+01 -.193E+00   0.440E+00 0.616E+00 -.230E-02
   -.263E+00 -.200E+01 0.920E+00   0.155E+00 0.192E+01 -.921E+00   0.113E+00 0.154E+00 0.347E-02
   -.877E+01 0.151E+01 0.299E+00   0.896E+01 -.153E+01 -.298E+00   -.214E+00 0.306E-01 -.153E-02
   -.148E+02 0.465E+01 0.557E+00   0.150E+02 -.486E+01 -.555E+00   -.298E+00 0.262E+00 0.360E-03
   -.320E+00 -.654E+00 0.623E+00   0.560E+00 0.389E+00 -.625E+00   -.215E+00 0.205E+00 0.239E-02
   0.395E+01 -.448E+01 0.320E+00   -.374E+01 0.447E+01 -.321E+00   -.131E+00 -.126E-01 0.105E-02
   -.652E+01 0.130E+01 0.299E+00   0.692E+01 -.112E+01 -.298E+00   -.405E+00 -.112E+00 -.128E-03
   -.396E+02 -.808E+01 -.417E+00   0.430E+02 0.831E+01 0.408E+00   -.351E+01 -.326E+00 0.769E-02
   -.932E+01 -.391E+01 0.190E+00   0.983E+01 0.382E+01 -.190E+00   -.434E+00 0.972E-01 0.182E-02
   0.292E+01 -.410E+01 0.315E+00   -.252E+01 0.406E+01 -.314E+00   -.384E+00 -.419E-01 0.785E-03
   -.490E+01 -.171E+01 0.169E+00   0.502E+01 0.170E+01 -.170E+00   -.228E+00 -.615E-01 0.227E-02
   -.552E+02 0.150E+02 -.437E+00   0.588E+02 -.151E+02 0.425E+00   -.404E+01 0.307E+00 0.113E-01
   -.885E+01 0.342E+01 -.441E+00   0.922E+01 -.357E+01 0.444E+00   -.178E+00 0.541E-01 -.368E-02
   0.394E+01 0.438E+01 0.375E+00   -.325E+01 -.429E+01 -.374E+00   -.462E+00 -.392E-01 0.366E-03
   -.119E+02 0.304E+01 0.379E+00   0.123E+02 -.302E+01 -.379E+00   -.456E+00 0.688E-01 0.205E-02
   -.162E+02 -.500E+01 0.270E+00   0.163E+02 0.516E+01 -.268E+00   -.737E-01 -.197E+00 -.253E-03
   -.130E+02 0.183E+00 0.194E+00   0.137E+02 0.222E+00 -.197E+00   -.588E+00 -.306E+00 0.407E-02
   0.122E+01 0.885E-01 0.286E+00   -.749E+00 -.185E+00 -.286E+00   -.457E+00 0.542E-01 0.111E-02
   -.964E+01 0.189E+01 0.223E+00   0.980E+01 -.201E+01 -.222E+00   -.233E+00 0.105E+00 -.170E-02
   -.931E+01 0.198E+00 0.651E+00   0.926E+01 -.213E+00 -.649E+00   0.200E-01 0.546E-01 -.237E-02
   -.225E+01 -.477E+01 0.436E+00   0.249E+01 0.488E+01 -.437E+00   -.154E+00 -.112E+00 0.984E-03
   0.484E+01 -.184E+01 0.128E+00   -.459E+01 0.183E+01 -.129E+00   -.182E+00 0.254E-01 -.476E-03
   0.436E+02 0.491E+01 0.156E+00   -.405E+02 0.102E+01 -.157E+00   -.285E+01 -.579E+01 0.259E-02
   0.274E+02 0.380E+01 0.186E+00   -.240E+02 -.880E+01 -.181E+00   -.305E+01 0.498E+01 -.219E-02
   -.594E+01 -.692E+01 -.116E+01   0.963E+01 0.133E+02 0.117E+01   -.413E+01 -.657E+01 -.242E-01
   0.111E+02 0.638E+01 -.757E+00   -.153E+02 -.119E+02 0.764E+00   0.431E+01 0.559E+01 -.802E-02
   -.492E+01 -.336E+02 -.157E+01   -.591E+01 0.502E+02 0.166E+01   0.104E+02 -.160E+02 -.899E-01
   -.149E+02 0.297E+02 -.181E+01   0.483E+01 -.444E+02 0.190E+01   0.986E+01 0.140E+02 -.841E-01
   -.128E+02 -.770E+01 0.630E+00   0.616E+01 0.154E+02 -.625E+00   0.677E+01 -.678E+01 -.162E-02
   0.532E+01 0.193E+02 -.385E+01   -.441E+01 -.241E+02 0.382E+01   -.188E+00 0.489E+01 0.225E-01
 -----------------------------------------------------------------------------------------------
   -.128E+02 0.491E+01 0.160E+00   0.316E-12 -.924E-13 -.222E-14   0.125E+02 -.409E+01 -.146E+00
 
 
 POSITION                                       TOTAL-FORCE (eV/Angst)
 -----------------------------------------------------------------------------------
      2.83126     12.51515     10.00634         0.023921     -0.088973      0.000868
      0.69202      1.24346     10.00545        -0.084103     -0.003341      0.000883
      1.41677     12.52588     10.00599         0.001576     -0.034941      0.000598
      3.50809      1.22182     10.00690         0.043791      0.037158      0.000303
      2.81192      2.46456     10.00727         0.042552     -0.050277     -0.000245
      0.68923      3.74445     10.00545        -0.022032     -0.000172      0.000674
      1.39388      2.49018     10.00590         0.024067      0.008418      0.000094
      3.53737      3.70493     10.00900        -0.218857     -0.233513     -0.001588
      0.72099      6.24822     10.00498        -0.166183      0.045185      0.002431
      1.41889      4.98204     10.00547         0.199163     -0.255072      0.001355
      0.75011      8.75353     10.00584        -0.034375     -0.021826     -0.000824
      1.47195      7.49330     10.00560         0.023257      0.227952      0.000952
      3.54503      8.77567     10.00745        -0.345380     -0.081253     -0.000921
      2.84231     10.01960     10.00713        -0.046860      0.000183     -0.002318
      0.72933     11.27152     10.00612        -0.056668      0.063667     -0.001434
      1.43025     10.01406     10.00661         0.086829     -0.046686     -0.001878
      3.53313     11.27217     10.00659        -0.044086      0.076696     -0.000955
      7.05519     12.52889     10.00343         0.016714     -0.033515      0.005340
      4.92100      1.22554     10.00689        -0.116057     -0.063700      0.000814
      5.64174     12.51808     10.00474        -0.042727     -0.011579      0.003593
      7.73482      1.23325     10.00494         0.066028     -0.049374      0.003414
      7.03836      2.46324     10.00904         0.350664      0.497821     -0.000456
      5.61680      2.47573     10.00963        -0.225164      0.265823     -0.001581
      7.07081      7.61010     10.01023         0.048045     -0.088873     -0.001661
      4.98319      8.76253     10.00815         0.198953     -0.154425     -0.000247
      7.77471      8.83765     10.00693        -0.009432      0.035475      0.000113
      7.06624     10.06100     10.00503        -0.066851     -0.090115      0.001249
      4.94630     11.27165     10.00552        -0.011526      0.063391      0.000695
      5.65703     10.02830     10.00612         0.116648     -0.005989      0.000158
      7.76578     11.29992     10.00321         0.016250      0.075678      0.002746
     11.28061     12.53745     10.00466        -0.043654      0.018540     -0.000283
      9.14284      1.24856     10.00464        -0.092061      0.068003      0.002618
      9.84916      0.00479     10.00379         0.024920     -0.051964      0.000937
     11.93692      1.25701     10.00497         0.090759     -0.031446      0.000397
     11.22446      2.51475     10.00542        -0.030439      0.067629      0.000855
      9.04403      3.75822     10.00940        -0.292311     -0.116624     -0.000767
      9.80102      2.51832     10.00629         0.065451      0.002033      0.001337
     11.92641      3.76050     10.00554         0.005982     -0.090083      0.001478
     11.20707      5.01169     10.00645        -0.123343     -0.076540      0.001408
      9.10670      6.32021     10.00979        -0.612132      0.167867      0.000036
      9.76799      5.02069     10.00906         0.191598     -0.096703     -0.001752
     11.96302      6.25605     10.00539         0.211639      0.051056      0.001382
     11.27548      7.52269     10.00546        -0.061326      0.094284      0.001628
      9.18213      8.80766     10.00592        -0.056161     -0.040276      0.001372
      9.86411      7.54717     10.00673         0.098163      0.084162      0.001466
     11.99099      8.76675     10.00526        -0.000416     -0.042107      0.000562
     11.29498     10.02789     10.00506        -0.105861     -0.005605     -0.000873
      9.17720     11.29505     10.00356        -0.035918      0.045979      0.000219
      9.88345     10.04627     10.00456         0.088141     -0.012798     -0.000408
     11.98289     11.28239     10.00530         0.072497      0.009130     -0.001497
      2.81390      4.93355     10.00702         0.058186     -0.158477      0.001978
      2.89120      7.52170     10.00661         0.196350      0.240075      0.002085
      4.97099      3.74698     10.01171        -0.669180     -0.542733     -0.007474
      5.66643      7.50947     10.01028         0.319238      0.373394     -0.001677
      7.65298      3.69712     10.01207         0.507689     -0.787067     -0.008164
      7.76411      6.40910     10.01281         0.641127      0.564311     -0.006915
      4.16958      6.11570     10.00767        -1.013755      0.167865      0.005005
      6.34439      5.18349     10.01495         0.796662      0.014270     -0.007126
 -----------------------------------------------------------------------------------
    total drift:                                0.000228     -0.002381      0.000605


--------------------------------------------------------------------------------------------------------



  FREE ENERGIE OF THE ION-ELECTRON SYSTEM (eV)
  ---------------------------------------------------
  free  energy   TOTEN  =      -604.26167207 eV

  energy  without entropy=     -604.26167207  energy(sigma->0) =     -604.26167207
 


--------------------------------------------------------------------------------------------------------


    POTLOK:  cpu time    3.4305: real time    3.4314


--------------------------------------------------------------------------------------------------------


 stress matrix after NEB project (eV)
    -14.35523      9.97647      0.00786
      9.97670    -54.47415     -0.00169
      0.00787     -0.00170     -0.29761
  FORCES: max atom, RMS     1.027571    0.327819
  FORCE total and by dimension    2.496598    1.013755
  Stress total and by dimension   58.074601   54.474155
 writing wavefunctions
     LOOP+:  cpu time29328.5572: real time29337.3611
    4ORBIT:  cpu time    0.0000: real time    0.0000
 


 total charge     
 
# of ion       s       p       d       tot
------------------------------------------
    1        0.870   1.776   0.000   2.646
    2        0.868   1.763   0.000   2.630
    3        0.866   1.774   0.000   2.639
    4        0.870   1.784   0.000   2.655
    5        0.871   1.768   0.000   2.640
    6        0.867   1.749   0.000   2.616
    7        0.865   1.772   0.000   2.637
    8        0.872   1.749   0.000   2.621
    9        0.868   1.727   0.000   2.595
   10        0.865   1.779   0.000   2.644
   11        0.865   1.750   0.000   2.615
   12        0.858   1.741   0.000   2.600
   13        0.874   1.767   0.000   2.641
   14        0.871   1.774   0.000   2.645
   15        0.869   1.769   0.000   2.638
   16        0.866   1.774   0.000   2.640
   17        0.868   1.782   0.000   2.650
   18        0.871   1.783   0.000   2.654
   19        0.870   1.774   0.000   2.644
   20        0.868   1.784   0.000   2.652
   21        0.872   1.805   0.000   2.677
   22        0.875   1.743   0.000   2.618
   23        0.871   1.781   0.000   2.652
   24        0.873   1.750   0.000   2.623
   25        0.870   1.740   0.000   2.610
   26        0.876   1.810   0.000   2.686
   27        0.873   1.796   0.000   2.669
   28        0.870   1.773   0.000   2.643
   29        0.869   1.778   0.000   2.647
   30        0.872   1.791   0.000   2.663
   31        0.869   1.770   0.000   2.639
   32        0.871   1.773   0.000   2.644
   33        0.868   1.786   0.000   2.655
   34        0.864   1.770   0.000   2.634
   35        0.865   1.754   0.000   2.619
   36        0.850   1.690   0.000   2.539
   37        0.862   1.764   0.000   2.626
   38        0.863   1.766   0.000   2.629
   39        0.859   1.721   0.000   2.580
   40        0.862   1.724   0.000   2.586
   41        0.850   1.748   0.000   2.597
   42        0.859   1.756   0.000   2.615
   43        0.867   1.761   0.000   2.628
   44        0.872   1.775   0.000   2.647
   45        0.865   1.781   0.000   2.645
   46        0.864   1.765   0.000   2.628
   47        0.868   1.764   0.000   2.633
   48        0.869   1.773   0.000   2.642
   49        0.868   1.785   0.000   2.653
   50        0.867   1.780   0.000   2.646
   51        0.888   1.677   0.000   2.565
   52        0.872   1.639   0.000   2.512
   53        0.870   1.641   0.000   2.511
   54        0.858   1.670   0.000   2.527
   55        1.231   2.646   0.000   3.877
   56        1.238   2.712   0.000   3.950
   57        0.558   0.567   8.495   9.620
   58        0.429   0.539   6.251   7.219
--------------------------------------------------
tot         50.309 101.403  14.746 166.458
 


 magnetization (x)
 
# of ion       s       p       d       tot
------------------------------------------
    1       -0.000  -0.001   0.000  -0.001
    2       -0.000  -0.000   0.000  -0.001
    3        0.000   0.001   0.000   0.001
    4        0.000   0.003   0.000   0.003
    5       -0.001  -0.004   0.000  -0.005
    6       -0.000  -0.002   0.000  -0.002
    7        0.000   0.000   0.000   0.000
    8       -0.001   0.001   0.000  -0.000
    9        0.000   0.001   0.000   0.001
   10        0.000   0.001   0.000   0.002
   11       -0.000  -0.000   0.000  -0.000
   12       -0.000   0.000   0.000   0.000
   13       -0.000  -0.001   0.000  -0.002
   14       -0.000  -0.000   0.000  -0.000
   15        0.000   0.000   0.000   0.000
   16        0.000   0.001   0.000   0.001
   17        0.000   0.000   0.000   0.000
   18       -0.000   0.000   0.000   0.000
   19       -0.000  -0.002   0.000  -0.002
   20        0.000   0.001   0.000   0.001
   21       -0.000   0.000   0.000   0.000
   22       -0.001  -0.005   0.000  -0.005
   23       -0.000   0.006   0.000   0.006
   24        0.001   0.000   0.000   0.001
   25       -0.000   0.003   0.000   0.003
   26        0.000  -0.000   0.000  -0.000
   27        0.000   0.001   0.000   0.001
   28       -0.000  -0.000   0.000  -0.000
   29       -0.000  -0.002   0.000  -0.002
   30       -0.000   0.000   0.000   0.000
   31       -0.000  -0.001   0.000  -0.001
   32       -0.000  -0.003   0.000  -0.003
   33        0.000   0.001   0.000   0.001
   34        0.000   0.000   0.000   0.000
   35       -0.000  -0.000   0.000  -0.001
   36       -0.000  -0.003   0.000  -0.003
   37       -0.000   0.000   0.000   0.000
   38        0.000   0.002   0.000   0.002
   39       -0.000  -0.001   0.000  -0.001
   40        0.000   0.003   0.000   0.003
   41        0.000   0.002   0.000   0.002
   42       -0.000   0.000   0.000   0.000
   43        0.000   0.001   0.000   0.001
   44       -0.000  -0.000   0.000  -0.000
   45       -0.000  -0.002   0.000  -0.002
   46       -0.000   0.000   0.000  -0.000
   47       -0.000   0.000   0.000   0.000
   48       -0.000  -0.001   0.000  -0.001
   49        0.000   0.000   0.000   0.000
   50        0.000   0.000   0.000   0.000
   51       -0.002  -0.010   0.000  -0.011
   52       -0.002  -0.005   0.000  -0.007
   53       -0.006  -0.025   0.000  -0.031
   54       -0.005  -0.018   0.000  -0.023
   55       -0.005  -0.021   0.000  -0.026
   56       -0.004  -0.022   0.000  -0.027
   57       -0.003  -0.011   0.039   0.025
   58        0.041   0.013   1.953   2.007
--------------------------------------------------
tot          0.010  -0.096   1.992   1.906
 

 total amount of memory used by VASP MPI-rank0   178686. kBytes
=======================================================================

   base      :      30000. kBytes
   nonl-proj :       5328. kBytes
   fftplans  :      14250. kBytes
   grid      :      36827. kBytes
   one-center:         62. kBytes
   HF        :         23. kBytes
   nonlr-proj:      14682. kBytes
   wavefun   :      77514. kBytes
 
  
  
 General timing and accounting informations for this job:
 ========================================================
  
                  Total CPU time used (sec):    29426.447
                            User time (sec):    29377.685
                          System time (sec):       48.761
                         Elapsed time (sec):    29436.770
  
                   Maximum memory used (kb):      428896.
                   Average memory used (kb):           0.
  
                          Minor page faults:       254505
                          Major page faults:            0
                 Voluntary context switches:         1151
