 vasp.5.4.4.18Apr17-6-g9f103f2a35 (build Feb 25 2019 10:51:38) complex          
  
 executed on             LinuxIFC date 2021.06.19  02:52:19
 running on   80 total cores
 distrk:  each k-point on   40 cores,    2 groups
 distr:  one band on NCORES_PER_BAND=  40 cores,    1 groups


--------------------------------------------------------------------------------------------------------


 INCAR:
 POTCAR:    PAW_PBE C 08Apr2002                   
 POTCAR:    PAW_PBE N 08Apr2002                   
 POTCAR:    PAW_PBE Fe 06Sep2000                  
 POTCAR:    PAW_PBE Ti 08Apr2002                  

 ----------------------------------------------------------------------------- 
|                                                                             |
|           W    W    AA    RRRRR   N    N  II  N    N   GGGG   !!!           |
|           W    W   A  A   R    R  NN   N  II  NN   N  G    G  !!!           |
|           W    W  A    A  R    R  N N  N  II  N N  N  G       !!!           |
|           W WW W  AAAAAA  RRRRR   N  N N  II  N  N N  G  GGG   !            |
|           WW  WW  A    A  R   R   N   NN  II  N   NN  G    G                |
|           W    W  A    A  R    R  N    N  II  N    N   GGGG   !!!           |
|                                                                             |
|      For optimal performance we recommend to set                            |
|        NCORE= 4 - approx SQRT( number of cores)                             |
|      NCORE specifies how many cores store one orbital (NPAR=cpu/NCORE).     |
|      This setting can  greatly improve the performance of VASP for DFT.     |
|      The default,   NCORE=1            might be grossly inefficient         |
|      on modern multi-core architectures or massively parallel machines.     |
|      Do your own testing !!!!                                               |
|      Unfortunately you need to use the default for GW and RPA calculations. |
|      (for HF NCORE is supported but not extensively tested yet)             |
|                                                                             |
 ----------------------------------------------------------------------------- 


 ----------------------------------------------------------------------------- 
|                                                                             |
|           W    W    AA    RRRRR   N    N  II  N    N   GGGG   !!!           |
|           W    W   A  A   R    R  NN   N  II  NN   N  G    G  !!!           |
|           W    W  A    A  R    R  N N  N  II  N N  N  G       !!!           |
|           W WW W  AAAAAA  RRRRR   N  N N  II  N  N N  G  GGG   !            |
|           WW  WW  A    A  R   R   N   NN  II  N   NN  G    G                |
|           W    W  A    A  R    R  N    N  II  N    N   GGGG   !!!           |
|                                                                             |
|      You have enabled k-point parallelism (KPAR>1).                         |
|      This developmental code was originally  written by Paul Kent at ORNL,  |
|      and carefully double checked in Vienna.                                |
|      GW as well as linear response parallelism added by Martijn Marsman     |
|      and Georg Kresse.                                                      |
|      Carefully verify results versus KPAR=1.                                |
|      Report problems to Paul Kent and Vienna.                               |
|                                                                             |
 ----------------------------------------------------------------------------- 

 POTCAR:    PAW_PBE C 08Apr2002                   
   VRHFIN =C: s2p2                                                              
   LEXCH  = PE                                                                  
   EATOM  =   147.1560 eV,   10.8157 Ry                                         
                                                                                
   TITEL  = PAW_PBE C 08Apr2002                                                 
   LULTRA =        F    use ultrasoft PP ?                                      
   IUNSCR =        1    unscreen: 0-lin 1-nonlin 2-no                           
   RPACOR =    1.200    partial core radius                                     
   POMASS =   12.011; ZVAL   =    4.000    mass and valenz                      
   RCORE  =    1.500    outmost cutoff radius                                   
   RWIGS  =    1.630; RWIGS  =    0.863    wigner-seitz radius (au A)           
   ENMAX  =  400.000; ENMIN  =  300.000 eV                                      
   ICORE  =        2    local potential                                         
   LCOR   =        T    correct aug charges                                     
   LPAW   =        T    paw PP                                                  
   EAUG   =  644.873                                                            
   DEXC   =    0.000                                                            
   RMAX   =    1.529    core radius for proj-oper                               
   RAUG   =    1.300    factor for augmentation sphere                          
   RDEP   =    1.501    radius for radial grids                                 
   RDEPT  =    1.300    core radius for aug-charge                              
                                                                                
   Atomic configuration                                                         
    4 entries                                                                   
     n  l   j            E        occ.                                          
     1  0  0.50      -273.3789   2.0000                                         
     2  0  0.50       -13.7508   2.0000                                         
     2  1  0.50        -5.2854   2.0000                                         
     3  2  1.50        -5.4423   0.0000                                         
   Description                                                                  
     l       E           TYP  RCUT    TYP  RCUT                                 
     0    -13.7508458     23  1.200                                             
     0     -8.2022199     23  1.200                                             
     1     -5.2854383     23  1.500                                             
     1     34.0145650     23  1.500                                             
     2     -5.4423304      7  1.500                                             
  local pseudopotential read in
  partial core-charges read in
  partial kinetic energy density read in
  atomic valenz-charges read in
  non local Contribution for L=           0  read in
    real space projection operators read in
  non local Contribution for L=           0  read in
    real space projection operators read in
  non local Contribution for L=           1  read in
    real space projection operators read in
  non local Contribution for L=           1  read in
    real space projection operators read in
    PAW grid and wavefunctions read in
 
   number of l-projection  operators is LMAX  =           4
   number of lm-projection operators is LMMAX =           8
 
 POTCAR:    PAW_PBE N 08Apr2002                   
   VRHFIN =N: s2p3                                                              
   LEXCH  = PE                                                                  
   EATOM  =   264.5486 eV,   19.4438 Ry                                         
                                                                                
   TITEL  = PAW_PBE N 08Apr2002                                                 
   LULTRA =        F    use ultrasoft PP ?                                      
   IUNSCR =        1    unscreen: 0-lin 1-nonlin 2-no                           
   RPACOR =    1.200    partial core radius                                     
   POMASS =   14.001; ZVAL   =    5.000    mass and valenz                      
   RCORE  =    1.500    outmost cutoff radius                                   
   RWIGS  =    1.400; RWIGS  =    0.741    wigner-seitz radius (au A)           
   ENMAX  =  400.000; ENMIN  =  300.000 eV                                      
   ICORE  =        2    local potential                                         
   LCOR   =        T    correct aug charges                                     
   LPAW   =        T    paw PP                                                  
   EAUG   =  627.112                                                            
   DEXC   =    0.000                                                            
   RMAX   =    1.529    core radius for proj-oper                               
   RAUG   =    1.300    factor for augmentation sphere                          
   RDEP   =    1.514    radius for radial grids                                 
   RDEPT  =    1.338    core radius for aug-charge                              
                                                                                
   Atomic configuration                                                         
    4 entries                                                                   
     n  l   j            E        occ.                                          
     1  0  0.50      -384.7179   2.0000                                         
     2  0  0.50       -18.5828   2.0000                                         
     2  1  0.50        -7.0898   3.0000                                         
     3  2  1.50        -6.8029   0.0000                                         
   Description                                                                  
     l       E           TYP  RCUT    TYP  RCUT                                 
     0    -18.5828119     23  1.200                                             
     0    -13.5018863     23  1.200                                             
     1     -7.0897853     23  1.500                                             
     1      9.5240782     23  1.500                                             
     2     -6.8029130      7  1.500                                             
  local pseudopotential read in
  partial core-charges read in
  partial kinetic energy density read in
  atomic valenz-charges read in
  non local Contribution for L=           0  read in
    real space projection operators read in
  non local Contribution for L=           0  read in
    real space projection operators read in
  non local Contribution for L=           1  read in
    real space projection operators read in
  non local Contribution for L=           1  read in
    real space projection operators read in
    PAW grid and wavefunctions read in
 
   number of l-projection  operators is LMAX  =           4
   number of lm-projection operators is LMMAX =           8
 
 POTCAR:    PAW_PBE Fe 06Sep2000                  
   VRHFIN =Fe:  d7 s1                                                           
   LEXCH  = PE                                                                  
   EATOM  =   594.3153 eV,   43.6809 Ry                                         
                                                                                
   TITEL  = PAW_PBE Fe 06Sep2000                                                
   LULTRA =        F    use ultrasoft PP ?                                      
   IUNSCR =        1    unscreen: 0-lin 1-nonlin 2-no                           
   RPACOR =    2.000    partial core radius                                     
   POMASS =   55.847; ZVAL   =    8.000    mass and valenz                      
   RCORE  =    2.300    outmost cutoff radius                                   
   RWIGS  =    2.460; RWIGS  =    1.302    wigner-seitz radius (au A)           
   ENMAX  =  267.882; ENMIN  =  200.911 eV                                      
   RCLOC  =    1.701    cutoff for local pot                                    
   LCOR   =        T    correct aug charges                                     
   LPAW   =        T    paw PP                                                  
   EAUG   =  511.368                                                            
   DEXC   =    0.000                                                            
   RMAX   =    2.356    core radius for proj-oper                               
   RAUG   =    1.300    factor for augmentation sphere                          
   RDEP   =    2.442    radius for radial grids                                 
   RDEPT  =    1.890    core radius for aug-charge                              
                                                                                
   Atomic configuration                                                         
    9 entries                                                                   
     n  l   j            E        occ.                                          
     1  0  0.50     -6993.8440   2.0000                                         
     2  0  0.50      -814.6047   2.0000                                         
     2  1  1.50      -693.3689   6.0000                                         
     3  0  0.50       -89.4732   2.0000                                         
     3  1  1.50       -55.6373   6.0000                                         
     3  2  2.50        -3.8151   7.0000                                         
     4  0  0.50        -4.2551   1.0000                                         
     4  1  1.50        -3.4015   0.0000                                         
     4  3  2.50        -1.3606   0.0000                                         
   Description                                                                  
     l       E           TYP  RCUT    TYP  RCUT                                 
     2     -3.8151135     23  2.300                                             
     2     -5.1756961     23  2.300                                             
     0     -4.2550963     23  2.300                                             
     0      7.2035603     23  2.300                                             
     1     -2.7211652     23  2.300                                             
     1     18.4316424     23  2.300                                             
  local pseudopotential read in
  partial core-charges read in
  partial kinetic energy density read in
  atomic valenz-charges read in
  non local Contribution for L=           2  read in
    real space projection operators read in
  non local Contribution for L=           2  read in
    real space projection operators read in
  non local Contribution for L=           0  read in
    real space projection operators read in
  non local Contribution for L=           0  read in
    real space projection operators read in
  non local Contribution for L=           1  read in
    real space projection operators read in
  non local Contribution for L=           1  read in
    real space projection operators read in
    PAW grid and wavefunctions read in
 
   number of l-projection  operators is LMAX  =           6
   number of lm-projection operators is LMMAX =          18
 
 POTCAR:    PAW_PBE Ti 08Apr2002                  
   VRHFIN =Ti: d3 s1                                                            
   LEXCH  = PE                                                                  
   EATOM  =    94.7928 eV,    6.9671 Ry                                         
                                                                                
   TITEL  = PAW_PBE Ti 08Apr2002                                                
   LULTRA =        F    use ultrasoft PP ?                                      
   IUNSCR =        1    unscreen: 0-lin 1-nonlin 2-no                           
   RPACOR =    2.200    partial core radius                                     
   POMASS =   47.880; ZVAL   =    4.000    mass and valenz                      
   RCORE  =    2.800    outmost cutoff radius                                   
   RWIGS  =    2.500; RWIGS  =    1.323    wigner-seitz radius (au A)           
   ENMAX  =  178.330; ENMIN  =  133.747 eV                                      
   RCLOC  =    2.215    cutoff for local pot                                    
   LCOR   =        T    correct aug charges                                     
   LPAW   =        T    paw PP                                                  
   EAUG   =  328.883                                                            
   DEXC   =    0.000                                                            
   RMAX   =    2.868    core radius for proj-oper                               
   RAUG   =    1.300    factor for augmentation sphere                          
   RDEP   =    2.885    radius for radial grids                                 
   RDEPT  =    2.320    core radius for aug-charge                              
                                                                                
   Atomic configuration                                                         
    9 entries                                                                   
     n  l   j            E        occ.                                          
     1  0  0.50     -4865.3608   2.0000                                         
     2  0  0.50      -533.1367   2.0000                                         
     2  1  1.50      -440.5031   6.0000                                         
     3  0  0.50       -59.3186   2.0000                                         
     3  1  1.50       -35.7012   6.0000                                         
     3  2  2.50        -1.9157   3.0000                                         
     4  0  0.50        -3.7291   1.0000                                         
     4  1  1.50        -4.0817   0.0000                                         
     4  3  2.50        -1.3606   0.0000                                         
   Description                                                                  
     l       E           TYP  RCUT    TYP  RCUT                                 
     2     -1.9156924     23  2.800                                             
     2     -0.4062961     23  2.800                                             
     0     -3.7290832     23  2.800                                             
     0     20.4087390     23  2.800                                             
     1     -5.4423304     23  2.800                                             
  local pseudopotential read in
  partial core-charges read in
  partial kinetic energy density read in
  atomic valenz-charges read in
  non local Contribution for L=           2  read in
    real space projection operators read in
  non local Contribution for L=           2  read in
    real space projection operators read in
  non local Contribution for L=           0  read in
    real space projection operators read in
  non local Contribution for L=           0  read in
    real space projection operators read in
  non local Contribution for L=           1  read in
    real space projection operators read in
    PAW grid and wavefunctions read in
 
   number of l-projection  operators is LMAX  =           5
   number of lm-projection operators is LMMAX =          15
 

 ----------------------------------------------------------------------------- 
|                                                                             |
|  ADVICE TO THIS USER RUNNING 'VASP/VAMP'   (HEAR YOUR MASTER'S VOICE ...):  |
|                                                                             |
|      You have a (more or less) 'large supercell' and for larger cells       |
|      it might be more efficient to use real space projection opertators     |
|      So try LREAL= Auto  in the INCAR   file.                               |
|      Mind:          For very  accurate calculation you might also keep the  |
|      reciprocal projection scheme          (i.e. LREAL=.FALSE.)             |
|                                                                             |
 ----------------------------------------------------------------------------- 

  PAW_PBE C 08Apr2002                   :
 energy of atom  1       EATOM= -147.1560
 kinetic energy error for atom=    0.0076 (will be added to EATOM!!)
  PAW_PBE N 08Apr2002                   :
 energy of atom  2       EATOM= -264.5486
 kinetic energy error for atom=    0.0138 (will be added to EATOM!!)
  PAW_PBE Fe 06Sep2000                  :
 energy of atom  3       EATOM= -594.3153
 kinetic energy error for atom=    0.0026 (will be added to EATOM!!)
  PAW_PBE Ti 08Apr2002                  :
 energy of atom  4       EATOM=  -94.7928
 kinetic energy error for atom=    0.0002 (will be added to EATOM!!)
 
 
 POSCAR:  C  N Fe Ti                             
  positions in cartesian coordinates
  No initial velocities read in
 exchange correlation table for  LEXCH =        8
   RHO(1)=    0.500       N(1)  =     2000
   RHO(2)=  100.500       N(2)  =     4000

 VTST: version 3.2, (02/03/18)

 CHAIN: initializing optimizer
 
 OPT: Using VASP Conjugate-Gradient optimizer
 CHAIN: Read ICHAIN            0
 
 POSCAR:  C  N Fe Ti                             
  positions in cartesian coordinates
  No initial velocities read in
 


--------------------------------------------------------------------------------------------------------


 ion  position               nearest neighbor table
   1  0.222  0.998  0.502-   4 1.41   3 1.42  17 1.42
   2  0.054  0.099  0.501-  34 1.42   7 1.43   3 1.43
   3  0.110  0.999  0.501-   1 1.42  15 1.43   2 1.43
   4  0.277  0.095  0.504-   1 1.41   5 1.42  19 1.42
   5  0.221  0.194  0.504-   8 1.41   4 1.42   7 1.42
   6  0.056  0.299  0.501-   7 1.44  38 1.44  10 1.44
   7  0.110  0.198  0.502-   5 1.42   2 1.43   6 1.44
   8  0.278  0.290  0.505-  51 1.36  53 1.38   5 1.41
   9  0.064  0.497  0.498-  10 1.45  12 1.47  42 1.47
  10  0.118  0.395  0.499-  51 1.41   6 1.44   9 1.45
  11  0.059  0.698  0.499-  46 1.43  16 1.43  12 1.45
  12  0.120  0.600  0.498-  52 1.38  11 1.45   9 1.47
  13  0.279  0.702  0.499-  52 1.38  14 1.42  25 1.43
  14  0.224  0.801  0.501-  13 1.42  16 1.42  17 1.42
  15  0.056  0.899  0.500-  50 1.42   3 1.43  16 1.43
  16  0.112  0.799  0.500-  14 1.42  15 1.43  11 1.43
  17  0.278  0.899  0.501-  28 1.41  14 1.42   1 1.42
  18  0.556  1.000  0.500-  20 1.41  30 1.42  21 1.42
  19  0.389  0.096  0.504-  23 1.41  20 1.42   4 1.42
  20  0.445  0.998  0.501-  18 1.41  19 1.42  28 1.42
  21  0.610  0.099  0.501-  32 1.42  22 1.42  18 1.42
  22  0.554  0.197  0.505-  54 1.39  21 1.42  23 1.43
  23  0.442  0.195  0.506-  53 1.39  19 1.41  22 1.43
  24  0.556  0.608  0.492-  55 1.37  56 1.39  26 1.41
  25  0.392  0.702  0.496-  56 1.41  29 1.41  13 1.43
  26  0.613  0.705  0.494-  24 1.41  27 1.42  44 1.42
  27  0.557  0.803  0.496-  26 1.42  30 1.42  29 1.42
  28  0.389  0.900  0.500-  17 1.41  29 1.42  20 1.42
  29  0.445  0.801  0.498-  25 1.41  27 1.42  28 1.42
  30  0.612  0.901  0.498-  27 1.42  48 1.42  18 1.42
  31  0.889  1.000  0.499-  33 1.42  34 1.43  50 1.44
  32  0.722  0.100  0.501-  21 1.42  33 1.43  37 1.44
  33  0.777  0.000  0.499-  31 1.42  32 1.43  48 1.43
  34  0.942  0.100  0.500-   2 1.42  31 1.43  35 1.44
  35  0.887  0.201  0.500-  37 1.43  38 1.44  34 1.44
  36  0.713  0.300  0.503-  54 1.39  37 1.45  41 1.47
  37  0.774  0.201  0.501-  35 1.43  32 1.44  36 1.45
  38  0.943  0.301  0.500-  39 1.44  35 1.44   6 1.44
  39  0.886  0.401  0.500-  38 1.44  42 1.46  41 1.47
  40  0.718  0.504  0.497-  55 1.40  45 1.43  41 1.45
  41  0.771  0.402  0.500-  40 1.45  36 1.47  39 1.47
  42  0.948  0.498  0.498-  43 1.44  39 1.46   9 1.47
  43  0.892  0.598  0.498-  45 1.44  42 1.44  46 1.44
  44  0.724  0.701  0.496-  26 1.42  49 1.43  45 1.44
  45  0.779  0.600  0.496-  40 1.43  44 1.44  43 1.44
  46  0.947  0.698  0.498-  11 1.43  43 1.44  47 1.44
  47  0.891  0.799  0.498-  49 1.42  50 1.43  46 1.44
  48  0.724  0.900  0.498-  30 1.42  33 1.43  49 1.43
  49  0.779  0.800  0.497-  47 1.42  44 1.43  48 1.43
  50  0.945  0.899  0.499-  15 1.42  47 1.43  31 1.44
  51  0.229  0.386  0.498-   8 1.36  10 1.41  57 1.95
  52  0.228  0.605  0.498-  13 1.38  12 1.38  57 2.03
  53  0.387  0.290  0.511-   8 1.38  23 1.39  58 2.09
  54  0.604  0.296  0.507-  22 1.39  36 1.39  58 2.21
  55  0.608  0.512  0.495-  24 1.37  40 1.40  58 2.07
  56  0.447  0.605  0.490-  24 1.39  25 1.41  57 1.98
  57  0.340  0.490  0.485-  51 1.95  56 1.98  52 2.03  58 2.20
  58  0.484  0.421  0.529-  55 2.07  53 2.09  57 2.20  54 2.21
 
  LATTYP: Found a triclinic cell.
 ALAT       =    17.9072751799
 B/A-ratio  =     0.6994196422
 C/A-ratio  =     1.1155689405
 COS(alpha) =     0.0002792527
 COS(beta)  =     0.0021865768
 COS(gamma) =     0.7051508081
  
  Lattice vectors:
  
 A1 = ( -12.7989312856, -12.5242908908,   0.0000000000)
 A2 = (  -0.1012312856, -12.5242908908,   0.0000000000)
 A3 = (  -0.0560994705,  -0.0051253165,  19.9767205722)


Analysis of symmetry for initial positions (statically):
=====================================================================
 Subroutine PRICEL returns:
 Original cell was already a primitive cell.
 

 Routine SETGRP: Setting up the symmetry group for a 
 triclinic supercell.


 Subroutine GETGRP returns: Found  1 space group operations
 (whereof  1 operations were pure point group operations)
 out of a pool of  2 trial point group operations.


The static configuration has the point symmetry C_1 .


Analysis of symmetry for dynamics (positions and initial velocities):
=====================================================================
 Subroutine PRICEL returns:
 Original cell was already a primitive cell.
 

 Routine SETGRP: Setting up the symmetry group for a 
 triclinic supercell.


 Subroutine GETGRP returns: Found  1 space group operations
 (whereof  1 operations were pure point group operations)
 out of a pool of  2 trial point group operations.


The dynamic configuration has the point symmetry C_1 .


Analysis of structural, dynamic, and magnetic symmetry:
=====================================================================
 Subroutine PRICEL returns:
 Original cell was already a primitive cell.
 

 Routine SETGRP: Setting up the symmetry group for a 
 triclinic supercell.


 Subroutine GETGRP returns: Found  1 space group operations
 (whereof  1 operations were pure point group operations)
 out of a pool of  2 trial point group operations.


The magnetic configuration has the point symmetry C_1 .


 Subroutine INISYM returns: Found  1 space group operations
 (whereof  1 operations are pure point group operations),
 and found     1 'primitive' translations

 
 
 KPOINTS: KPOINTS created by Atomic Simulation Env

Automatic generation of k-mesh.
Space group operators:
 irot       det(A)        alpha          n_x          n_y          n_z        tau_x        tau_y        tau_z
    1     1.000000     0.000000     1.000000     0.000000     0.000000     0.000000     0.000000     0.000000
 
 Subroutine IBZKPT returns following result:
 ===========================================
 
 Found      2 irreducible k-points:
 
 Following reciprocal coordinates:
            Coordinates               Weight
  0.250000  0.250000  0.000000      2.000000
 -0.250000  0.250000 -0.000000      2.000000
 
 Following cartesian coordinates:
            Coordinates               Weight
  0.019689  0.019802  0.000060      2.000000
 -0.019689  0.020120 -0.000050      2.000000
 
 
 Subroutine IBZKPT_HF returns following result:
 ==============================================
 
 Found      4 k-points in 1st BZ
 the following      4 k-points will be used (e.g. in the exchange kernel)
 Following reciprocal coordinates:   # in IRBZ
  0.250000  0.250000  0.000000    0.25000000   1 t-inv F
 -0.250000  0.250000 -0.000000    0.25000000   2 t-inv F
 -0.250000 -0.250000 -0.000000    0.25000000   1 t-inv T
  0.250000 -0.250000  0.000000    0.25000000   2 t-inv T


--------------------------------------------------------------------------------------------------------




 Dimension of arrays:
   k-points           NKPTS =      2   k-points in BZ     NKDIM =      4   number of bands    NBANDS=    155
   number of dos      NEDOS =    301   number of ions     NIONS =     58
   non local maximal  LDIM  =      6   non local SUM 2l+1 LMDIM =     18
   total plane-waves  NPLWV = ******
   max r-space proj   IRMAX =      1   max aug-charges    IRDMAX=  30249
   dimension x,y,z NGX =    96 NGY =   96 NGZ =  150
   dimension x,y,z NGXF=   192 NGYF=  192 NGZF=  300
   support grid    NGXF=   192 NGYF=  192 NGZF=  300
   ions per type =              50   6   1   1
   NGX,Y,Z   is equivalent  to a cutoff of  12.57, 12.74, 12.48 a.u.
   NGXF,Y,Z  is equivalent  to a cutoff of  25.14, 25.49, 24.97 a.u.

 SYSTEM =  unknown system                          
 POSCAR =   C  N Fe Ti                             

 Startparameter for this run:
   NWRITE =      2    write-flag & timer
   PREC   = accura    normal or accurate (medium, high low for compatibility)
   ISTART =      1    job   : 0-new  1-cont  2-samecut
   ICHARG =      0    charge: 1-file 2-atom 10-const
   ISPIN  =      2    spin polarized calculation?
   LNONCOLLINEAR =      F non collinear calculations
   LSORBIT =      F    spin-orbit coupling
   INIWAV =      1    electr: 0-lowe 1-rand  2-diag
   LASPH  =      T    aspherical Exc in radial PAW
   METAGGA=      F    non-selfconsistent MetaGGA calc.

 Electronic Relaxation 1
   ENCUT  =  500.0 eV  36.75 Ry    6.06 a.u.  23.15 22.84 36.42*2*pi/ulx,y,z
   ENINI  =  500.0     initial cutoff
   ENAUG  =  644.9 eV  augmentation charge cutoff
   NELM   =    250;   NELMIN=  2; NELMDL=  0     # of ELM steps 
   EDIFF  = 0.1E-03   stopping-criterion for ELM
   LREAL  =      F    real-space projection
   NLSPLINE    = F    spline interpolate recip. space projectors
   LCOMPAT=      F    compatible to vasp.4.4
   GGA_COMPAT  = T    GGA compatible to vasp.4.4-vasp.4.6
   LMAXPAW     = -100 max onsite density
   LMAXMIX     =    2 max onsite mixed and CHGCAR
   VOSKOWN=      0    Vosko Wilk Nusair interpolation
   ROPT   =    0.00000   0.00000   0.00000   0.00000
 Ionic relaxation
   EDIFFG = -.3E-01   stopping-criterion for IOM
   NSW    =      0    number of steps for IOM
   NBLOCK =      1;   KBLOCK =      1    inner block; outer block 
   IBRION =     -1    ionic relax: 0-MD 1-quasi-New 2-CG
   NFREE  =      1    steps in history (QN), initial steepest desc. (CG)
   ISIF   =      2    stress and relaxation
   IWAVPR =     10    prediction:  0-non 1-charg 2-wave 3-comb
   ISYM   =      3    0-nonsym 1-usesym 2-fastsym
   LCORR  =      T    Harris-Foulkes like correction to forces

   POTIM  = 0.5000    time-step for ionic-motion
   TEIN   =    0.0    initial temperature
   TEBEG  =    0.0;   TEEND  =   0.0 temperature during run
   SMASS  =  -3.00    Nose mass-parameter (am)
   estimated Nose-frequenzy (Omega)   =  0.10E-29 period in steps =****** mass=  -0.368E-26a.u.
   SCALEE = 1.0000    scale energy and forces
   NPACO  =    256;   APACO  = 16.0  distance and # of slots for P.C.
   PSTRESS=    0.0 pullay stress

  Mass of Ions in am
   POMASS =  12.01 14.00 55.85 47.88
  Ionic Valenz
   ZVAL   =   4.00  5.00  8.00  4.00
  Atomic Wigner-Seitz radii
   RWIGS  =  -1.00 -1.00 -1.00 -1.00
  virtual crystal weights 
   VCA    =   1.00  1.00  1.00  1.00
   NELECT =     242.0000    total number of electrons
   NUPDOWN=      -1.0000    fix difference up-down

 DOS related values:
   EMIN   =  10.00;   EMAX   =-10.00  energy-range for DOS
   EFERMI =   0.00
   ISMEAR =     0;   SIGMA  =   0.10  broadening in eV -4-tet -1-fermi 0-gaus

 Electronic relaxation 2 (details)
   IALGO  =     53    algorithm
   LDIAG  =      T    sub-space diagonalisation (order eigenvalues)
   LSUBROT=      F    optimize rotation matrix (better conditioning)
   TURBO    =      0    0=normal 1=particle mesh
   IRESTART =      0    0=no restart 2=restart with 2 vectors
   NREBOOT  =      0    no. of reboots
   NMIN     =      0    reboot dimension
   EREF     =   0.00    reference energy to select bands
   IMIX   =      4    mixing-type and parameters
     AMIX     =   0.40;   BMIX     =  1.00
     AMIX_MAG =   1.60;   BMIX_MAG =  1.00
     AMIN     =   0.10
     WC   =   100.;   INIMIX=   1;  MIXPRE=   1;  MAXMIX= -45

 Intra band minimization:
   WEIMIN = 0.0000     energy-eigenvalue tresh-hold
   EBREAK =  0.16E-06  absolut break condition
   DEPER  =   0.30     relativ break condition  

   TIME   =   0.20     timestep for ELM

  volume/ion in A,a.u.               =      54.77       369.63
  Fermi-wavevector in a.u.,A,eV,Ry     =   0.693978  1.311429  6.552644  0.481606
  Thomas-Fermi vector in A             =   1.776343
 
 Write flags
   LWAVE        =      T    write WAVECAR
   LDOWNSAMPLE  =      F    k-point downsampling of WAVECAR
   LCHARG       =      T    write CHGCAR
   LVTOT        =      F    write LOCPOT, total local potential
   LVHAR        =      F    write LOCPOT, Hartree potential only
   LELF         =      F    write electronic localiz. function (ELF)
   LORBIT       =     11    0 simple, 1 ext, 2 COOP (PROOUT), +10 PAW based schemes


 Dipole corrections
   LMONO  =      F    monopole corrections only (constant potential shift)
   LDIPOL =      T    correct potential (dipole corrections)
   IDIPOL =      3    1-x, 2-y, 3-z, 4-all directions 
   EPSILON=  1.0000000 bulk dielectric constant

 Exchange correlation treatment:
   GGA     =    PE    GGA type
   LEXCH   =     8    internal setting for exchange type
   VOSKOWN=      0    Vosko Wilk Nusair interpolation
   EXXOEP  =     0    0=HF, 1=EXX-LHF (local Hartree Fock) 2=EXX OEP
   LHFCALC =     T    Hartree Fock is set to
   LSYMGRAD=     F    symmetrize gradient (conserves proper symmetry)
   PRECFOCK=normal    Normal, Fast or Accurate (Low or Medium for compatibility)
   LRHFCALC=     F    long range Hartree Fock
   LRSCOR  =     F    long range correlation only (use DFT for short range part)
   LTHOMAS =     F    Thomas Fermi screening in HF
   LMODELHF=     F    short range full HF, long range fraction AEXX
   ENCUT4O =  -1.0   cutoff for four orbital integrals eV
   LMAXFOCK=     4    L truncation for augmentation on plane wave grid
   LMAXFOCKAE=  -1    L truncation for all-electron charge restoration on plane wave grid
   NMAXFOCKAE=   1    number of basis functions for all-electron charge restoration
   LFOCKAEDFT=     F  apply the AE augmentation even for DFT
   NKREDX  =     1    reduce k-point grid by
   NKREDY  =     1    reduce k-point grid by
   NKREDZ  =     1    reduce k-point grid by
   SHIFTRED=     F    shift reduced grid of Gamma
   HFKIDENT=     F    idential grid for each k-point
   ODDONLY =     F    use only odd q-grid points
   EVENONLY=     F    use only even q-grid points
   HFALPHA =   -1.0000 decay constant for conv. correction
   MCALPHA =    0.0000 extent of test-charge in conv. correction in multipole expansion
   AEXX    =    0.2500 exact exchange contribution
   HFSCREEN=    0.2000 screening length (either q_TF or 0.3 A-1)
   HFSCREENC=   0.2000 screening length for correlation (either q_TF or 0.3 A-1)
   HFRCUT  =    0.0000 spherical cutoff for potential kernel
   ALDAX   =    0.7500 LDA exchange part
   AGGAX   =    0.7500 GGA exchange part
   ALDAC   =    1.0000 LDA correlation
   AGGAC   =    1.0000 GGA correlation
   ENCUTFOCK=  -1.0 apply spherical cutoff to Coloumb kernel
   NBANDSGWLOW=     1    first orbital included in HF term
   NBLOCK_FOCK=    64    blocking factor in FOCK_ACC
 Linear response parameters
   LEPSILON=     F    determine dielectric tensor
   LRPA    =     F    only Hartree local field effects (RPA)
   LNABLA  =     F    use nabla operator in PAW spheres
   LVEL    =     F    velocity operator in full k-point grid
   LINTERFAST=   F  fast interpolation
   KINTER  =     0    interpolate to denser k-point grid
   CSHIFT  =0.1000    complex shift for real part using Kramers Kronig
   OMEGAMAX=  -1.0    maximum frequency
   DEG_THRESHOLD= 0.2000000E-02 threshold for treating states as degnerate
   RTIME   =   -0.100 relaxation time in fs
  (WPLASMAI=    0.000 imaginary part of plasma frequency in eV, 0.658/RTIME)
   DFIELD  = 0.0000000 0.0000000 0.0000000 field for delta impulse in time
 
 Orbital magnetization related:
   ORBITALMAG=     F  switch on orbital magnetization
   LCHIMAG   =     F  perturbation theory with respect to B field
   DQ        =  0.001000  dq finite difference perturbation B field
   LLRAUG    =     F  two centre corrections for induced B field



--------------------------------------------------------------------------------------------------------


 Static calculation
 charge density and potential will be updated during run
 spin polarized calculation
 Conjugate gradient for all bands (Freysoldt, et al. PRB 79, 241103 (2009))
 perform sub-space diagonalisation
    before iterative eigenvector-optimisation
 modified Broyden-mixing scheme, WC =      100.0
 initial mixing is a Kerker type mixing with AMIX =  0.4000 and BMIX =      1.0000
 Hartree-type preconditioning will be used
 using additional bands           34
 reciprocal scheme for non local part
 use partial core corrections
 no Harris-corrections to forces 
 use gradient corrections 
 use of overlap-Matrix (Vanderbilt PP)
 Gauss-broadening in eV      SIGMA  =   0.10


--------------------------------------------------------------------------------------------------------


  energy-cutoff  :      500.00
  volume of cell :     3176.89
      direct lattice vectors                 reciprocal lattice vectors
    12.697700000  0.000000000  0.000000000     0.078754420 -0.000636556  0.000220998
     0.101231286 12.524290891  0.000000000     0.000000000  0.079844840  0.000020485
    -0.056099471 -0.005125317 19.976720572     0.000000000  0.000000000  0.050058266

  length of vectors
    12.697700000 12.524700000 19.976800000     0.078757303  0.079844842  0.050058266


 
 old parameters found on file WAVECAR:
  energy-cutoff  :      500.00
  volume of cell :     3176.89
      direct lattice vectors                 reciprocal lattice vectors
    12.697700000  0.000000000  0.000000000     0.078754420 -0.000636556  0.000220998
     0.101231286 12.524290891  0.000000000     0.000000000  0.079844840  0.000020485
    -0.056099471 -0.005125317 19.976720572     0.000000000  0.000000000  0.050058266

  length of vectors

 
 k-points in units of 2pi/SCALE and weight: KPOINTS created by Atomic Simulation Env
   0.01968861  0.01980207  0.00006037       0.500
  -0.01968861  0.02012035 -0.00005013       0.500
 
 k-points in reciprocal lattice and weights: KPOINTS created by Atomic Simulation Env
   0.25000000  0.25000000  0.00000000       0.500
  -0.25000000  0.25000000 -0.00000000       0.500
 
 position of ions in fractional coordinates (direct lattice) 
   0.22157009  0.99781877  0.50249565
   0.05416417  0.09887251  0.50102744
   0.11000177  0.99886031  0.50149848
   0.27684925  0.09517340  0.50412959
   0.22110571  0.19350957  0.50413467
   0.05642662  0.29905197  0.50064191
   0.10959725  0.19750550  0.50167783
   0.27820581  0.28960301  0.50483060
   0.06431175  0.49737287  0.49827873
   0.11834821  0.39500538  0.49910188
   0.05942090  0.69848681  0.49881151
   0.11983928  0.59997527  0.49816321
   0.27925894  0.70178477  0.49883005
   0.22388175  0.80056253  0.50064421
   0.05610915  0.89900924  0.50044208
   0.11215678  0.79935144  0.50020428
   0.27809497  0.89921335  0.50145377
   0.55578592  0.99953160  0.49991285
   0.38863472  0.09603564  0.50373469
   0.44482051  0.99784859  0.50120290
   0.60981653  0.09876740  0.50139164
   0.55431708  0.19745664  0.50499547
   0.44193325  0.19451506  0.50635317
   0.55623449  0.60787067  0.49236733
   0.39179741  0.70246354  0.49636719
   0.61264399  0.70475659  0.49433133
   0.55700353  0.80306444  0.49608528
   0.38915655  0.89963581  0.50045397
   0.44524208  0.80107197  0.49785785
   0.61210519  0.90083370  0.49766893
   0.88888518  0.99991657  0.49935724
   0.72151140  0.10002477  0.50051151
   0.77740582  0.00030337  0.49901184
   0.94222109  0.10033181  0.50008129
   0.88678993  0.20132837  0.50036693
   0.71338001  0.30001059  0.50311139
   0.77392875  0.20138245  0.50122284
   0.94291719  0.30088053  0.50040086
   0.88644506  0.40073134  0.49969062
   0.71771964  0.50413915  0.49710254
   0.77050756  0.40157046  0.50027669
   0.94838445  0.49823853  0.49846003
   0.89187323  0.59830187  0.49764344
   0.72437342  0.70125503  0.49566352
   0.77865652  0.60010922  0.49636153
   0.94697659  0.69826967  0.49816010
   0.89132302  0.79898150  0.49817691
   0.72360198  0.90016146  0.49767398
   0.77941062  0.80020267  0.49704335
   0.94465324  0.89938402  0.49927000
   0.22874212  0.38617140  0.49828241
   0.22820224  0.60517650  0.49797427
   0.38650580  0.29025135  0.51051856
   0.60394314  0.29573956  0.50743369
   0.60802641  0.51204118  0.49522228
   0.44653745  0.60493673  0.49033849
   0.34018733  0.49024034  0.48519745
   0.48434716  0.42053119  0.52883777
 
 position of ions in cartesian coordinates  (Angst):
   2.88625133 12.49439707 10.03821525
   0.66966195  1.23574018 10.00888514
   1.46975160 12.50744669 10.01829494
   3.49670185  1.18939554 10.07085587
   2.79884150  2.42098627 10.07095747
   0.71867597  3.74284796 10.00118353
   1.38348282  2.47104512 10.02187777
   3.53357004  3.62448493 10.08485990
   0.83900789  6.22668865  9.95397492
   1.51473761  4.94460421  9.97041884
   0.79723447  8.74549539  9.96461812
   1.55447281  7.51171162  9.95166729
   3.58900467  8.78679998  9.96498843
   2.89573935 10.02391207 10.00122942
   0.77539049 11.25688834  9.99719167
   1.47699137 10.00874621  9.99244105
   3.59406368 11.25943948 10.01740188
   7.13034190 12.51586232  9.98661931
   4.91622970  1.20019647 10.06296723
   5.72109371 12.49477723 10.01239029
   7.72513787  1.23442187 10.01616073
   7.03021083  2.47041609 10.08815335
   5.60282065  2.43356797 10.11527583
   7.09681269  7.61062557  9.83588457
   5.01819137  8.79531363  9.91578858
   7.82278124  8.82404293  9.87511888
   7.12612883 10.05527006  9.91015704
   5.00438922 11.26473556  9.99742906
   5.70671429 10.03030670  9.94556706
   7.83560168 11.27975257  9.94179317
  11.36000656 12.52068662  9.97552003
   9.14358254  1.25017409  9.99857867
   9.84330232  0.00124196  9.96862003
  11.94614314  1.25402174  9.98998420
  11.25250288  2.51893050  9.99569028
   9.06043157  3.75484135 10.05051561
   9.81938291  2.51960346 10.01278858
  11.97526592  3.76575061  9.99636816
  11.26834767  5.01631481  9.98217993
   9.13653615  6.31143754  9.93047862
   9.79626002  5.02682120  9.99388763
  12.06477522  6.23752947  9.95759672
  11.35738799  7.49075610  9.94128392
   9.24105885  8.78018161  9.90173162
   9.92005110  7.51339838  9.91567567
  12.06716489  8.74277919  9.95160512
  11.37068677 10.00412346  9.95194086
   9.25128613 11.27133320  9.94189399
   9.94984394 10.01942356  9.92929611
  12.05796050 11.26158816  9.97377721
   2.91563805  4.83396909  9.95404853
   2.93097030  7.57685431  9.94789281
   4.90847745  3.63257573 10.19848669
   7.67016012  3.70132747 10.13686095
   7.74458978  6.41041450  9.89291714
   5.70372932  7.57389048  9.79535492
   4.34200496  6.13742588  9.69265387
   6.16299829  5.26414444 10.56444438
 


--------------------------------------------------------------------------------------------------------


 k-point  1 :   0.2500 0.2500 0.0000  plane waves:   80692
 k-point  2 :  -0.2500 0.2500-0.0000  plane waves:   80667

 maximum and minimum number of plane-waves per node :      2042     1995

 maximum number of plane-waves:     80692
 maximum index in each direction: 
   IXMAX=   23   IYMAX=   22   IZMAX=   36
   IXMIN=  -23   IYMIN=  -23   IZMIN=  -36


 parallel 3D FFT for wavefunctions:
    minimum data exchange during FFTs selected (reduces bandwidth)
 parallel 3D FFT for charge:
    minimum data exchange during FFTs selected (reduces bandwidth)


 FFT grid for exact exchange (Hartree Fock) 
  NGX = 70; NGY = 70; NGZ =112

 
 Radii for the augmentation spheres in the non-local exchange
 for species   1 augmentation radius   0.874 (default was   0.699)
       energy cutoff for augmentation   2000.0
 for species   2 augmentation radius   0.886 (default was   0.709)
       energy cutoff for augmentation   2000.0
 for species   3 augmentation radius   1.263 (default was   1.010)
       energy cutoff for augmentation   2000.0
 for species   4 augmentation radius   1.575 (default was   1.260)
       energy cutoff for augmentation   2000.0

 real space projection operators:
  total allocation   :       2732.15 KBytes
  max/ min on nodes  :        100.75         49.71

 Maximum index for augmentation-charges in exchange          124
  SETUP_FOCK is finished

 total amount of memory used by VASP MPI-rank0   142227. kBytes
=======================================================================

   base      :      30000. kBytes
   nonl-proj :       4264. kBytes
   fftplans  :      11851. kBytes
   grid      :      31266. kBytes
   one-center:         62. kBytes
   HF        :         23. kBytes
   nonlr-proj:       2982. kBytes
   wavefun   :      61779. kBytes
 
     INWAV:  cpu time    3.0396: real time    5.5407
 Broyden mixing: mesh for mixing (old mesh)
   NGX = 47   NGY = 45   NGZ = 73
  (NGX  =192   NGY  =192   NGZ  =300)
  gives a total of 154395 points

 charge density for first step will be calculated from the start-wavefunctions


--------------------------------------------------------------------------------------------------------


 Maximum index for augmentation-charges          615 (set IRDMAX)


--------------------------------------------------------------------------------------------------------


 initial charge from wavefunction
 First call to EWALD:  gamma=   0.121
 Maximum number of real-space cells 3x 3x 2
 Maximum number of reciprocal cells 2x 2x 4

    FEWALD:  cpu time    0.0032: real time    0.0032


--------------------------------------- Iteration      1(   1)  ---------------------------------------


    POTLOK:  cpu time    1.1157: real time    1.1206
    SETDIJ:  cpu time    1.1555: real time    1.1587
    TRIAL :  cpu time  189.2219: real time  189.8266
    CORREC:  cpu time    0.0010: real time    0.0010
    CHARGE:  cpu time    0.9133: real time    0.9173
    --------------------------------------------
      LOOP:  cpu time  192.4284: real time  193.0467

 eigenvalue-minimisations  :     0
 total energy-change (2. order) :-0.6085451E+03  (-0.4360446E+00)
 number of electron     241.9999994 magnetization       1.7189294
 augmentation part       11.4051101 magnetization       1.2286069

 DIPCOR: dipole corrections for dipol
 direction  3 min pos     1,
 dipolmoment           0.000449      0.000041     -0.159818 electrons x Angstroem
 Tr[quadrupol]     -6371.009340

 energy correction for charged system         0.000000 eV
 dipol+quadrupol energy correction           -0.000730 eV
 added-field ion interaction         -0.009040 eV  (added to PSCEN)


 Free energy of the ion-electron system (eV)
  ---------------------------------------------------
  alpha Z        PSCENC =       101.35090083
  Ewald energy   TEWEN  =     38652.38225513
  -Hartree energ DENC   =    -46856.80850872
  -exchange      EXHF   =       548.80120655
  -V(xc)+E(xc)   XCENC  =       595.42424883
  PAW double counting   =     26111.94629647   -26117.46682815
  entropy T*S    EENTRO =        -0.02958602
  eigenvalues    EBANDS =     -3165.39349818
  atomic energy  EATOM  =      9521.25154468
  ---------------------------------------------------
  free energy    TOTEN  =      -608.54512999 eV

  energy without entropy =     -608.51554397  energy(sigma->0) =     -608.53033698
  exchange ACFDT corr.  =        -0.03229762  see jH, gK, PRB 81, 115126


--------------------------------------------------------------------------------------------------------




--------------------------------------- Iteration      1(   2)  ---------------------------------------


    POTLOK:  cpu time    1.1289: real time    1.1323
    SETDIJ:  cpu time    1.2182: real time    1.2223
    TRIAL :  cpu time  190.2334: real time  190.7609
    CORREC:  cpu time    0.0010: real time    0.0010
    CHARGE:  cpu time    0.9154: real time    0.9176
    --------------------------------------------
      LOOP:  cpu time  193.4990: real time  194.0403

 eigenvalue-minimisations  :     0
 total energy-change (2. order) :-0.3560449E+00  (-0.3792489E+00)
 number of electron     241.9999994 magnetization       1.7691449
 augmentation part       11.3544478 magnetization       1.2698766

 DIPCOR: dipole corrections for dipol
 direction  3 min pos     1,
 dipolmoment           0.000511      0.000047     -0.182011 electrons x Angstroem
 Tr[quadrupol]     -6370.828269

 energy correction for charged system         0.000000 eV
 dipol+quadrupol energy correction           -0.000947 eV
 added-field ion interaction         -0.010296 eV  (added to PSCEN)


 Free energy of the ion-electron system (eV)
  ---------------------------------------------------
  alpha Z        PSCENC =       101.34942859
  Ewald energy   TEWEN  =     38652.38225513
  -Hartree energ DENC   =    -46842.56461416
  -exchange      EXHF   =       548.67038654
  -V(xc)+E(xc)   XCENC  =       595.11416381
  PAW double counting   =     26242.69422022   -26247.91463599
  entropy T*S    EENTRO =        -0.02596731
  eigenvalues    EBANDS =     -3179.85433768
  atomic energy  EATOM  =      9521.25154468
  ---------------------------------------------------
  free energy    TOTEN  =      -608.90117489 eV

  energy without entropy =     -608.87520758  energy(sigma->0) =     -608.88819123
  exchange ACFDT corr.  =        -0.03613451  see jH, gK, PRB 81, 115126


--------------------------------------------------------------------------------------------------------




--------------------------------------- Iteration      1(   3)  ---------------------------------------


    POTLOK:  cpu time    1.1366: real time    1.1407
    SETDIJ:  cpu time    1.2187: real time    1.2223
    TRIAL :  cpu time  189.4119: real time  189.9583
    CORREC:  cpu time    0.0010: real time    0.0010
    CHARGE:  cpu time    0.9129: real time    0.9154
    --------------------------------------------
      LOOP:  cpu time  192.6833: real time  193.2446

 eigenvalue-minimisations  :     0
 total energy-change (2. order) :-0.2899165E+00  (-0.2176025E+00)
 number of electron     241.9999994 magnetization       1.8061988
 augmentation part       11.3434628 magnetization       1.2974626

 DIPCOR: dipole corrections for dipol
 direction  3 min pos     1,
 dipolmoment           0.000446      0.000041     -0.158704 electrons x Angstroem
 Tr[quadrupol]     -6370.628672

 energy correction for charged system         0.000000 eV
 dipol+quadrupol energy correction           -0.000720 eV
 added-field ion interaction         -0.008977 eV  (added to PSCEN)


 Free energy of the ion-electron system (eV)
  ---------------------------------------------------
  alpha Z        PSCENC =       101.35097400
  Ewald energy   TEWEN  =     38652.38225513
  -Hartree energ DENC   =    -46824.76412240
  -exchange      EXHF   =       548.53756640
  -V(xc)+E(xc)   XCENC  =       594.72317877
  PAW double counting   =     26405.73874753   -26410.51375156
  entropy T*S    EENTRO =        -0.02297427
  eigenvalues    EBANDS =     -3197.87151665
  atomic energy  EATOM  =      9521.25154468
  ---------------------------------------------------
  free energy    TOTEN  =      -609.19109140 eV

  energy without entropy =     -609.16811714  energy(sigma->0) =     -609.17960427
  exchange ACFDT corr.  =        -0.02328501  see jH, gK, PRB 81, 115126


--------------------------------------------------------------------------------------------------------




--------------------------------------- Iteration      1(   4)  ---------------------------------------


    POTLOK:  cpu time    1.1403: real time    1.1432
    SETDIJ:  cpu time    1.2144: real time    1.2191
    TRIAL :  cpu time  189.1740: real time  190.5357
    CORREC:  cpu time    0.0010: real time    0.0010
    CHARGE:  cpu time    0.9090: real time    0.9118
    --------------------------------------------
      LOOP:  cpu time  192.4402: real time  193.8177

 eigenvalue-minimisations  :     0
 total energy-change (2. order) :-0.1679500E+00  (-0.1310746E+00)
 number of electron     241.9999993 magnetization       1.8395086
 augmentation part       11.3547978 magnetization       1.3151388

 DIPCOR: dipole corrections for dipol
 direction  3 min pos     1,
 dipolmoment           0.000384      0.000035     -0.136615 electrons x Angstroem
 Tr[quadrupol]     -6370.557059

 energy correction for charged system         0.000000 eV
 dipol+quadrupol energy correction           -0.000534 eV
 added-field ion interaction         -0.007728 eV  (added to PSCEN)


 Free energy of the ion-electron system (eV)
  ---------------------------------------------------
  alpha Z        PSCENC =       101.35241004
  Ewald energy   TEWEN  =     38652.38225513
  -Hartree energ DENC   =    -46816.77622751
  -exchange      EXHF   =       548.61748011
  -V(xc)+E(xc)   XCENC  =       594.55773467
  PAW double counting   =     26544.51955703   -26549.23442949
  entropy T*S    EENTRO =        -0.02002289
  eigenvalues    EBANDS =     -3206.00639176
  atomic energy  EATOM  =      9521.25154468
  ---------------------------------------------------
  free energy    TOTEN  =      -609.35904136 eV

  energy without entropy =     -609.33901847  energy(sigma->0) =     -609.34902992
  exchange ACFDT corr.  =        -0.02270135  see jH, gK, PRB 81, 115126


--------------------------------------------------------------------------------------------------------




--------------------------------------- Iteration      1(   5)  ---------------------------------------


    POTLOK:  cpu time    1.1408: real time    1.1448
    SETDIJ:  cpu time    1.2186: real time    1.2218
    TRIAL :  cpu time  189.4252: real time  189.9449
    CORREC:  cpu time    0.0010: real time    0.0010
    CHARGE:  cpu time    0.9089: real time    0.9113
    --------------------------------------------
      LOOP:  cpu time  192.6962: real time  193.2302

 eigenvalue-minimisations  :     0
 total energy-change (2. order) :-0.1069305E+00  (-0.9153863E-01)
 number of electron     241.9999993 magnetization       1.8708381
 augmentation part       11.3670010 magnetization       1.3270290

 DIPCOR: dipole corrections for dipol
 direction  3 min pos     1,
 dipolmoment           0.000370      0.000034     -0.131841 electrons x Angstroem
 Tr[quadrupol]     -6370.596814

 energy correction for charged system         0.000000 eV
 dipol+quadrupol energy correction           -0.000497 eV
 added-field ion interaction         -0.007458 eV  (added to PSCEN)


 Free energy of the ion-electron system (eV)
  ---------------------------------------------------
  alpha Z        PSCENC =       101.35271674
  Ewald energy   TEWEN  =     38652.38225513
  -Hartree energ DENC   =    -46818.10111928
  -exchange      EXHF   =       548.88193785
  -V(xc)+E(xc)   XCENC  =       594.62618340
  PAW double counting   =     26642.19073755   -26647.03462598
  entropy T*S    EENTRO =        -0.01700146
  eigenvalues    EBANDS =     -3204.99557907
  atomic energy  EATOM  =      9521.25154468
  ---------------------------------------------------
  free energy    TOTEN  =      -609.46597188 eV

  energy without entropy =     -609.44897042  energy(sigma->0) =     -609.45747115
  exchange ACFDT corr.  =        -0.01812922  see jH, gK, PRB 81, 115126


--------------------------------------------------------------------------------------------------------




--------------------------------------- Iteration      1(   6)  ---------------------------------------


    POTLOK:  cpu time    1.1367: real time    1.1430
    SETDIJ:  cpu time    1.2168: real time    1.2207
    TRIAL :  cpu time  189.2369: real time  189.7627
    CORREC:  cpu time    0.0009: real time    0.0009
    CHARGE:  cpu time    0.9056: real time    0.9085
    --------------------------------------------
      LOOP:  cpu time  192.4988: real time  193.0425

 eigenvalue-minimisations  :     0
 total energy-change (2. order) :-0.7808888E-01  (-0.6725583E-01)
 number of electron     241.9999993 magnetization       1.8965816
 augmentation part       11.3762409 magnetization       1.3350294

 DIPCOR: dipole corrections for dipol
 direction  3 min pos     1,
 dipolmoment           0.000375      0.000034     -0.133686 electrons x Angstroem
 Tr[quadrupol]     -6370.670229

 energy correction for charged system         0.000000 eV
 dipol+quadrupol energy correction           -0.000511 eV
 added-field ion interaction         -0.007562 eV  (added to PSCEN)


 Free energy of the ion-electron system (eV)
  ---------------------------------------------------
  alpha Z        PSCENC =       101.35259834
  Ewald energy   TEWEN  =     38652.38225513
  -Hartree energ DENC   =    -46822.70430256
  -exchange      EXHF   =       549.19049857
  -V(xc)+E(xc)   XCENC  =       594.79006268
  PAW double counting   =     26702.52484722   -26707.43856798
  entropy T*S    EENTRO =        -0.01431158
  eigenvalues    EBANDS =     -3200.87599539
  atomic energy  EATOM  =      9521.25154468
  ---------------------------------------------------
  free energy    TOTEN  =      -609.54406076 eV

  energy without entropy =     -609.52974918  energy(sigma->0) =     -609.53690497
  exchange ACFDT corr.  =        -0.01431324  see jH, gK, PRB 81, 115126


--------------------------------------------------------------------------------------------------------




--------------------------------------- Iteration      1(   7)  ---------------------------------------


    POTLOK:  cpu time    1.1362: real time    1.1399
    SETDIJ:  cpu time    1.2207: real time    1.2248
    TRIAL :  cpu time  189.1017: real time  189.6236
    CORREC:  cpu time    0.0014: real time    0.0014
    CHARGE:  cpu time    0.9142: real time    0.9166
    --------------------------------------------
      LOOP:  cpu time  192.3762: real time  192.9132

 eigenvalue-minimisations  :     0
 total energy-change (2. order) :-0.5875897E-01  (-0.5038644E-01)
 number of electron     241.9999993 magnetization       1.9156345
 augmentation part       11.3848327 magnetization       1.3407719

 DIPCOR: dipole corrections for dipol
 direction  3 min pos     1,
 dipolmoment           0.000382      0.000035     -0.135928 electrons x Angstroem
 Tr[quadrupol]     -6370.730802

 energy correction for charged system         0.000000 eV
 dipol+quadrupol energy correction           -0.000528 eV
 added-field ion interaction         -0.007689 eV  (added to PSCEN)


 Free energy of the ion-electron system (eV)
  ---------------------------------------------------
  alpha Z        PSCENC =       101.35245425
  Ewald energy   TEWEN  =     38652.38225513
  -Hartree energ DENC   =    -46826.98254446
  -exchange      EXHF   =       549.45402608
  -V(xc)+E(xc)   XCENC  =       594.95160672
  PAW double counting   =     26736.43820404   -26741.37183628
  entropy T*S    EENTRO =        -0.01217884
  eigenvalues    EBANDS =     -3197.06421831
  atomic energy  EATOM  =      9521.25154468
  ---------------------------------------------------
  free energy    TOTEN  =      -609.60281973 eV

  energy without entropy =     -609.59064089  energy(sigma->0) =     -609.59673031
  exchange ACFDT corr.  =        -0.01131491  see jH, gK, PRB 81, 115126


--------------------------------------------------------------------------------------------------------




--------------------------------------- Iteration      1(   8)  ---------------------------------------


    POTLOK:  cpu time    1.1343: real time    1.1377
    SETDIJ:  cpu time    1.2137: real time    1.2173
    TRIAL :  cpu time  189.0893: real time  189.6096
    CORREC:  cpu time    0.0011: real time    0.0011
    CHARGE:  cpu time    0.9080: real time    0.9104
    --------------------------------------------
      LOOP:  cpu time  192.3481: real time  192.8824

 eigenvalue-minimisations  :     0
 total energy-change (2. order) :-0.4518377E-01  (-0.3973395E-01)
 number of electron     241.9999993 magnetization       1.9295734
 augmentation part       11.3926454 magnetization       1.3455181

 DIPCOR: dipole corrections for dipol
 direction  3 min pos     1,
 dipolmoment           0.000382      0.000035     -0.136180 electrons x Angstroem
 Tr[quadrupol]     -6370.766271

 energy correction for charged system         0.000000 eV
 dipol+quadrupol energy correction           -0.000530 eV
 added-field ion interaction         -0.007703 eV  (added to PSCEN)


 Free energy of the ion-electron system (eV)
  ---------------------------------------------------
  alpha Z        PSCENC =       101.35243804
  Ewald energy   TEWEN  =     38652.38225513
  -Hartree energ DENC   =    -46829.77976449
  -exchange      EXHF   =       549.64620902
  -V(xc)+E(xc)   XCENC  =       595.07270028
  PAW double counting   =     26754.12732754   -26759.09602160
  entropy T*S    EENTRO =        -0.01052981
  eigenvalues    EBANDS =     -3194.59251326
  atomic energy  EATOM  =      9521.25154468
  ---------------------------------------------------
  free energy    TOTEN  =      -609.64800350 eV

  energy without entropy =     -609.63747369  energy(sigma->0) =     -609.64273859
  exchange ACFDT corr.  =        -0.00910732  see jH, gK, PRB 81, 115126


--------------------------------------------------------------------------------------------------------




--------------------------------------- Iteration      1(   9)  ---------------------------------------


    POTLOK:  cpu time    1.1311: real time    1.1350
    SETDIJ:  cpu time    1.2195: real time    1.2230
    TRIAL :  cpu time  189.6588: real time  190.1890
    CORREC:  cpu time    0.0009: real time    0.0009
    CHARGE:  cpu time    0.9082: real time    0.9105
    --------------------------------------------
      LOOP:  cpu time  192.9205: real time  193.4640

 eigenvalue-minimisations  :     0
 total energy-change (2. order) :-0.3633527E-01  (-0.3248572E-01)
 number of electron     241.9999993 magnetization       1.9401602
 augmentation part       11.3986867 magnetization       1.3501164

 DIPCOR: dipole corrections for dipol
 direction  3 min pos     1,
 dipolmoment           0.000373      0.000034     -0.132971 electrons x Angstroem
 Tr[quadrupol]     -6370.780988

 energy correction for charged system         0.000000 eV
 dipol+quadrupol energy correction           -0.000506 eV
 added-field ion interaction         -0.007522 eV  (added to PSCEN)


 Free energy of the ion-electron system (eV)
  ---------------------------------------------------
  alpha Z        PSCENC =       101.35264426
  Ewald energy   TEWEN  =     38652.38225513
  -Hartree energ DENC   =    -46831.05275631
  -exchange      EXHF   =       549.77456359
  -V(xc)+E(xc)   XCENC  =       595.14954492
  PAW double counting   =     26762.63197470   -26767.64660715
  entropy T*S    EENTRO =        -0.00921971
  eigenvalues    EBANDS =     -3193.51697278
  atomic energy  EATOM  =      9521.25154468
  ---------------------------------------------------
  free energy    TOTEN  =      -609.68433876 eV

  energy without entropy =     -609.67511906  energy(sigma->0) =     -609.67972891
  exchange ACFDT corr.  =        -0.00749590  see jH, gK, PRB 81, 115126


--------------------------------------------------------------------------------------------------------




--------------------------------------- Iteration      1(  10)  ---------------------------------------


    POTLOK:  cpu time    1.1339: real time    1.1377
    SETDIJ:  cpu time    1.2168: real time    1.2202
    TRIAL :  cpu time  189.5660: real time  190.0868
    CORREC:  cpu time    0.0009: real time    0.0009
    CHARGE:  cpu time    0.9084: real time    0.9122
    --------------------------------------------
      LOOP:  cpu time  192.8278: real time  193.3638

 eigenvalue-minimisations  :     0
 total energy-change (2. order) :-0.3007751E-01  (-0.2705767E-01)
 number of electron     241.9999993 magnetization       1.9484385
 augmentation part       11.4032475 magnetization       1.3548380

 DIPCOR: dipole corrections for dipol
 direction  3 min pos     1,
 dipolmoment           0.000359      0.000033     -0.127802 electrons x Angstroem
 Tr[quadrupol]     -6370.784836

 energy correction for charged system         0.000000 eV
 dipol+quadrupol energy correction           -0.000467 eV
 added-field ion interaction         -0.007229 eV  (added to PSCEN)


 Free energy of the ion-electron system (eV)
  ---------------------------------------------------
  alpha Z        PSCENC =       101.35297516
  Ewald energy   TEWEN  =     38652.38225513
  -Hartree energ DENC   =    -46831.33805733
  -exchange      EXHF   =       549.86122651
  -V(xc)+E(xc)   XCENC  =       595.19620542
  PAW double counting   =     26766.26887649   -26771.31989711
  entropy T*S    EENTRO =        -0.00815518
  eigenvalues    EBANDS =     -3193.36032551
  atomic energy  EATOM  =      9521.25154468
  ---------------------------------------------------
  free energy    TOTEN  =      -609.71441627 eV

  energy without entropy =     -609.70626110  energy(sigma->0) =     -609.71033868
  exchange ACFDT corr.  =        -0.00628607  see jH, gK, PRB 81, 115126


--------------------------------------------------------------------------------------------------------




--------------------------------------- Iteration      1(  11)  ---------------------------------------


    POTLOK:  cpu time    1.1248: real time    1.1287
    SETDIJ:  cpu time    1.2214: real time    1.2247
    TRIAL :  cpu time  189.5661: real time  190.0895
    CORREC:  cpu time    0.0009: real time    0.0009
    CHARGE:  cpu time    0.9123: real time    0.9147
    --------------------------------------------
      LOOP:  cpu time  192.8271: real time  193.3658

 eigenvalue-minimisations  :     0
 total energy-change (2. order) :-0.2529563E-01  (-0.2290802E-01)
 number of electron     241.9999993 magnetization       1.9549763
 augmentation part       11.4071618 magnetization       1.3594822

 DIPCOR: dipole corrections for dipol
 direction  3 min pos     1,
 dipolmoment           0.000348      0.000032     -0.123876 electrons x Angstroem
 Tr[quadrupol]     -6370.786752

 energy correction for charged system         0.000000 eV
 dipol+quadrupol energy correction           -0.000439 eV
 added-field ion interaction         -0.007007 eV  (added to PSCEN)


 Free energy of the ion-electron system (eV)
  ---------------------------------------------------
  alpha Z        PSCENC =       101.35322551
  Ewald energy   TEWEN  =     38652.38225513
  -Hartree energ DENC   =    -46831.34274948
  -exchange      EXHF   =       549.92920906
  -V(xc)+E(xc)   XCENC  =       595.23114748
  PAW double counting   =     26767.70279306   -26772.78293733
  entropy T*S    EENTRO =        -0.00728585
  eigenvalues    EBANDS =     -3193.45604484
  atomic energy  EATOM  =      9521.25154468
  ---------------------------------------------------
  free energy    TOTEN  =      -609.73971190 eV

  energy without entropy =     -609.73242605  energy(sigma->0) =     -609.73606898
  exchange ACFDT corr.  =        -0.00535451  see jH, gK, PRB 81, 115126


--------------------------------------------------------------------------------------------------------




--------------------------------------- Iteration      1(  12)  ---------------------------------------


    POTLOK:  cpu time    1.1239: real time    1.1281
    SETDIJ:  cpu time    1.2032: real time    1.2073
    TRIAL :  cpu time  188.8906: real time  189.4149
    CORREC:  cpu time    0.0009: real time    0.0009
    CHARGE:  cpu time    0.9072: real time    0.9100
    --------------------------------------------
      LOOP:  cpu time  192.1278: real time  192.6671

 eigenvalue-minimisations  :     0
 total energy-change (2. order) :-0.2160966E-01  (-0.1972518E-01)
 number of electron     241.9999993 magnetization       1.9601547
 augmentation part       11.4108089 magnetization       1.3637663

 DIPCOR: dipole corrections for dipol
 direction  3 min pos     1,
 dipolmoment           0.000344      0.000031     -0.122459 electrons x Angstroem
 Tr[quadrupol]     -6370.790701

 energy correction for charged system         0.000000 eV
 dipol+quadrupol energy correction           -0.000429 eV
 added-field ion interaction         -0.006927 eV  (added to PSCEN)


 Free energy of the ion-electron system (eV)
  ---------------------------------------------------
  alpha Z        PSCENC =       101.35331564
  Ewald energy   TEWEN  =     38652.38225513
  -Hartree energ DENC   =    -46831.46915270
  -exchange      EXHF   =       549.99168732
  -V(xc)+E(xc)   XCENC  =       595.26507413
  PAW double counting   =     26768.60632577   -26773.71691137
  entropy T*S    EENTRO =        -0.00657708
  eigenvalues    EBANDS =     -3193.41817431
  atomic energy  EATOM  =      9521.25154468
  ---------------------------------------------------
  free energy    TOTEN  =      -609.76132156 eV

  energy without entropy =     -609.75474448  energy(sigma->0) =     -609.75803302
  exchange ACFDT corr.  =        -0.00462864  see jH, gK, PRB 81, 115126


--------------------------------------------------------------------------------------------------------




--------------------------------------- Iteration      1(  13)  ---------------------------------------


    POTLOK:  cpu time    1.1227: real time    1.1267
    SETDIJ:  cpu time    1.2027: real time    1.2062
    TRIAL :  cpu time  189.3267: real time  189.8485
    CORREC:  cpu time    0.0009: real time    0.0009
    CHARGE:  cpu time    0.9039: real time    0.9063
    --------------------------------------------
      LOOP:  cpu time  192.5588: real time  193.0947

 eigenvalue-minimisations  :     0
 total energy-change (2. order) :-0.1873151E-01  (-0.1719284E-01)
 number of electron     241.9999993 magnetization       1.9642572
 augmentation part       11.4141897 magnetization       1.3675743

 DIPCOR: dipole corrections for dipol
 direction  3 min pos     1,
 dipolmoment           0.000343      0.000031     -0.122275 electrons x Angstroem
 Tr[quadrupol]     -6370.796545

 energy correction for charged system         0.000000 eV
 dipol+quadrupol energy correction           -0.000428 eV
 added-field ion interaction         -0.006917 eV  (added to PSCEN)


 Free energy of the ion-electron system (eV)
  ---------------------------------------------------
  alpha Z        PSCENC =       101.35332731
  Ewald energy   TEWEN  =     38652.38225513
  -Hartree energ DENC   =    -46831.74353526
  -exchange      EXHF   =       550.05152106
  -V(xc)+E(xc)   XCENC  =       595.29928830
  PAW double counting   =     26769.67123697   -26774.81287423
  entropy T*S    EENTRO =        -0.00600152
  eigenvalues    EBANDS =     -3193.22623995
  atomic energy  EATOM  =      9521.25154468
  ---------------------------------------------------
  free energy    TOTEN  =      -609.78005307 eV

  energy without entropy =     -609.77405156  energy(sigma->0) =     -609.77705232
  exchange ACFDT corr.  =        -0.00405973  see jH, gK, PRB 81, 115126


--------------------------------------------------------------------------------------------------------




--------------------------------------- Iteration      1(  14)  ---------------------------------------


    POTLOK:  cpu time    1.1203: real time    1.1287
    SETDIJ:  cpu time    1.2096: real time    1.2135
    TRIAL :  cpu time  189.0868: real time  190.3231
    CORREC:  cpu time    0.0009: real time    0.0009
    CHARGE:  cpu time    0.9287: real time    0.9311
    --------------------------------------------
      LOOP:  cpu time  192.3478: real time  193.6033

 eigenvalue-minimisations  :     0
 total energy-change (2. order) :-0.1640875E-01  (-0.1512404E-01)
 number of electron     241.9999993 magnetization       1.9674997
 augmentation part       11.4173143 magnetization       1.3709185

 DIPCOR: dipole corrections for dipol
 direction  3 min pos     1,
 dipolmoment           0.000342      0.000031     -0.121759 electrons x Angstroem
 Tr[quadrupol]     -6370.802818

 energy correction for charged system         0.000000 eV
 dipol+quadrupol energy correction           -0.000424 eV
 added-field ion interaction         -0.006887 eV  (added to PSCEN)


 Free energy of the ion-electron system (eV)
  ---------------------------------------------------
  alpha Z        PSCENC =       101.35336012
  Ewald energy   TEWEN  =     38652.38225513
  -Hartree energ DENC   =    -46832.05087169
  -exchange      EXHF   =       550.10748406
  -V(xc)+E(xc)   XCENC  =       595.33151048
  PAW double counting   =     26771.00570374   -26776.17457082
  entropy T*S    EENTRO =        -0.00553692
  eigenvalues    EBANDS =     -3192.99687600
  atomic energy  EATOM  =      9521.25154468
  ---------------------------------------------------
  free energy    TOTEN  =      -609.79646182 eV

  energy without entropy =     -609.79092490  energy(sigma->0) =     -609.79369336
  exchange ACFDT corr.  =        -0.00361246  see jH, gK, PRB 81, 115126


--------------------------------------------------------------------------------------------------------




--------------------------------------- Iteration      1(  15)  ---------------------------------------


    POTLOK:  cpu time    1.1174: real time    1.1212
    SETDIJ:  cpu time    1.2132: real time    1.2173
    TRIAL :  cpu time  189.0813: real time  189.6087
    CORREC:  cpu time    0.0009: real time    0.0009
    CHARGE:  cpu time    0.9066: real time    0.9090
    --------------------------------------------
      LOOP:  cpu time  192.3216: real time  192.8631

 eigenvalue-minimisations  :     0
 total energy-change (2. order) :-0.1449003E-01  (-0.1339693E-01)
 number of electron     241.9999993 magnetization       1.9700622
 augmentation part       11.4202281 magnetization       1.3738644

 DIPCOR: dipole corrections for dipol
 direction  3 min pos     1,
 dipolmoment           0.000339      0.000031     -0.120603 electrons x Angstroem
 Tr[quadrupol]     -6370.808458

 energy correction for charged system         0.000000 eV
 dipol+quadrupol energy correction           -0.000416 eV
 added-field ion interaction         -0.006822 eV  (added to PSCEN)


 Free energy of the ion-electron system (eV)
  ---------------------------------------------------
  alpha Z        PSCENC =       101.35343353
  Ewald energy   TEWEN  =     38652.38225513
  -Hartree energ DENC   =    -46832.31775259
  -exchange      EXHF   =       550.15868568
  -V(xc)+E(xc)   XCENC  =       595.36032650
  PAW double counting   =     26772.60249746   -26777.79460894
  entropy T*S    EENTRO =        -0.00516310
  eigenvalues    EBANDS =     -3192.80179638
  atomic energy  EATOM  =      9521.25154468
  ---------------------------------------------------
  free energy    TOTEN  =      -609.81095185 eV

  energy without entropy =     -609.80578874  energy(sigma->0) =     -609.80837029
  exchange ACFDT corr.  =        -0.00326050  see jH, gK, PRB 81, 115126


--------------------------------------------------------------------------------------------------------




--------------------------------------- Iteration      1(  16)  ---------------------------------------


    POTLOK:  cpu time    1.1249: real time    1.1297
    SETDIJ:  cpu time    1.1851: real time    1.1890
    TRIAL :  cpu time  189.0880: real time  189.6068
    CORREC:  cpu time    0.0009: real time    0.0009
    CHARGE:  cpu time    0.9057: real time    0.9081
    --------------------------------------------
      LOOP:  cpu time  192.3066: real time  192.8405

 eigenvalue-minimisations  :     0
 total energy-change (2. order) :-0.1287419E-01  (-0.1193664E-01)
 number of electron     241.9999993 magnetization       1.9721010
 augmentation part       11.4229046 magnetization       1.3765066

 DIPCOR: dipole corrections for dipol
 direction  3 min pos     1,
 dipolmoment           0.000335      0.000031     -0.119412 electrons x Angstroem
 Tr[quadrupol]     -6370.813215

 energy correction for charged system         0.000000 eV
 dipol+quadrupol energy correction           -0.000408 eV
 added-field ion interaction         -0.006755 eV  (added to PSCEN)


 Free energy of the ion-electron system (eV)
  ---------------------------------------------------
  alpha Z        PSCENC =       101.35350906
  Ewald energy   TEWEN  =     38652.38225513
  -Hartree energ DENC   =    -46832.54167536
  -exchange      EXHF   =       550.20555634
  -V(xc)+E(xc)   XCENC  =       595.38602186
  PAW double counting   =     26774.39868605   -26779.61252973
  entropy T*S    EENTRO =        -0.00486114
  eigenvalues    EBANDS =     -3192.64203096
  atomic energy  EATOM  =      9521.25154468
  ---------------------------------------------------
  free energy    TOTEN  =      -609.82382604 eV

  energy without entropy =     -609.81896490  energy(sigma->0) =     -609.82139547
  exchange ACFDT corr.  =        -0.00298278  see jH, gK, PRB 81, 115126


--------------------------------------------------------------------------------------------------------




--------------------------------------- Iteration      1(  17)  ---------------------------------------


    POTLOK:  cpu time    1.1230: real time    1.1264
    SETDIJ:  cpu time    1.1781: real time    1.1814
    TRIAL :  cpu time  189.0855: real time  189.6067
    CORREC:  cpu time    0.0009: real time    0.0009
    CHARGE:  cpu time    0.9020: real time    0.9044
    --------------------------------------------
      LOOP:  cpu time  192.2912: real time  192.8257

 eigenvalue-minimisations  :     0
 total energy-change (2. order) :-0.1149861E-01  (-0.1069358E-01)
 number of electron     241.9999993 magnetization       1.9737396
 augmentation part       11.4253078 magnetization       1.3789164

 DIPCOR: dipole corrections for dipol
 direction  3 min pos     1,
 dipolmoment           0.000333      0.000030     -0.118660 electrons x Angstroem
 Tr[quadrupol]     -6370.817252

 energy correction for charged system         0.000000 eV
 dipol+quadrupol energy correction           -0.000403 eV
 added-field ion interaction         -0.006712 eV  (added to PSCEN)


 Free energy of the ion-electron system (eV)
  ---------------------------------------------------
  alpha Z        PSCENC =       101.35355675
  Ewald energy   TEWEN  =     38652.38225513
  -Hartree energ DENC   =    -46832.73882378
  -exchange      EXHF   =       550.24896706
  -V(xc)+E(xc)   XCENC  =       595.40943400
  PAW double counting   =     26776.25164262   -26781.48612362
  entropy T*S    EENTRO =        -0.00461530
  eigenvalues    EBANDS =     -3192.50291635
  atomic energy  EATOM  =      9521.25154468
  ---------------------------------------------------
  free energy    TOTEN  =      -609.83532465 eV

  energy without entropy =     -609.83070935  energy(sigma->0) =     -609.83301700
  exchange ACFDT corr.  =        -0.00276190  see jH, gK, PRB 81, 115126


--------------------------------------------------------------------------------------------------------




--------------------------------------- Iteration      1(  18)  ---------------------------------------


    POTLOK:  cpu time    1.1229: real time    1.1271
    SETDIJ:  cpu time    1.2221: real time    1.2252
    TRIAL :  cpu time  188.7498: real time  189.2749
[...]
  augment    24.34967    26.80978    27.03790    -0.62412    -1.05737     0.70381
  Kinetic  3609.60157  3647.26863  4151.46207     7.63407    -4.33346     0.70193
  Fock     -294.95001  -296.32875  -269.10150     1.21238     0.18978    -1.29376
  -------------------------------------------------------------------------------------
  Total     -41.47517   -43.64915    -0.25433     1.17361    -0.64326     0.47600
  in kB     -20.91685   -22.01324    -0.12827     0.59188    -0.32441     0.24006
  external pressure =      -14.35 kB  Pullay stress =        0.00 kB


 VOLUME and BASIS-vectors are now :
 -----------------------------------------------------------------------------
  energy-cutoff  :      500.00
  volume of cell :     3176.89
      direct lattice vectors                 reciprocal lattice vectors
    12.697700000  0.000000000  0.000000000     0.078754420 -0.000636556  0.000220998
     0.101231286 12.524290891  0.000000000     0.000000000  0.079844840  0.000020485
    -0.056099471 -0.005125317 19.976720572     0.000000000  0.000000000  0.050058266

  length of vectors
    12.697700000 12.524700000 19.976800000     0.078757303  0.079844842  0.050058266


 FORCES acting on ions:
    Electron-Ion                     Ewald-Force                    Non-Local-Force
 -----------------------------------------------------------------------------------------------
   0.478E+01 0.235E+01 -.886E+01   -.491E+01 -.262E+01 0.882E+01   0.867E-01 0.263E+00 0.479E-01
   0.537E+01 0.312E+00 -.132E+01   -.559E+01 -.439E+00 0.131E+01   0.198E+00 0.876E-01 0.228E-01
   0.108E+02 -.123E+01 -.528E+01   -.108E+02 0.128E+01 0.530E+01   0.115E+00 0.155E-01 -.134E-01
   0.286E+01 0.524E+01 -.155E+02   -.291E+01 -.565E+01 0.156E+02   -.199E-01 0.453E+00 -.166E+00
   0.114E+02 0.103E+02 -.165E+02   -.120E+02 -.112E+02 0.165E+02   0.538E+00 0.724E+00 -.497E-01
   0.180E+02 -.496E+01 -.304E+01   -.185E+02 0.531E+01 0.308E+01   0.468E+00 -.301E+00 -.320E-01
   0.170E+02 0.181E+00 -.308E+01   -.175E+02 -.970E-01 0.291E+01   0.562E+00 -.868E-01 0.175E+00
   0.418E+01 0.205E+02 -.242E+02   -.627E+01 -.234E+02 0.241E+02   0.211E+01 0.313E+01 0.529E-01
   0.111E+02 -.224E+01 0.461E+01   -.111E+02 0.222E+01 -.456E+01   -.531E-01 -.557E-01 -.574E-01
   0.346E+02 -.156E+02 0.234E+01   -.382E+02 0.161E+02 -.236E+01   0.364E+01 -.674E+00 0.243E-01
   0.118E+02 0.527E+01 0.618E+00   -.121E+02 -.549E+01 -.640E+00   0.235E+00 0.246E+00 0.358E-01
   0.432E+02 0.179E+02 0.254E+01   -.462E+02 -.183E+02 -.243E+01   0.321E+01 0.437E+00 -.843E-01
   -.625E+01 -.263E+02 -.775E+01   0.719E+01 0.289E+02 0.775E+01   -.108E+01 -.256E+01 -.133E-01
   0.564E+01 -.900E+01 -.952E+01   -.544E+01 0.938E+01 0.955E+01   -.125E+00 -.346E+00 -.375E-01
   0.168E+01 0.233E-01 -.353E+01   -.184E+01 0.249E-01 0.352E+01   0.845E-01 -.790E-01 0.993E-03
   0.144E+02 -.246E+01 -.522E+01   -.146E+02 0.252E+01 0.523E+01   0.249E+00 -.595E-01 -.133E-01
   0.598E+01 -.326E+01 -.829E+01   -.583E+01 0.336E+01 0.828E+01   -.984E-01 -.116E+00 0.892E-02
   -.879E+01 -.314E+01 0.353E+01   0.862E+01 0.308E+01 -.352E+01   0.904E-01 0.600E-01 0.204E-02
   -.411E+01 0.438E+01 -.818E+01   0.442E+01 -.485E+01 0.812E+01   -.196E+00 0.471E+00 0.833E-01
   -.865E+00 0.686E+00 -.130E+01   0.115E+01 -.922E+00 0.127E+01   -.218E+00 0.253E+00 0.403E-01
   -.395E+01 -.656E-01 0.144E+01   0.379E+01 -.284E+00 -.149E+01   0.115E+00 0.330E+00 0.687E-01
   0.448E+01 -.693E+00 -.119E+02   -.538E+01 -.180E+01 0.116E+02   0.105E+01 0.251E+01 0.337E+00
   -.242E+02 0.394E+01 -.176E+02   0.259E+02 -.688E+01 0.173E+02   -.179E+01 0.292E+01 0.339E+00
   -.117E+02 -.235E+01 0.366E+02   0.140E+02 0.588E+01 -.369E+02   -.227E+01 -.370E+01 0.359E+00
   0.597E+01 -.199E+02 0.195E+01   -.788E+01 0.229E+02 -.165E+01   0.195E+01 -.305E+01 -.374E+00
   -.128E+02 -.494E+01 0.193E+02   0.135E+02 0.608E+01 -.193E+02   -.564E+00 -.950E+00 -.802E-03
   -.663E+01 -.668E+01 0.131E+02   0.669E+01 0.723E+01 -.132E+02   0.148E-01 -.572E+00 0.107E+00
   -.328E+01 -.406E+01 -.461E+01   0.300E+01 0.428E+01 0.464E+01   0.217E+00 -.250E+00 -.386E-01
   -.215E+01 -.869E+01 0.148E+01   0.185E+01 0.921E+01 -.145E+01   0.177E+00 -.487E+00 -.505E-01
   -.498E+01 -.409E+01 0.830E+01   0.509E+01 0.440E+01 -.828E+01   -.764E-01 -.327E+00 -.180E-01
   -.496E+01 -.796E+00 0.285E+01   0.489E+01 0.848E+00 -.286E+01   -.145E-01 -.132E-01 0.910E-02
   -.109E+02 -.392E+01 0.119E+01   0.112E+02 0.386E+01 -.114E+01   -.252E+00 0.725E-01 -.407E-01
   0.122E+01 -.273E+01 0.445E+01   -.105E+01 0.270E+01 -.448E+01   -.860E-01 0.513E-01 0.290E-01
   0.852E+01 -.542E+01 0.212E+01   -.866E+01 0.557E+01 -.214E+01   0.148E+00 -.131E+00 0.232E-01
   0.781E+00 -.601E+01 0.128E+01   -.622E+00 0.627E+01 -.133E+01   -.176E+00 -.285E+00 0.538E-01
   -.207E+02 -.235E+02 -.897E+01   0.235E+02 0.237E+02 0.871E+01   -.312E+01 -.338E+00 0.280E+00
   -.387E+01 -.997E+01 -.115E+01   0.419E+01 0.101E+02 0.116E+01   -.265E+00 -.208E+00 -.162E-01
   0.742E+01 -.434E+01 -.195E+01   -.762E+01 0.467E+01 0.199E+01   0.235E+00 -.291E+00 -.344E-01
   0.981E+01 -.471E+01 -.220E+00   -.992E+01 0.481E+01 0.190E+00   0.996E-01 -.103E+00 0.319E-01
   -.201E+02 0.260E+02 0.103E+02   0.242E+02 -.265E+02 -.103E+02   -.404E+01 0.637E+00 -.548E-01
   0.359E+01 0.669E+01 -.277E+01   -.352E+01 -.668E+01 0.274E+01   -.922E-02 0.119E+00 0.347E-01
   -.116E+01 0.677E+01 0.333E+01   0.135E+01 -.687E+01 -.334E+01   -.221E+00 0.128E+00 0.330E-02
   -.188E+01 0.678E+01 0.499E+01   0.221E+01 -.715E+01 -.498E+01   -.326E+00 0.306E+00 -.163E-01
   -.142E+02 0.289E+01 0.127E+02   0.147E+02 -.293E+01 -.126E+02   -.592E+00 0.586E-01 -.454E-01
   -.117E+02 0.733E+01 0.117E+02   0.123E+02 -.766E+01 -.117E+02   -.617E+00 0.237E+00 0.173E-01
   0.597E+01 0.487E+01 0.291E+01   -.609E+01 -.511E+01 -.293E+01   0.170E+00 0.270E+00 0.131E-01
   -.466E+01 0.386E+01 0.304E+01   0.481E+01 -.399E+01 -.303E+01   -.155E+00 0.123E+00 -.107E-01
   -.100E+02 -.123E+01 0.753E+01   0.101E+02 0.120E+01 -.755E+01   -.107E+00 -.380E-01 0.204E-01
   -.277E+01 -.205E+00 0.744E+01   0.300E+01 0.382E+00 -.744E+01   -.213E+00 -.128E+00 -.684E-02
   0.792E+01 -.135E+01 0.128E+01   -.786E+01 0.129E+01 -.129E+01   0.652E-02 0.746E-02 0.125E-01
   0.823E+01 -.490E+02 0.140E+02   0.147E+01 0.674E+02 -.159E+02   -.945E+01 -.177E+02 0.195E+01
   0.255E+01 0.488E+02 -.760E+01   0.931E+01 -.692E+02 0.784E+01   -.116E+02 0.195E+02 -.282E+00
   -.715E+02 -.753E+02 -.724E+02   0.820E+02 0.934E+02 0.748E+02   -.102E+02 -.172E+02 -.251E+01
   0.407E+02 -.961E+02 -.416E+02   -.530E+02 0.117E+03 0.428E+02   0.118E+02 -.194E+02 -.118E+01
   0.294E+02 0.107E+03 0.334E+02   -.392E+02 -.128E+03 -.351E+02   0.922E+01 0.195E+02 0.154E+01
   0.333E+01 0.572E+02 0.622E+02   -.130E+02 -.721E+02 -.662E+02   0.969E+01 0.144E+02 0.385E+01
   -.544E+02 0.512E+02 0.195E+03   0.486E+02 -.489E+02 -.193E+03   0.431E+01 -.164E+01 -.295E+01
   -.219E+02 0.555E+01 -.190E+03   0.247E+02 -.842E+01 0.188E+03   -.975E+00 0.211E+01 0.359E+01
 -----------------------------------------------------------------------------------------------
   -.169E+01 0.195E+01 -.530E+01   0.206E-12 -.227E-12 0.568E-13   0.180E+01 -.186E+01 0.505E+01
 
 
 POSITION                                       TOTAL-FORCE (eV/Angst)
 -----------------------------------------------------------------------------------
      2.88625     12.49440     10.03822        -0.038444      0.014033      0.006043
      0.66966      1.23574     10.00889        -0.015260     -0.031368      0.008822
      1.46975     12.50745     10.01829         0.091978      0.062584      0.000421
      3.49670      1.18940     10.07086        -0.073990      0.064150     -0.016191
      2.79884      2.42099     10.07096        -0.078809     -0.152171     -0.025350
      0.71868      3.74285     10.00118        -0.062727      0.031464      0.006921
      1.38348      2.47105     10.02188         0.090718     -0.010316      0.018532
      3.53357      3.62448     10.08486         0.131543      0.340247     -0.015904
      0.83901      6.22669      9.95397        -0.028297     -0.087237     -0.011546
      1.51474      4.94460      9.97042         0.224095     -0.134679      0.006803
      0.79723      8.74550      9.96462        -0.097307      0.041198      0.015493
      1.55447      7.51171      9.95167         0.416311      0.143150      0.020008
      3.58900      8.78680      9.96499        -0.199051     -0.141107     -0.016406
      2.89574     10.02391     10.00123         0.064158      0.018427     -0.009136
      0.77539     11.25689      9.99719        -0.071934     -0.033583     -0.011689
      1.47699     10.00875      9.99244         0.023492     -0.008404     -0.009877
      3.59406     11.25944     10.01740         0.054229     -0.024485     -0.001221
      7.13034     12.51586      9.98662        -0.079534      0.001022      0.006566
      4.91623      1.20020     10.06297         0.102774      0.022310      0.029642
      5.72109     12.49478     10.01239         0.061567      0.034797      0.006312
      7.72514      1.23442     10.01616        -0.034037      0.002604      0.021133
      7.03021      2.47042     10.08815         0.212656      0.150797      0.029764
      5.60282      2.43357     10.11528        -0.222199      0.149804      0.053091
      7.09681      7.61063      9.83588        -0.087587     -0.381565      0.034549
      5.01819      8.79531      9.91579         0.138453     -0.197183     -0.098659
      7.82278      8.82404      9.87512         0.117283      0.143214     -0.004568
      7.12613     10.05527      9.91016         0.069295     -0.053384      0.014325
      5.00439     11.26474      9.99743        -0.050530     -0.046020     -0.005289
      5.70671     10.03031      9.94557        -0.109445      0.004011     -0.021929
      7.83560     11.27975      9.94179         0.031445     -0.032924      0.001510
     11.36001     12.52069      9.97552        -0.098459      0.041229      0.003271
      9.14358      1.25017      9.99858        -0.028143      0.007943      0.002149
      9.84330      0.00124      9.96862         0.084191      0.021932      0.006011
     11.94614      1.25402      9.98998         0.031234      0.002535      0.008371
     11.25250      2.51893      9.99569        -0.030688     -0.040111      0.005550
      9.06043      3.75484     10.05052        -0.432421     -0.158546      0.035877
      9.81938      2.51960     10.01279         0.045990     -0.046031     -0.012606
     11.97527      3.76575      9.99637         0.040759      0.020090      0.003467
     11.26835      5.01631      9.98218         0.008928     -0.016748      0.002552
      9.13654      6.31144      9.93048        -0.168067      0.121731     -0.006985
      9.79626      5.02682      9.99389         0.064992      0.140564     -0.001618
     12.06478      6.23753      9.95760        -0.053527      0.041799     -0.002517
     11.35739      7.49076      9.94128        -0.017538     -0.049656     -0.005280
      9.24106      8.78018      9.90173        -0.109057      0.023408      0.002345
      9.92005      7.51340      9.91568         0.016675     -0.078439      0.005348
     12.06716      8.74278      9.95161         0.068160      0.044594     -0.006139
     11.37069     10.00412      9.95194        -0.028640      0.008062     -0.003348
      9.25129     11.27133      9.94189        -0.075139     -0.062546      0.003536
      9.94984     10.01942      9.92930         0.006654      0.040129     -0.002452
     12.05796     11.26159      9.97378         0.082352     -0.047463     -0.001675
      2.91564      4.83397      9.95405        -0.578949     -0.880664      0.210134
      2.93097      7.57685      9.94789        -0.790067      0.753759     -0.055567
      4.90848      3.63258     10.19849        -0.597619     -0.619751     -0.299674
      7.67016      3.70133     10.13686         0.514083     -0.593077     -0.049991
      7.74459      6.41041      9.89292         0.257496      0.833462     -0.021523
      5.70373      7.57389      9.79535         0.859336      0.668967      0.208594
      4.34200      6.13743      9.69265        -0.552707      0.316031     -0.328740
      6.16300      5.26414     10.56444         0.899326     -0.382589      0.268743
 -----------------------------------------------------------------------------------
    total drift:                                0.005319     -0.000387      0.002148


--------------------------------------------------------------------------------------------------------



  FREE ENERGIE OF THE ION-ELECTRON SYSTEM (eV)
  ---------------------------------------------------
  free  energy   TOTEN  =      -609.95322714 eV

  energy  without entropy=     -609.94947563  energy(sigma->0) =     -609.95135139
 


--------------------------------------------------------------------------------------------------------


    POTLOK:  cpu time    2.2740: real time    2.2832


--------------------------------------------------------------------------------------------------------


 stress matrix after NEB project (eV)
    -41.47517      1.17434      0.47600
      1.17361    -43.64915     -0.64657
      0.47393     -0.64326     -0.25433
  FORCES: max atom, RMS     1.108822    0.387489
  FORCE total and by dimension    2.951026    0.899326
  Stress total and by dimension   60.245683   43.649154
 writing wavefunctions
     LOOP+:  cpu time17946.7170: real time18007.9246
    4ORBIT:  cpu time    0.0000: real time    0.0000
 


 total charge     
 
# of ion       s       p       d       tot
------------------------------------------
    1        0.871   1.794   0.000   2.665
    2        0.866   1.774   0.000   2.640
    3        0.867   1.769   0.000   2.636
    4        0.874   1.790   0.000   2.664
    5        0.873   1.815   0.000   2.687
    6        0.859   1.755   0.000   2.614
    7        0.868   1.767   0.000   2.635
    8        0.864   1.721   0.000   2.586
    9        0.843   1.722   0.000   2.564
   10        0.848   1.691   0.000   2.539
   11        0.862   1.759   0.000   2.622
   12        0.850   1.691   0.000   2.541
   13        0.862   1.754   0.000   2.617
   14        0.871   1.792   0.000   2.664
   15        0.866   1.779   0.000   2.646
   16        0.867   1.763   0.000   2.630
   17        0.869   1.796   0.000   2.665
   18        0.868   1.793   0.000   2.662
   19        0.871   1.800   0.000   2.671
   20        0.871   1.794   0.000   2.664
   21        0.870   1.787   0.000   2.657
   22        0.861   1.749   0.000   2.610
   23        0.863   1.754   0.000   2.617
   24        0.860   1.714   0.000   2.574
   25        0.859   1.741   0.000   2.600
   26        0.871   1.809   0.000   2.681
   27        0.872   1.789   0.000   2.661
   28        0.870   1.791   0.000   2.661
   29        0.870   1.795   0.000   2.664
   30        0.871   1.791   0.000   2.662
   31        0.866   1.766   0.000   2.632
   32        0.867   1.761   0.000   2.628
   33        0.866   1.777   0.000   2.643
   34        0.864   1.760   0.000   2.624
   35        0.860   1.748   0.000   2.608
   36        0.847   1.679   0.000   2.526
   37        0.860   1.751   0.000   2.611
   38        0.859   1.747   0.000   2.606
   39        0.851   1.714   0.000   2.565
   40        0.851   1.705   0.000   2.555
   41        0.844   1.723   0.000   2.567
   42        0.851   1.711   0.000   2.562
   43        0.859   1.750   0.000   2.609
   44        0.867   1.764   0.000   2.631
   45        0.861   1.760   0.000   2.621
   46        0.861   1.753   0.000   2.615
   47        0.864   1.762   0.000   2.626
   48        0.867   1.769   0.000   2.636
   49        0.866   1.774   0.000   2.639
   50        0.866   1.766   0.000   2.632
   51        1.230   2.681   0.000   3.911
   52        1.236   2.666   0.000   3.903
   53        1.234   2.684   0.000   3.917
   54        1.233   2.635   0.000   3.869
   55        1.234   2.695   0.000   3.929
   56        1.218   2.665   0.000   3.883
   57        0.431   0.472   6.332   7.235
   58        0.436   0.553   2.628   3.617
--------------------------------------------------
tot         51.407 105.033   8.960 165.400
 


 magnetization (x)
 
# of ion       s       p       d       tot
------------------------------------------
    1        0.000   0.008   0.000   0.009
    2        0.000   0.002   0.000   0.002
    3       -0.000   0.002   0.000   0.002
    4        0.000   0.004   0.000   0.004
    5        0.001   0.011   0.000   0.012
    6        0.001   0.014   0.000   0.015
    7       -0.000   0.000   0.000   0.000
    8       -0.001   0.005   0.000   0.005
    9        0.001   0.013   0.000   0.014
   10       -0.000   0.003   0.000   0.003
   11        0.001   0.014   0.000   0.016
   12        0.000   0.002   0.000   0.003
   13       -0.001   0.005   0.000   0.004
   14        0.000   0.002   0.000   0.002
   15        0.001   0.011   0.000   0.012
   16       -0.000   0.002   0.000   0.001
   17        0.000   0.003   0.000   0.003
   18        0.000   0.006   0.000   0.006
   19       -0.000  -0.002   0.000  -0.003
   20        0.000   0.008   0.000   0.008
   21       -0.000   0.001   0.000   0.001
   22       -0.001   0.005   0.000   0.004
   23       -0.001   0.016   0.000   0.016
   24       -0.001  -0.001   0.000  -0.002
   25       -0.000   0.018   0.000   0.018
   26        0.000   0.007   0.000   0.007
   27        0.000   0.004   0.000   0.004
   28        0.000   0.009   0.000   0.010
   29       -0.001  -0.005   0.000  -0.006
   30        0.000   0.005   0.000   0.005
   31        0.000   0.009   0.000   0.009
   32        0.000   0.005   0.000   0.005
   33        0.000   0.008   0.000   0.008
   34       -0.000   0.002   0.000   0.002
   35        0.000   0.006   0.000   0.006
   36       -0.000   0.005   0.000   0.004
   37        0.001   0.010   0.000   0.010
   38        0.001   0.012   0.000   0.012
   39       -0.000  -0.000   0.000  -0.000
   40        0.000   0.008   0.000   0.008
   41        0.001   0.011   0.000   0.012
   42       -0.000  -0.003   0.000  -0.004
   43        0.001   0.018   0.000   0.019
   44       -0.000   0.002   0.000   0.002
   45        0.000   0.009   0.000   0.009
   46       -0.000   0.002   0.000   0.002
   47        0.000   0.007   0.000   0.007
   48        0.000   0.004   0.000   0.004
   49       -0.000  -0.001   0.000  -0.001
   50       -0.000   0.003   0.000   0.003
   51       -0.001  -0.009   0.000  -0.010
   52        0.011   0.071   0.000   0.081
   53        0.010   0.067   0.000   0.078
   54        0.005   0.076   0.000   0.080
   55        0.003   0.022   0.000   0.025
   56       -0.001   0.019   0.000   0.018
   57        0.009  -0.015   2.825   2.819
   58       -0.061  -0.045  -1.551  -1.658
--------------------------------------------------
tot         -0.022   0.474   1.274   1.726
 

 total amount of memory used by VASP MPI-rank0   168192. kBytes
=======================================================================

   base      :      30000. kBytes
   nonl-proj :       4264. kBytes
   fftplans  :      11851. kBytes
   grid      :      31266. kBytes
   one-center:         62. kBytes
   HF        :         23. kBytes
   nonlr-proj:      28947. kBytes
   wavefun   :      61779. kBytes
 
  
  
 General timing and accounting informations for this job:
 ========================================================
  
                  Total CPU time used (sec):    17987.012
                            User time (sec):    17938.226
                          System time (sec):       48.786
                         Elapsed time (sec):    18054.915
  
                   Maximum memory used (kb):      398064.
                   Average memory used (kb):           0.
  
                          Minor page faults:      1195472
                          Major page faults:          193
                 Voluntary context switches:       226001
