 vasp.5.4.4.18Apr17-6-g9f103f2a35 (build Feb 25 2019 10:51:38) complex          
  
 executed on             LinuxIFC date 2022.02.08  14:53:42
 running on   32 total cores
 distrk:  each k-point on   32 cores,    1 groups
 distr:  one band on NCORES_PER_BAND=  32 cores,    1 groups


--------------------------------------------------------------------------------------------------------


 INCAR:
 POTCAR:    PAW_PBE C 08Apr2002                   
 POTCAR:    PAW_PBE N 08Apr2002                   
 POTCAR:    PAW_PBE Cu 22Jun2005                  
 POTCAR:    PAW_PBE Fe 06Sep2000                  

 ----------------------------------------------------------------------------- 
|                                                                             |
|           W    W    AA    RRRRR   N    N  II  N    N   GGGG   !!!           |
|           W    W   A  A   R    R  NN   N  II  NN   N  G    G  !!!           |
|           W    W  A    A  R    R  N N  N  II  N N  N  G       !!!           |
|           W WW W  AAAAAA  RRRRR   N  N N  II  N  N N  G  GGG   !            |
|           WW  WW  A    A  R   R   N   NN  II  N   NN  G    G                |
|           W    W  A    A  R    R  N    N  II  N    N   GGGG   !!!           |
|                                                                             |
|      For optimal performance we recommend to set                            |
|        NCORE= 4 - approx SQRT( number of cores)                             |
|      NCORE specifies how many cores store one orbital (NPAR=cpu/NCORE).     |
|      This setting can  greatly improve the performance of VASP for DFT.     |
|      The default,   NCORE=1            might be grossly inefficient         |
|      on modern multi-core architectures or massively parallel machines.     |
|      Do your own testing !!!!                                               |
|      Unfortunately you need to use the default for GW and RPA calculations. |
|      (for HF NCORE is supported but not extensively tested yet)             |
|                                                                             |
 ----------------------------------------------------------------------------- 

 POTCAR:    PAW_PBE C 08Apr2002                   
   VRHFIN =C: s2p2                                                              
   LEXCH  = PE                                                                  
   EATOM  =   147.1560 eV,   10.8157 Ry                                         
                                                                                
   TITEL  = PAW_PBE C 08Apr2002                                                 
   LULTRA =        F    use ultrasoft PP ?                                      
   IUNSCR =        1    unscreen: 0-lin 1-nonlin 2-no                           
   RPACOR =    1.200    partial core radius                                     
   POMASS =   12.011; ZVAL   =    4.000    mass and valenz                      
   RCORE  =    1.500    outmost cutoff radius                                   
   RWIGS  =    1.630; RWIGS  =    0.863    wigner-seitz radius (au A)           
   ENMAX  =  400.000; ENMIN  =  300.000 eV                                      
   ICORE  =        2    local potential                                         
   LCOR   =        T    correct aug charges                                     
   LPAW   =        T    paw PP                                                  
   EAUG   =  644.873                                                            
   DEXC   =    0.000                                                            
   RMAX   =    1.529    core radius for proj-oper                               
   RAUG   =    1.300    factor for augmentation sphere                          
   RDEP   =    1.501    radius for radial grids                                 
   RDEPT  =    1.300    core radius for aug-charge                              
                                                                                
   Atomic configuration                                                         
    4 entries                                                                   
     n  l   j            E        occ.                                          
     1  0  0.50      -273.3789   2.0000                                         
     2  0  0.50       -13.7508   2.0000                                         
     2  1  0.50        -5.2854   2.0000                                         
     3  2  1.50        -5.4423   0.0000                                         
   Description                                                                  
     l       E           TYP  RCUT    TYP  RCUT                                 
     0    -13.7508458     23  1.200                                             
     0     -8.2022199     23  1.200                                             
     1     -5.2854383     23  1.500                                             
     1     34.0145650     23  1.500                                             
     2     -5.4423304      7  1.500                                             
  local pseudopotential read in
  partial core-charges read in
  partial kinetic energy density read in
  atomic valenz-charges read in
  non local Contribution for L=           0  read in
    real space projection operators read in
  non local Contribution for L=           0  read in
    real space projection operators read in
  non local Contribution for L=           1  read in
    real space projection operators read in
  non local Contribution for L=           1  read in
    real space projection operators read in
    PAW grid and wavefunctions read in
 
   number of l-projection  operators is LMAX  =           4
   number of lm-projection operators is LMMAX =           8
 
 POTCAR:    PAW_PBE N 08Apr2002                   
   VRHFIN =N: s2p3                                                              
   LEXCH  = PE                                                                  
   EATOM  =   264.5486 eV,   19.4438 Ry                                         
                                                                                
   TITEL  = PAW_PBE N 08Apr2002                                                 
   LULTRA =        F    use ultrasoft PP ?                                      
   IUNSCR =        1    unscreen: 0-lin 1-nonlin 2-no                           
   RPACOR =    1.200    partial core radius                                     
   POMASS =   14.001; ZVAL   =    5.000    mass and valenz                      
   RCORE  =    1.500    outmost cutoff radius                                   
   RWIGS  =    1.400; RWIGS  =    0.741    wigner-seitz radius (au A)           
   ENMAX  =  400.000; ENMIN  =  300.000 eV                                      
   ICORE  =        2    local potential                                         
   LCOR   =        T    correct aug charges                                     
   LPAW   =        T    paw PP                                                  
   EAUG   =  627.112                                                            
   DEXC   =    0.000                                                            
   RMAX   =    1.529    core radius for proj-oper                               
   RAUG   =    1.300    factor for augmentation sphere                          
   RDEP   =    1.514    radius for radial grids                                 
   RDEPT  =    1.338    core radius for aug-charge                              
                                                                                
   Atomic configuration                                                         
    4 entries                                                                   
     n  l   j            E        occ.                                          
     1  0  0.50      -384.7179   2.0000                                         
     2  0  0.50       -18.5828   2.0000                                         
     2  1  0.50        -7.0898   3.0000                                         
     3  2  1.50        -6.8029   0.0000                                         
   Description                                                                  
     l       E           TYP  RCUT    TYP  RCUT                                 
     0    -18.5828119     23  1.200                                             
     0    -13.5018863     23  1.200                                             
     1     -7.0897853     23  1.500                                             
     1      9.5240782     23  1.500                                             
     2     -6.8029130      7  1.500                                             
  local pseudopotential read in
  partial core-charges read in
  partial kinetic energy density read in
  atomic valenz-charges read in
  non local Contribution for L=           0  read in
    real space projection operators read in
  non local Contribution for L=           0  read in
    real space projection operators read in
  non local Contribution for L=           1  read in
    real space projection operators read in
  non local Contribution for L=           1  read in
    real space projection operators read in
    PAW grid and wavefunctions read in
 
   number of l-projection  operators is LMAX  =           4
   number of lm-projection operators is LMMAX =           8
 
 POTCAR:    PAW_PBE Cu 22Jun2005                  
   VRHFIN =Cu: d10 p1                                                           
   LEXCH  = PE                                                                  
   EATOM  =  1390.9808 eV,  102.2342 Ry                                         
                                                                                
   TITEL  = PAW_PBE Cu 22Jun2005                                                
   LULTRA =        F    use ultrasoft PP ?                                      
   IUNSCR =        1    unscreen: 0-lin 1-nonlin 2-no                           
   RPACOR =    2.000    partial core radius                                     
   POMASS =   63.546; ZVAL   =   11.000    mass and valenz                      
   RCORE  =    2.300    outmost cutoff radius                                   
   RWIGS  =    2.200; RWIGS  =    1.164    wigner-seitz radius (au A)           
   ENMAX  =  295.446; ENMIN  =  221.585 eV                                      
   ICORE  =        3    local potential                                         
   LCOR   =        T    correct aug charges                                     
   LPAW   =        T    paw PP                                                  
   EAUG   =  586.980                                                            
   DEXC   =    0.000                                                            
   RMAX   =    2.344    core radius for proj-oper                               
   RAUG   =    1.300    factor for augmentation sphere                          
   RDEP   =    2.302    radius for radial grids                                 
   RDEPT  =    1.771    core radius for aug-charge                              
                                                                                
   Atomic configuration                                                         
    9 entries                                                                   
     n  l   j            E        occ.                                          
     1  0  0.50     -8850.2468   2.0000                                         
     2  0  0.50     -1062.3498   2.0000                                         
     2  1  1.50      -916.8226   6.0000                                         
     3  0  0.50      -114.6929   2.0000                                         
     3  1  1.50       -72.1325   6.0000                                         
     3  2  2.50        -5.0394  10.0000                                         
     4  0  0.50        -4.6097   1.0000                                         
     4  1  0.50        -4.0817   0.0000                                         
     4  3  2.50        -1.3606   0.0000                                         
   Description                                                                  
     l       E           TYP  RCUT    TYP  RCUT                                 
     2     -5.0393973     23  2.200                                             
     2     10.8846608     23  2.200                                             
     0     -4.6097109     23  2.200                                             
     0      8.2520465     23  2.200                                             
     1     -2.7211652     23  2.200                                             
     1     21.7055443     23  2.200                                             
     3      2.7211652     23  2.300                                             
  local pseudopotential read in
  partial core-charges read in
  partial kinetic energy density read in
  atomic valenz-charges read in
  non local Contribution for L=           2  read in
    real space projection operators read in
  non local Contribution for L=           2  read in
    real space projection operators read in
  non local Contribution for L=           0  read in
    real space projection operators read in
  non local Contribution for L=           0  read in
    real space projection operators read in
  non local Contribution for L=           1  read in
    real space projection operators read in
  non local Contribution for L=           1  read in
    real space projection operators read in
    PAW grid and wavefunctions read in
 
   number of l-projection  operators is LMAX  =           6
   number of lm-projection operators is LMMAX =          18
 
 POTCAR:    PAW_PBE Fe 06Sep2000                  
   VRHFIN =Fe:  d7 s1                                                           
   LEXCH  = PE                                                                  
   EATOM  =   594.3153 eV,   43.6809 Ry                                         
                                                                                
   TITEL  = PAW_PBE Fe 06Sep2000                                                
   LULTRA =        F    use ultrasoft PP ?                                      
   IUNSCR =        1    unscreen: 0-lin 1-nonlin 2-no                           
   RPACOR =    2.000    partial core radius                                     
   POMASS =   55.847; ZVAL   =    8.000    mass and valenz                      
   RCORE  =    2.300    outmost cutoff radius                                   
   RWIGS  =    2.460; RWIGS  =    1.302    wigner-seitz radius (au A)           
   ENMAX  =  267.882; ENMIN  =  200.911 eV                                      
   RCLOC  =    1.701    cutoff for local pot                                    
   LCOR   =        T    correct aug charges                                     
   LPAW   =        T    paw PP                                                  
   EAUG   =  511.368                                                            
   DEXC   =    0.000                                                            
   RMAX   =    2.356    core radius for proj-oper                               
   RAUG   =    1.300    factor for augmentation sphere                          
   RDEP   =    2.442    radius for radial grids                                 
   RDEPT  =    1.890    core radius for aug-charge                              
                                                                                
   Atomic configuration                                                         
    9 entries                                                                   
     n  l   j            E        occ.                                          
     1  0  0.50     -6993.8440   2.0000                                         
     2  0  0.50      -814.6047   2.0000                                         
     2  1  1.50      -693.3689   6.0000                                         
     3  0  0.50       -89.4732   2.0000                                         
     3  1  1.50       -55.6373   6.0000                                         
     3  2  2.50        -3.8151   7.0000                                         
     4  0  0.50        -4.2551   1.0000                                         
     4  1  1.50        -3.4015   0.0000                                         
     4  3  2.50        -1.3606   0.0000                                         
   Description                                                                  
     l       E           TYP  RCUT    TYP  RCUT                                 
     2     -3.8151135     23  2.300                                             
     2     -5.1756961     23  2.300                                             
     0     -4.2550963     23  2.300                                             
     0      7.2035603     23  2.300                                             
     1     -2.7211652     23  2.300                                             
     1     18.4316424     23  2.300                                             
  local pseudopotential read in
  partial core-charges read in
  partial kinetic energy density read in
  atomic valenz-charges read in
  non local Contribution for L=           2  read in
    real space projection operators read in
  non local Contribution for L=           2  read in
    real space projection operators read in
  non local Contribution for L=           0  read in
    real space projection operators read in
  non local Contribution for L=           0  read in
    real space projection operators read in
  non local Contribution for L=           1  read in
    real space projection operators read in
  non local Contribution for L=           1  read in
    real space projection operators read in
    PAW grid and wavefunctions read in
 
   number of l-projection  operators is LMAX  =           6
   number of lm-projection operators is LMMAX =          18
 

 ----------------------------------------------------------------------------- 
|                                                                             |
|  ADVICE TO THIS USER RUNNING 'VASP/VAMP'   (HEAR YOUR MASTER'S VOICE ...):  |
|                                                                             |
|      You have a (more or less) 'large supercell' and for larger cells       |
|      it might be more efficient to use real space projection opertators     |
|      So try LREAL= Auto  in the INCAR   file.                               |
|      Mind:          For very  accurate calculation you might also keep the  |
|      reciprocal projection scheme          (i.e. LREAL=.FALSE.)             |
|                                                                             |
 ----------------------------------------------------------------------------- 

  PAW_PBE C 08Apr2002                   :
 energy of atom  1       EATOM= -147.1560
 kinetic energy error for atom=    0.0076 (will be added to EATOM!!)
  PAW_PBE N 08Apr2002                   :
 energy of atom  2       EATOM= -264.5486
 kinetic energy error for atom=    0.0138 (will be added to EATOM!!)
  PAW_PBE Cu 22Jun2005                  :
 energy of atom  3       EATOM=-1390.9808
 kinetic energy error for atom=    0.0043 (will be added to EATOM!!)
  PAW_PBE Fe 06Sep2000                  :
 energy of atom  4       EATOM= -594.3153
 kinetic energy error for atom=    0.0026 (will be added to EATOM!!)
 
 
 POSCAR:  C  N Cu Fe                             
  positions in cartesian coordinates
  No initial velocities read in
 exchange correlation table for  LEXCH =        8
   RHO(1)=    0.500       N(1)  =     2000
   RHO(2)=  100.500       N(2)  =     4000

 VTST: version 3.2, (02/03/18)

 CHAIN: initializing optimizer
 
 OPT: Using VASP Conjugate-Gradient optimizer
 CHAIN: Read ICHAIN            0
 
 POSCAR:  C  N Cu Fe                             
  positions in cartesian coordinates
  No initial velocities read in
 


--------------------------------------------------------------------------------------------------------


 ion  position               nearest neighbor table
   1  0.220  0.999  0.500-   3 1.42   4 1.43  20 1.43
   2  0.055  0.100  0.500-  34 1.42   7 1.44   3 1.44
   3  0.109  1.000  0.500-   1 1.42  18 1.44   2 1.44
   4  0.276  0.099  0.500-  22 1.42   5 1.42   1 1.43
   5  0.222  0.199  0.500-   4 1.42   7 1.43   8 1.44
   6  0.056  0.300  0.500-  38 1.43   7 1.43  11 1.44
   7  0.111  0.200  0.500-   5 1.43   6 1.43   2 1.44
   8  0.282  0.297  0.500-  55 1.37   5 1.44   9 1.45
   9  0.225  0.398  0.500-  11 1.43  12 1.45   8 1.45
  10  0.056  0.499  0.500-  42 1.43  15 1.44  11 1.44
  11  0.113  0.399  0.500-   9 1.43   6 1.44  10 1.44
  12  0.280  0.500  0.500-  56 1.33   9 1.45  13 1.45
  13  0.224  0.601  0.500-  15 1.42  16 1.45  12 1.45
  14  0.055  0.700  0.500-  46 1.42  19 1.44  15 1.45
  15  0.112  0.600  0.500-  13 1.42  10 1.44  14 1.45
  16  0.282  0.700  0.500-  53 1.42  13 1.45  17 1.45
  17  0.223  0.800  0.500-  20 1.43  19 1.43  16 1.45
  18  0.055  0.899  0.500-  50 1.43   3 1.44  19 1.44
  19  0.111  0.800  0.500-  17 1.43  14 1.44  18 1.44
  20  0.277  0.900  0.500-  28 1.42  17 1.43   1 1.43
  21  0.555  0.001  0.500-  23 1.42  24 1.42  30 1.43
  22  0.387  0.098  0.500-  26 1.41   4 1.42  23 1.42
  23  0.444  0.000  0.500-  21 1.42  22 1.42  28 1.42
  24  0.610  0.100  0.500-  32 1.42  21 1.42  25 1.43
  25  0.554  0.198  0.500-  51 1.42  24 1.43  26 1.44
  26  0.441  0.196  0.500-  55 1.37  22 1.41  25 1.44
  27  0.556  0.804  0.500-  30 1.41  54 1.43  29 1.43
  28  0.388  0.902  0.500-  29 1.41  20 1.42  23 1.42
  29  0.444  0.805  0.500-  28 1.41  53 1.41  27 1.43
  30  0.611  0.901  0.500-  27 1.41  48 1.42  21 1.43
  31  0.888  0.000  0.500-  33 1.42  50 1.44  34 1.44
  32  0.722  0.100  0.500-  24 1.42  37 1.43  33 1.44
  33  0.778  0.000  0.500-  31 1.42  48 1.43  32 1.44
  34  0.943  0.100  0.500-   2 1.42  35 1.44  31 1.44
  35  0.888  0.200  0.500-  37 1.43  34 1.44  38 1.44
  36  0.718  0.300  0.500-  51 1.41  37 1.45  41 1.45
  37  0.776  0.200  0.500-  32 1.43  35 1.43  36 1.45
  38  0.944  0.300  0.500-   6 1.43  35 1.44  39 1.44
  39  0.887  0.400  0.500-  41 1.42  38 1.44  42 1.44
  40  0.720  0.500  0.500-  52 1.39  41 1.44  45 1.45
  41  0.776  0.400  0.500-  39 1.42  40 1.44  36 1.45
  42  0.944  0.500  0.500-  10 1.43  43 1.44  39 1.44
  43  0.888  0.600  0.500-  45 1.42  46 1.44  42 1.44
  44  0.717  0.700  0.500-  54 1.43  45 1.45  49 1.45
  45  0.776  0.601  0.500-  43 1.42  40 1.45  44 1.45
  46  0.944  0.700  0.500-  14 1.42  47 1.44  43 1.44
  47  0.887  0.800  0.500-  49 1.43  50 1.44  46 1.44
  48  0.722  0.901  0.500-  30 1.42  49 1.43  33 1.43
  49  0.776  0.800  0.500-  48 1.43  47 1.43  44 1.45
  50  0.943  0.899  0.500-  18 1.43  47 1.44  31 1.44
  51  0.607  0.298  0.500-  36 1.41  25 1.42  57 1.93
  52  0.612  0.507  0.500-  40 1.39  58 1.77  57 1.99
  53  0.394  0.704  0.500-  29 1.41  16 1.42  58 1.97
  54  0.605  0.701  0.500-  27 1.43  44 1.43  58 2.01
  55  0.389  0.292  0.500-  26 1.37   8 1.37  57 1.93
  56  0.384  0.506  0.500-  12 1.33  58 1.74  57 1.92
  57  0.495  0.402  0.500-  56 1.92  55 1.93  51 1.93  52 1.99  58 2.29
  58  0.496  0.585  0.500-  56 1.74  52 1.77  53 1.97  54 2.01  57 2.29
 
  LATTYP: Found a triclinic cell.
 ALAT       =    17.8442704266
 B/A-ratio  =     0.6996643573
 C/A-ratio  =     1.1161397762
 COS(alpha) =     0.0002042035
 COS(beta)  =     0.0003178203
 COS(gamma) =     0.6981248305
  
  Lattice vectors:
  
 A1 = ( -12.7492542039,  12.4849711375,   0.0000000000)
 A2 = (   0.0268457961,  12.4849711375,   0.0000000000)
 A3 = (  -0.0048665678,   0.0040775340, -19.9166989880)


Analysis of symmetry for initial positions (statically):
=====================================================================
 Subroutine PRICEL returns:
 Original cell was already a primitive cell.
 

 Routine SETGRP: Setting up the symmetry group for a 
 triclinic supercell.


 Subroutine GETGRP returns: Found  1 space group operations
 (whereof  1 operations were pure point group operations)
 out of a pool of  2 trial point group operations.


The static configuration has the point symmetry C_1 .


Analysis of symmetry for dynamics (positions and initial velocities):
=====================================================================
 Subroutine PRICEL returns:
 Original cell was already a primitive cell.
 

 Routine SETGRP: Setting up the symmetry group for a 
 triclinic supercell.


 Subroutine GETGRP returns: Found  1 space group operations
 (whereof  1 operations were pure point group operations)
 out of a pool of  2 trial point group operations.


The dynamic configuration has the point symmetry C_1 .


Analysis of structural, dynamic, and magnetic symmetry:
=====================================================================
 Subroutine PRICEL returns:
 Original cell was already a primitive cell.
 

 Routine SETGRP: Setting up the symmetry group for a 
 triclinic supercell.


 Subroutine GETGRP returns: Found  1 space group operations
 (whereof  1 operations were pure point group operations)
 out of a pool of  2 trial point group operations.


The magnetic configuration has the point symmetry C_1 .


 Subroutine INISYM returns: Found  1 space group operations
 (whereof  1 operations are pure point group operations),
 and found     1 'primitive' translations

 
 
 KPOINTS: KPOINTS created by Atomic Simulation Env

Automatic generation of k-mesh.
Space group operators:
 irot       det(A)        alpha          n_x          n_y          n_z        tau_x        tau_y        tau_z
    1     1.000000     0.000001     1.000000     0.000000     0.000000     0.000000     0.000000     0.000000
 
 Subroutine IBZKPT returns following result:
 ===========================================
 
 Found      1 irreducible k-points:
 
 Following reciprocal coordinates:
            Coordinates               Weight
  0.000000  0.000000  0.000000      1.000000
 
 Following cartesian coordinates:
            Coordinates               Weight
  0.000000  0.000000  0.000000      1.000000
 
 
 Subroutine IBZKPT_HF returns following result:
 ==============================================
 
 Found      1 k-points in 1st BZ
 the following      1 k-points will be used (e.g. in the exchange kernel)
 Following reciprocal coordinates:   # in IRBZ
  0.000000  0.000000  0.000000    1.00000000   1 t-inv F


--------------------------------------------------------------------------------------------------------




 Dimension of arrays:
   k-points           NKPTS =      1   k-points in BZ     NKDIM =      1   number of bands    NBANDS=    156
   number of dos      NEDOS =    301   number of ions     NIONS =     58
   non local maximal  LDIM  =      6   non local SUM 2l+1 LMDIM =     18
   total plane-waves  NPLWV = ******
   max r-space proj   IRMAX =      1   max aug-charges    IRDMAX=  15698
   dimension x,y,z NGX =    96 NGY =   96 NGZ =  150
   dimension x,y,z NGXF=   192 NGYF=  192 NGZF=  300
   support grid    NGXF=   192 NGYF=  192 NGZF=  300
   ions per type =              54   2   1   1
   NGX,Y,Z   is equivalent  to a cutoff of  12.49, 12.78, 12.52 a.u.
   NGXF,Y,Z  is equivalent  to a cutoff of  24.98, 25.57, 25.04 a.u.

 SYSTEM =  unknown system                          
 POSCAR =   C  N Cu Fe                             

 Startparameter for this run:
   NWRITE =      2    write-flag & timer
   PREC   = accura    normal or accurate (medium, high low for compatibility)
   ISTART =      1    job   : 0-new  1-cont  2-samecut
   ICHARG =      0    charge: 1-file 2-atom 10-const
   ISPIN  =      2    spin polarized calculation?
   LNONCOLLINEAR =      F non collinear calculations
   LSORBIT =      F    spin-orbit coupling
   INIWAV =      1    electr: 0-lowe 1-rand  2-diag
   LASPH  =      T    aspherical Exc in radial PAW
   METAGGA=      F    non-selfconsistent MetaGGA calc.

 Electronic Relaxation 1
   ENCUT  =  500.0 eV  36.75 Ry    6.06 a.u.  23.29 22.76 36.31*2*pi/ulx,y,z
   ENINI  =  500.0     initial cutoff
   ENAUG  =  644.9 eV  augmentation charge cutoff
   NELM   =    250;   NELMIN=  2; NELMDL=  0     # of ELM steps 
   EDIFF  = 0.1E-03   stopping-criterion for ELM
   LREAL  =      F    real-space projection
   NLSPLINE    = F    spline interpolate recip. space projectors
   LCOMPAT=      F    compatible to vasp.4.4
   GGA_COMPAT  = T    GGA compatible to vasp.4.4-vasp.4.6
   LMAXPAW     = -100 max onsite density
   LMAXMIX     =    2 max onsite mixed and CHGCAR
   VOSKOWN=      0    Vosko Wilk Nusair interpolation
   ROPT   =    0.00000   0.00000   0.00000   0.00000
 Ionic relaxation
   EDIFFG = -.3E-01   stopping-criterion for IOM
   NSW    =      0    number of steps for IOM
   NBLOCK =      1;   KBLOCK =      1    inner block; outer block 
   IBRION =     -1    ionic relax: 0-MD 1-quasi-New 2-CG
   NFREE  =      1    steps in history (QN), initial steepest desc. (CG)
   ISIF   =      2    stress and relaxation
   IWAVPR =     10    prediction:  0-non 1-charg 2-wave 3-comb
   ISYM   =      3    0-nonsym 1-usesym 2-fastsym
   LCORR  =      T    Harris-Foulkes like correction to forces

   POTIM  = 0.5000    time-step for ionic-motion
   TEIN   =    0.0    initial temperature
   TEBEG  =    0.0;   TEEND  =   0.0 temperature during run
   SMASS  =  -3.00    Nose mass-parameter (am)
   estimated Nose-frequenzy (Omega)   =  0.10E-29 period in steps =****** mass=  -0.373E-26a.u.
   SCALEE = 1.0000    scale energy and forces
   NPACO  =    256;   APACO  = 16.0  distance and # of slots for P.C.
   PSTRESS=    0.0 pullay stress

  Mass of Ions in am
   POMASS =  12.01 14.00 63.55 55.85
  Ionic Valenz
   ZVAL   =   4.00  5.00 11.00  8.00
  Atomic Wigner-Seitz radii
   RWIGS  =  -1.00 -1.00 -1.00 -1.00
  virtual crystal weights 
   VCA    =   1.00  1.00  1.00  1.00
   NELECT =     245.0000    total number of electrons
   NUPDOWN=      -1.0000    fix difference up-down

 DOS related values:
   EMIN   =  10.00;   EMAX   =-10.00  energy-range for DOS
   EFERMI =   0.00
   ISMEAR =     0;   SIGMA  =   0.10  broadening in eV -4-tet -1-fermi 0-gaus

 Electronic relaxation 2 (details)
   IALGO  =     53    algorithm
   LDIAG  =      T    sub-space diagonalisation (order eigenvalues)
   LSUBROT=      F    optimize rotation matrix (better conditioning)
   TURBO    =      0    0=normal 1=particle mesh
   IRESTART =      0    0=no restart 2=restart with 2 vectors
   NREBOOT  =      0    no. of reboots
   NMIN     =      0    reboot dimension
   EREF     =   0.00    reference energy to select bands
   IMIX   =      4    mixing-type and parameters
     AMIX     =   0.40;   BMIX     =  1.00
     AMIX_MAG =   1.60;   BMIX_MAG =  1.00
     AMIN     =   0.10
     WC   =   100.;   INIMIX=   1;  MIXPRE=   1;  MAXMIX= -45

 Intra band minimization:
   WEIMIN = 0.0000     energy-eigenvalue tresh-hold
   EBREAK =  0.16E-06  absolut break condition
   DEPER  =   0.30     relativ break condition  

   TIME   =   0.20     timestep for ELM

  volume/ion in A,a.u.               =      54.77       369.63
  Fermi-wavevector in a.u.,A,eV,Ry     =   0.696834  1.316825  6.606678  0.485577
  Thomas-Fermi vector in A             =   1.779994
 
 Write flags
   LWAVE        =      T    write WAVECAR
   LDOWNSAMPLE  =      F    k-point downsampling of WAVECAR
   LCHARG       =      T    write CHGCAR
   LVTOT        =      F    write LOCPOT, total local potential
   LVHAR        =      F    write LOCPOT, Hartree potential only
   LELF         =      F    write electronic localiz. function (ELF)
   LORBIT       =     11    0 simple, 1 ext, 2 COOP (PROOUT), +10 PAW based schemes


 Dipole corrections
   LMONO  =      F    monopole corrections only (constant potential shift)
   LDIPOL =      T    correct potential (dipole corrections)
   IDIPOL =      3    1-x, 2-y, 3-z, 4-all directions 
   EPSILON=  1.0000000 bulk dielectric constant

 Exchange correlation treatment:
   GGA     =    PE    GGA type
   LEXCH   =     8    internal setting for exchange type
   VOSKOWN=      0    Vosko Wilk Nusair interpolation
   EXXOEP  =     0    0=HF, 1=EXX-LHF (local Hartree Fock) 2=EXX OEP
   LHFCALC =     T    Hartree Fock is set to
   LSYMGRAD=     F    symmetrize gradient (conserves proper symmetry)
   PRECFOCK=normal    Normal, Fast or Accurate (Low or Medium for compatibility)
   LRHFCALC=     F    long range Hartree Fock
   LRSCOR  =     F    long range correlation only (use DFT for short range part)
   LTHOMAS =     F    Thomas Fermi screening in HF
   LMODELHF=     F    short range full HF, long range fraction AEXX
   ENCUT4O =  -1.0   cutoff for four orbital integrals eV
   LMAXFOCK=     4    L truncation for augmentation on plane wave grid
   LMAXFOCKAE=  -1    L truncation for all-electron charge restoration on plane wave grid
   NMAXFOCKAE=   1    number of basis functions for all-electron charge restoration
   LFOCKAEDFT=     F  apply the AE augmentation even for DFT
   NKREDX  =     1    reduce k-point grid by
   NKREDY  =     1    reduce k-point grid by
   NKREDZ  =     1    reduce k-point grid by
   SHIFTRED=     F    shift reduced grid of Gamma
   HFKIDENT=     F    idential grid for each k-point
   ODDONLY =     F    use only odd q-grid points
   EVENONLY=     F    use only even q-grid points
   HFALPHA =   -1.0000 decay constant for conv. correction
   MCALPHA =    0.0000 extent of test-charge in conv. correction in multipole expansion
   AEXX    =    0.2500 exact exchange contribution
   HFSCREEN=    0.2000 screening length (either q_TF or 0.3 A-1)
   HFSCREENC=   0.2000 screening length for correlation (either q_TF or 0.3 A-1)
   HFRCUT  =    0.0000 spherical cutoff for potential kernel
   ALDAX   =    0.7500 LDA exchange part
   AGGAX   =    0.7500 GGA exchange part
   ALDAC   =    1.0000 LDA correlation
   AGGAC   =    1.0000 GGA correlation
   ENCUTFOCK=  -1.0 apply spherical cutoff to Coloumb kernel
   NBANDSGWLOW=     1    first orbital included in HF term
   NBLOCK_FOCK=    64    blocking factor in FOCK_ACC
 Linear response parameters
   LEPSILON=     F    determine dielectric tensor
   LRPA    =     F    only Hartree local field effects (RPA)
   LNABLA  =     F    use nabla operator in PAW spheres
   LVEL    =     F    velocity operator in full k-point grid
   LINTERFAST=   F  fast interpolation
   KINTER  =     0    interpolate to denser k-point grid
   CSHIFT  =0.1000    complex shift for real part using Kramers Kronig
   OMEGAMAX=  -1.0    maximum frequency
   DEG_THRESHOLD= 0.2000000E-02 threshold for treating states as degnerate
   RTIME   =   -0.100 relaxation time in fs
  (WPLASMAI=    0.000 imaginary part of plasma frequency in eV, 0.658/RTIME)
   DFIELD  = 0.0000000 0.0000000 0.0000000 field for delta impulse in time
 
 Orbital magnetization related:
   ORBITALMAG=     F  switch on orbital magnetization
   LCHIMAG   =     F  perturbation theory with respect to B field
   DQ        =  0.001000  dq finite difference perturbation B field
   LLRAUG    =     F  two centre corrections for induced B field



--------------------------------------------------------------------------------------------------------


 Static calculation
 charge density and potential will be updated during run
 spin polarized calculation
 Conjugate gradient for all bands (Freysoldt, et al. PRB 79, 241103 (2009))
 perform sub-space diagonalisation
    before iterative eigenvector-optimisation
 modified Broyden-mixing scheme, WC =      100.0
 initial mixing is a Kerker type mixing with AMIX =  0.4000 and BMIX =      1.0000
 Hartree-type preconditioning will be used
 using additional bands           33
 reciprocal scheme for non local part
 use partial core corrections
 no Harris-corrections to forces 
 use gradient corrections 
 use of overlap-Matrix (Vanderbilt PP)
 Gauss-broadening in eV      SIGMA  =   0.10


--------------------------------------------------------------------------------------------------------


  energy-cutoff  :      500.00
  volume of cell :     3176.90
      direct lattice vectors                 reciprocal lattice vectors
    12.776100000  0.000000000  0.000000000     0.078271147 -0.000168302 -0.000019160
     0.026845796 12.484971137  0.000000000     0.000000000  0.080096301  0.000016398
     0.004866568 -0.004077534 19.916698988     0.000000000  0.000000000  0.050209124

  length of vectors
    12.776100000 12.485000000 19.916700000     0.078271330  0.080096302  0.050209124


 
 old parameters found on file WAVECAR:
  energy-cutoff  :      500.00
  volume of cell :     3176.90
      direct lattice vectors                 reciprocal lattice vectors
    12.776100000  0.000000000  0.000000000     0.078271147 -0.000168302 -0.000019160
     0.026845796 12.484971137  0.000000000     0.000000000  0.080096301  0.000016398
     0.004866568 -0.004077534 19.916698988     0.000000000  0.000000000  0.050209124

  length of vectors

 
 k-points in units of 2pi/SCALE and weight: KPOINTS created by Atomic Simulation Env
   0.00000000  0.00000000  0.00000000       1.000
 
 k-points in reciprocal lattice and weights: KPOINTS created by Atomic Simulation Env
   0.00000000  0.00000000  0.00000000       1.000
 
 position of ions in fractional coordinates (direct lattice) 
   0.22029301  0.99924674  0.50002113
   0.05476725  0.10027800  0.50001964
   0.10945609  0.99962806  0.50002003
   0.27582103  0.09862329  0.49998955
   0.22243087  0.19892573  0.49996034
   0.05552701  0.30003043  0.49999948
   0.11060803  0.20001679  0.49999963
   0.28165266  0.29738812  0.49987984
   0.22544613  0.39834918  0.49989044
   0.05635376  0.49946110  0.49999926
   0.11319797  0.39933968  0.49996999
   0.28044250  0.49972756  0.49983901
   0.22383817  0.60085569  0.49994091
   0.05544852  0.69973694  0.50002045
   0.11248393  0.59964691  0.49999897
   0.28218797  0.70012826  0.49997880
   0.22328021  0.79964739  0.50002079
   0.05485505  0.89917205  0.50002046
   0.11128629  0.79950110  0.50002016
   0.27654226  0.90002706  0.50003899
   0.55486757  0.00055647  0.50003141
   0.38699736  0.09802085  0.49998056
   0.44399575  0.00016896  0.50003800
   0.61015726  0.09953916  0.49997854
   0.55371978  0.19839591  0.49988081
   0.44120413  0.19598942  0.49988917
   0.55566502  0.80366546  0.50002017
   0.38789724  0.90177698  0.50005100
   0.44396126  0.80453312  0.50003005
   0.61109015  0.90149817  0.50004850
   0.88844448  0.00002217  0.50002015
   0.72152957  0.10034840  0.49998976
   0.77755958  0.00015875  0.50002030
   0.94331735  0.10046545  0.50001980
   0.88773414  0.20048607  0.49999969
   0.71755831  0.30042326  0.49987959
   0.77558570  0.20042673  0.49995994
   0.94383802  0.30011765  0.49999924
   0.88725657  0.40006603  0.49997056
   0.72016841  0.50012094  0.49986202
   0.77590815  0.39997758  0.49989991
   0.94415324  0.49982136  0.49999842
   0.88752056  0.59996133  0.49999093
   0.71707402  0.70027254  0.49996132
   0.77602015  0.60094660  0.49993869
   0.94396853  0.69988447  0.50001923
   0.88747899  0.79957386  0.50002051
   0.72227357  0.90055969  0.50003105
   0.77551135  0.79975576  0.50001839
   0.94326044  0.89930920  0.50002067
   0.60720413  0.29782643  0.49980183
   0.61194774  0.50737435  0.49976129
   0.39354714  0.70385292  0.49997095
   0.60531756  0.70119927  0.49993834
   0.38905059  0.29214288  0.49981138
   0.38421480  0.50624872  0.49969065
   0.49521989  0.40185770  0.49970160
   0.49623275  0.58545532  0.49964772
 
 position of ions in cartesian coordinates  (Angst):
   2.84374447 12.47352782  9.95877031
   0.70483728  1.24992911  9.95874067
   1.42769115 12.47828869  9.95874837
   3.52899796  1.22927015  9.95814130
   2.84957247  2.48154345  9.95755951
   0.71990652  3.74383255  9.95833923
   1.42094212  2.49516507  9.95834222
   3.60883892  3.71084380  9.95595636
   2.89344904  4.97133966  9.95616749
   0.73582294  6.23371864  9.95833467
   1.45938230  4.98370569  9.95775175
   3.59880951  6.23704605  9.95514316
   2.87834234  7.49962736  9.95717254
   0.72963420  8.73415669  9.95875677
   1.45563727  7.48453565  9.95832904
   3.62649044  8.73904242  9.95792716
   2.87655086  9.98153578  9.95876347
   0.72740594 11.22409822  9.95875693
   1.44570143  9.97970929  9.95875106
   3.55972695 11.23477297  9.95912603
   7.09149188  0.00490868  9.95897507
   4.94938162  1.22174884  9.95796228
   5.67497214  0.00007052  9.95910623
   7.80053560  1.24070481  9.95792215
   7.08213807  2.47492896  9.95597561
   5.64456236  2.44488395  9.95614220
   7.12324030 10.03170119  9.95875125
   4.98245637 11.25662062  9.95936520
   5.69612517 10.04253384  9.95894807
   7.83398385 11.25313969  9.95931543
  11.35328945 -0.00176210  9.95875078
   9.22346114  1.25080817  9.95814558
   9.93661659 -0.00005691  9.95875372
  12.05704728  1.25226937  9.95874392
  11.34959565  2.50102401  9.95834340
   9.17809456  3.74873743  9.95595130
   9.91677413  2.50028335  9.95755155
  12.06905915  3.74492145  9.95833445
  11.34885194  4.99277419  9.95776318
   9.21680236  6.24195736  9.95560142
   9.92625066  4.99167018  9.95635609
  12.07844756  6.23821648  9.95831795
  11.35759110  7.48846110  9.95816876
   9.18264183  8.74084384  9.95757904
   9.93307695  7.50076242  9.95712836
  12.08145870  8.73599853  9.95873255
  11.36241895  9.98061766  9.95875792
   9.25444901 11.24142286  9.95896790
   9.93191407  9.98288879  9.95871576
  12.07776578 11.22581052  9.95876123
   7.76812843  3.71631640  9.95440255
   7.83435847  6.33251627  9.95359528
   5.04932627  8.78554477  9.95777091
   7.75485489  8.75241414  9.95712151
   4.98082441  3.64535737  9.95459286
   4.92478911  6.31846316  9.95218820
   6.34019891  5.01514429  9.95240631
   6.35806787  7.30735547  9.95133323
 


--------------------------------------------------------------------------------------------------------


 k-point  1 :   0.0000 0.0000 0.0000  plane waves:   80655

 maximum and minimum number of plane-waves per node :      2525     2511

 maximum number of plane-waves:     80655
 maximum index in each direction: 
   IXMAX=   23   IYMAX=   22   IZMAX=   36
   IXMIN=  -23   IYMIN=  -22   IZMIN=  -36


 parallel 3D FFT for wavefunctions:
    minimum data exchange during FFTs selected (reduces bandwidth)
 parallel 3D FFT for charge:
    minimum data exchange during FFTs selected (reduces bandwidth)


 FFT grid for exact exchange (Hartree Fock) 
  NGX = 70; NGY = 70; NGZ =112

 
 Radii for the augmentation spheres in the non-local exchange
 for species   1 augmentation radius   0.874 (default was   0.699)
       energy cutoff for augmentation   2000.0
 for species   2 augmentation radius   0.886 (default was   0.709)
       energy cutoff for augmentation   2000.0
 for species   3 augmentation radius   1.179 (default was   0.943)
       energy cutoff for augmentation   2000.0
 for species   4 augmentation radius   1.263 (default was   1.010)
       energy cutoff for augmentation   2000.0

 real space projection operators:
  total allocation   :       2384.55 KBytes
  max/ min on nodes  :        127.12         38.81

 Maximum index for augmentation-charges in exchange          137
  SETUP_FOCK is finished

 total amount of memory used by VASP MPI-rank0   124589. kBytes
=======================================================================

   base      :      30000. kBytes
   nonl-proj :       3779. kBytes
   fftplans  :      14248. kBytes
   grid      :      36827. kBytes
   one-center:         62. kBytes
   HF        :         23. kBytes
   nonlr-proj:       1628. kBytes
   wavefun   :      38022. kBytes
 
     INWAV:  cpu time    1.8488: real time    1.8492
 Broyden mixing: mesh for mixing (old mesh)
   NGX = 47   NGY = 45   NGZ = 73
  (NGX  =192   NGY  =192   NGZ  =300)
  gives a total of 154395 points

 charge density for first step will be calculated from the start-wavefunctions


--------------------------------------------------------------------------------------------------------


 Maximum index for augmentation-charges          743 (set IRDMAX)


--------------------------------------------------------------------------------------------------------


 initial charge from wavefunction
 First call to EWALD:  gamma=   0.121
 Maximum number of real-space cells 3x 3x 2
 Maximum number of reciprocal cells 2x 2x 4

    FEWALD:  cpu time    0.0036: real time    0.0036


--------------------------------------- Iteration      1(   1)  ---------------------------------------


    POTLOK:  cpu time    1.3832: real time    1.3834
    SETDIJ:  cpu time    2.0838: real time    2.0889
    TRIAL :  cpu time   62.5219: real time   62.5486
    CORREC:  cpu time    0.0010: real time    0.0013
    CHARGE:  cpu time    0.1893: real time    0.1893
    --------------------------------------------
      LOOP:  cpu time   66.1842: real time   66.2309

 eigenvalue-minimisations  :     0
 total energy-change (2. order) :-0.5707585E+03  (-0.7945930E+01)
 number of electron     245.0000020 magnetization       1.0000669
 augmentation part       16.4433393 magnetization       0.9636257

 DIPCOR: dipole corrections for dipol
 direction  3 min pos     1,
 dipolmoment           0.000000     -0.000000      0.001958 electrons x Angstroem
 Tr[quadrupol]     -6793.003630

 energy correction for charged system         0.000000 eV
 dipol+quadrupol energy correction            0.000000 eV
 added-field ion interaction          0.000000 eV  (added to PSCEN)


 Free energy of the ion-electron system (eV)
  ---------------------------------------------------
  alpha Z        PSCENC =       100.63721980
  Ewald energy   TEWEN  =     39163.74415884
  -Hartree energ DENC   =    -48102.24967747
  -exchange      EXHF   =       553.43365518
  -V(xc)+E(xc)   XCENC  =       635.08060221
  PAW double counting   =     28217.36011673   -28354.57284108
  entropy T*S    EENTRO =        -0.00001986
  eigenvalues    EBANDS =     -3136.42748466
  atomic energy  EATOM  =     10352.23585582
  ---------------------------------------------------
  free energy    TOTEN  =      -570.75847115 eV

  energy without entropy =     -570.75845129  energy(sigma->0) =     -570.75846122
  exchange ACFDT corr.  =        -0.00009312  see jH, gK, PRB 81, 115126


--------------------------------------------------------------------------------------------------------




--------------------------------------- Iteration      1(   2)  ---------------------------------------


    POTLOK:  cpu time    1.4040: real time    1.4042
    SETDIJ:  cpu time    2.0884: real time    2.0885
    TRIAL :  cpu time   61.8988: real time   61.9103
    CORREC:  cpu time    0.0009: real time    0.0011
    CHARGE:  cpu time    0.1892: real time    0.1892
    --------------------------------------------
      LOOP:  cpu time   65.5835: real time   65.5954

 eigenvalue-minimisations  :     0
 total energy-change (2. order) :-0.7176175E+01  (-0.8892946E+01)
 number of electron     245.0000020 magnetization       1.0000087
 augmentation part       16.4053397 magnetization       0.9864582

 DIPCOR: dipole corrections for dipol
 direction  3 min pos     1,
 dipolmoment           0.000000     -0.000000      0.001746 electrons x Angstroem
 Tr[quadrupol]     -6792.798830

 energy correction for charged system         0.000000 eV
 dipol+quadrupol energy correction            0.000000 eV
 added-field ion interaction          0.000000 eV  (added to PSCEN)


 Free energy of the ion-electron system (eV)
  ---------------------------------------------------
  alpha Z        PSCENC =       100.63721977
  Ewald energy   TEWEN  =     39163.74415884
  -Hartree energ DENC   =    -48090.53434426
  -exchange      EXHF   =       553.24745664
  -V(xc)+E(xc)   XCENC  =       634.75356626
  PAW double counting   =     27929.86694530   -28068.18250659
  entropy T*S    EENTRO =        -0.00000277
  eigenvalues    EBANDS =     -3153.70297799
  atomic energy  EATOM  =     10352.23585582
  ---------------------------------------------------
  free energy    TOTEN  =      -577.93464607 eV

  energy without entropy =     -577.93464330  energy(sigma->0) =     -577.93464468
  exchange ACFDT corr.  =        -0.00001846  see jH, gK, PRB 81, 115126


--------------------------------------------------------------------------------------------------------




--------------------------------------- Iteration      1(   3)  ---------------------------------------


    POTLOK:  cpu time    1.4118: real time    1.4119
    SETDIJ:  cpu time    2.0860: real time    2.0861
    TRIAL :  cpu time   61.9703: real time   61.9758
    CORREC:  cpu time    0.0008: real time    0.0010
    CHARGE:  cpu time    0.1889: real time    0.1889
    --------------------------------------------
      LOOP:  cpu time   65.6598: real time   65.6658

 eigenvalue-minimisations  :     0
 total energy-change (2. order) :-0.7613983E+01  (-0.6525496E+01)
 number of electron     245.0000020 magnetization       1.0000009
 augmentation part       16.3700290 magnetization       1.0079235

 DIPCOR: dipole corrections for dipol
 direction  3 min pos     1,
 dipolmoment           0.000000     -0.000000      0.001679 electrons x Angstroem
 Tr[quadrupol]     -6792.564587

 energy correction for charged system         0.000000 eV
 dipol+quadrupol energy correction            0.000000 eV
 added-field ion interaction          0.000000 eV  (added to PSCEN)


 Free energy of the ion-electron system (eV)
  ---------------------------------------------------
  alpha Z        PSCENC =       100.63721977
  Ewald energy   TEWEN  =     39163.74415884
  -Hartree energ DENC   =    -48070.82466810
  -exchange      EXHF   =       552.94434819
  -V(xc)+E(xc)   XCENC  =       634.21591627
  PAW double counting   =     27587.20158787   -27724.43013353
  entropy T*S    EENTRO =        -0.00000022
  eigenvalues    EBANDS =     -3181.27291153
  atomic energy  EATOM  =     10352.23585582
  ---------------------------------------------------
  free energy    TOTEN  =      -585.54862918 eV

  energy without entropy =     -585.54862896  energy(sigma->0) =     -585.54862907
  exchange ACFDT corr.  =        -0.00000197  see jH, gK, PRB 81, 115126


--------------------------------------------------------------------------------------------------------




--------------------------------------- Iteration      1(   4)  ---------------------------------------


    POTLOK:  cpu time    1.4143: real time    1.4144
    SETDIJ:  cpu time    2.0882: real time    2.0882
    TRIAL :  cpu time   61.9839: real time   61.9895
    CORREC:  cpu time    0.0007: real time    0.0010
    CHARGE:  cpu time    0.1889: real time    0.1889
    --------------------------------------------
      LOOP:  cpu time   65.6785: real time   65.6845

 eigenvalue-minimisations  :     0
 total energy-change (2. order) :-0.5420572E+01  (-0.4010902E+01)
 number of electron     245.0000020 magnetization       1.0000004
 augmentation part       16.3846549 magnetization       1.0262424

 DIPCOR: dipole corrections for dipol
 direction  3 min pos     1,
 dipolmoment           0.000000     -0.000000      0.001728 electrons x Angstroem
 Tr[quadrupol]     -6792.480723

 energy correction for charged system         0.000000 eV
 dipol+quadrupol energy correction            0.000000 eV
 added-field ion interaction          0.000000 eV  (added to PSCEN)


 Free energy of the ion-electron system (eV)
  ---------------------------------------------------
  alpha Z        PSCENC =       100.63721977
  Ewald energy   TEWEN  =     39163.74415884
  -Hartree energ DENC   =    -48060.86485228
  -exchange      EXHF   =       552.88074507
  -V(xc)+E(xc)   XCENC  =       633.93397921
  PAW double counting   =     27320.43646561   -27456.49164127
  entropy T*S    EENTRO =        -0.00000001
  eigenvalues    EBANDS =     -3197.48113172
  atomic energy  EATOM  =     10352.23585582
  ---------------------------------------------------
  free energy    TOTEN  =      -590.96920117 eV

  energy without entropy =     -590.96920116  energy(sigma->0) =     -590.96920116
  exchange ACFDT corr.  =        -0.00000013  see jH, gK, PRB 81, 115126


--------------------------------------------------------------------------------------------------------




--------------------------------------- Iteration      1(   5)  ---------------------------------------


    POTLOK:  cpu time    1.4109: real time    1.4109
    SETDIJ:  cpu time    2.0863: real time    2.0863
    TRIAL :  cpu time   61.9671: real time   61.9739
    CORREC:  cpu time    0.0006: real time    0.0006
    CHARGE:  cpu time    0.1881: real time    0.1884
    --------------------------------------------
      LOOP:  cpu time   65.6549: real time   65.6620

 eigenvalue-minimisations  :     0
 total energy-change (2. order) :-0.3302457E+01  (-0.2330036E+01)
 number of electron     245.0000020 magnetization       1.0000004
 augmentation part       16.4031625 magnetization       1.0416484

 DIPCOR: dipole corrections for dipol
 direction  3 min pos     1,
 dipolmoment           0.000000     -0.000000      0.001772 electrons x Angstroem
 Tr[quadrupol]     -6792.554296

 energy correction for charged system         0.000000 eV
 dipol+quadrupol energy correction            0.000000 eV
 added-field ion interaction          0.000000 eV  (added to PSCEN)


 Free energy of the ion-electron system (eV)
  ---------------------------------------------------
  alpha Z        PSCENC =       100.63721978
  Ewald energy   TEWEN  =     39163.74415884
  -Hartree energ DENC   =    -48065.86784293
  -exchange      EXHF   =       553.14596478
  -V(xc)+E(xc)   XCENC  =       634.05718324
  PAW double counting   =     27164.35006197   -27300.80374470
  entropy T*S    EENTRO =        -0.00000000
  eigenvalues    EBANDS =     -3195.77051486
  atomic energy  EATOM  =     10352.23585582
  ---------------------------------------------------
  free energy    TOTEN  =      -594.27165808 eV

  energy without entropy =     -594.27165808  energy(sigma->0) =     -594.27165808
  exchange ACFDT corr.  =        -0.00000001  see jH, gK, PRB 81, 115126


--------------------------------------------------------------------------------------------------------




--------------------------------------- Iteration      1(   6)  ---------------------------------------


    POTLOK:  cpu time    1.4125: real time    1.4126
    SETDIJ:  cpu time    2.0824: real time    2.0825
    TRIAL :  cpu time   61.9527: real time   61.9649
    CORREC:  cpu time    0.0006: real time    0.0008
    CHARGE:  cpu time    0.1885: real time    0.1885
    --------------------------------------------
      LOOP:  cpu time   65.6391: real time   65.6517

 eigenvalue-minimisations  :     0
 total energy-change (2. order) :-0.1924532E+01  (-0.1366044E+01)
 number of electron     245.0000020 magnetization       1.0000004
 augmentation part       16.4052514 magnetization       1.0552198

 DIPCOR: dipole corrections for dipol
 direction  3 min pos     1,
 dipolmoment           0.000000     -0.000000      0.001789 electrons x Angstroem
 Tr[quadrupol]     -6792.665617

 energy correction for charged system         0.000000 eV
 dipol+quadrupol energy correction            0.000000 eV
 added-field ion interaction          0.000000 eV  (added to PSCEN)


 Free energy of the ion-electron system (eV)
  ---------------------------------------------------
  alpha Z        PSCENC =       100.63721978
  Ewald energy   TEWEN  =     39163.74415884
  -Hartree energ DENC   =    -48074.02183027
  -exchange      EXHF   =       553.47954156
  -V(xc)+E(xc)   XCENC  =       634.28474905
  PAW double counting   =     27093.83582475   -27230.61068319
  entropy T*S    EENTRO =        -0.00000000
  eigenvalues    EBANDS =     -3189.78102688
  atomic energy  EATOM  =     10352.23585582
  ---------------------------------------------------
  free energy    TOTEN  =      -596.19619053 eV

  energy without entropy =     -596.19619053  energy(sigma->0) =     -596.19619053
  exchange ACFDT corr.  =        -0.00000000  see jH, gK, PRB 81, 115126


--------------------------------------------------------------------------------------------------------




--------------------------------------- Iteration      1(   7)  ---------------------------------------


    POTLOK:  cpu time    1.4110: real time    1.4111
    SETDIJ:  cpu time    2.0832: real time    2.0833
    TRIAL :  cpu time   61.7210: real time   61.7298
    CORREC:  cpu time    0.0005: real time    0.0008
    CHARGE:  cpu time    0.1890: real time    0.1890
    --------------------------------------------
      LOOP:  cpu time   65.4072: real time   65.4164

 eigenvalue-minimisations  :     0
 total energy-change (2. order) :-0.1138289E+01  (-0.8134511E+00)
 number of electron     245.0000020 magnetization       1.0000004
 augmentation part       16.4123733 magnetization       1.0685300

 DIPCOR: dipole corrections for dipol
 direction  3 min pos     1,
 dipolmoment           0.000000     -0.000000      0.001781 electrons x Angstroem
 Tr[quadrupol]     -6792.735512

 energy correction for charged system         0.000000 eV
 dipol+quadrupol energy correction            0.000000 eV
 added-field ion interaction          0.000000 eV  (added to PSCEN)


 Free energy of the ion-electron system (eV)
  ---------------------------------------------------
  alpha Z        PSCENC =       100.63721978
  Ewald energy   TEWEN  =     39163.74415884
  -Hartree energ DENC   =    -48078.49288946
  -exchange      EXHF   =       553.71642745
  -V(xc)+E(xc)   XCENC  =       634.43345978
  PAW double counting   =     27073.17478441   -27209.63827369
  entropy T*S    EENTRO =        -0.00000000
  eigenvalues    EBANDS =     -3187.14522270
  atomic energy  EATOM  =     10352.23585582
  ---------------------------------------------------
  free energy    TOTEN  =      -597.33447976 eV

  energy without entropy =     -597.33447976  energy(sigma->0) =     -597.33447976
  exchange ACFDT corr.  =        -0.00000000  see jH, gK, PRB 81, 115126


--------------------------------------------------------------------------------------------------------




--------------------------------------- Iteration      1(   8)  ---------------------------------------


    POTLOK:  cpu time    1.4096: real time    1.4096
    SETDIJ:  cpu time    2.0829: real time    2.0830
    TRIAL :  cpu time   61.7073: real time   61.7145
    CORREC:  cpu time    0.0005: real time    0.0007
    CHARGE:  cpu time    0.1885: real time    0.1885
    --------------------------------------------
      LOOP:  cpu time   65.3913: real time   65.3988

 eigenvalue-minimisations  :     0
 total energy-change (2. order) :-0.6839234E+00  (-0.4902807E+00)
 number of electron     245.0000020 magnetization       1.0000004
 augmentation part       16.4228331 magnetization       1.0823171

 DIPCOR: dipole corrections for dipol
 direction  3 min pos     1,
 dipolmoment           0.000000     -0.000000      0.001763 electrons x Angstroem
 Tr[quadrupol]     -6792.758224

 energy correction for charged system         0.000000 eV
 dipol+quadrupol energy correction            0.000000 eV
 added-field ion interaction          0.000000 eV  (added to PSCEN)


 Free energy of the ion-electron system (eV)
  ---------------------------------------------------
  alpha Z        PSCENC =       100.63721977
  Ewald energy   TEWEN  =     39163.74415884
  -Hartree energ DENC   =    -48080.76989511
  -exchange      EXHF   =       553.86619185
  -V(xc)+E(xc)   XCENC  =       634.53133047
  PAW double counting   =     27076.32706395   -27212.79298465
  entropy T*S    EENTRO =        -0.00000000
  eigenvalues    EBANDS =     -3185.79734414
  atomic energy  EATOM  =     10352.23585582
  ---------------------------------------------------
  free energy    TOTEN  =      -598.01840319 eV

  energy without entropy =     -598.01840319  energy(sigma->0) =     -598.01840319
  exchange ACFDT corr.  =        -0.00000000  see jH, gK, PRB 81, 115126


--------------------------------------------------------------------------------------------------------




--------------------------------------- Iteration      1(   9)  ---------------------------------------


    POTLOK:  cpu time    1.4079: real time    1.4080
    SETDIJ:  cpu time    2.0820: real time    2.0822
    TRIAL :  cpu time   61.7996: real time   61.8041
    CORREC:  cpu time    0.0005: real time    0.0008
    CHARGE:  cpu time    0.1980: real time    0.1981
    --------------------------------------------
      LOOP:  cpu time   65.4904: real time   65.4954

 eigenvalue-minimisations  :     0
 total energy-change (2. order) :-0.4144812E+00  (-0.2990845E+00)
 number of electron     245.0000020 magnetization       1.0000004
 augmentation part       16.4264596 magnetization       1.0962589

 DIPCOR: dipole corrections for dipol
 direction  3 min pos     1,
 dipolmoment           0.000000     -0.000000      0.001758 electrons x Angstroem
 Tr[quadrupol]     -6792.752534

 energy correction for charged system         0.000000 eV
 dipol+quadrupol energy correction            0.000000 eV
 added-field ion interaction          0.000000 eV  (added to PSCEN)


 Free energy of the ion-electron system (eV)
  ---------------------------------------------------
  alpha Z        PSCENC =       100.63721977
  Ewald energy   TEWEN  =     39163.74415884
  -Hartree energ DENC   =    -48081.44180266
  -exchange      EXHF   =       553.94270301
  -V(xc)+E(xc)   XCENC  =       634.58182619
  PAW double counting   =     27088.20954116   -27224.88069377
  entropy T*S    EENTRO =        -0.00000000
  eigenvalues    EBANDS =     -3185.46169272
  atomic energy  EATOM  =     10352.23585582
  ---------------------------------------------------
  free energy    TOTEN  =      -598.43288435 eV

  energy without entropy =     -598.43288435  energy(sigma->0) =     -598.43288435
  exchange ACFDT corr.  =        -0.00000000  see jH, gK, PRB 81, 115126


--------------------------------------------------------------------------------------------------------




--------------------------------------- Iteration      1(  10)  ---------------------------------------


    POTLOK:  cpu time    1.4071: real time    1.4073
    SETDIJ:  cpu time    2.0826: real time    2.0826
    TRIAL :  cpu time   61.8262: real time   61.8316
    CORREC:  cpu time    0.0005: real time    0.0005
    CHARGE:  cpu time    0.1879: real time    0.1881
    --------------------------------------------
      LOOP:  cpu time   65.5065: real time   65.5125

 eigenvalue-minimisations  :     0
 total energy-change (2. order) :-0.2543582E+00  (-0.1835994E+00)
 number of electron     245.0000020 magnetization       1.0000004
 augmentation part       16.4277810 magnetization       1.1098965

 DIPCOR: dipole corrections for dipol
 direction  3 min pos     1,
 dipolmoment           0.000000     -0.000000      0.001758 electrons x Angstroem
 Tr[quadrupol]     -6792.738284

 energy correction for charged system         0.000000 eV
 dipol+quadrupol energy correction            0.000000 eV
 added-field ion interaction          0.000000 eV  (added to PSCEN)


 Free energy of the ion-electron system (eV)
  ---------------------------------------------------
  alpha Z        PSCENC =       100.63721977
  Ewald energy   TEWEN  =     39163.74415884
  -Hartree energ DENC   =    -48080.64253746
  -exchange      EXHF   =       553.96491690
  -V(xc)+E(xc)   XCENC  =       634.58420810
  PAW double counting   =     27101.71111207   -27238.36828312
  entropy T*S    EENTRO =        -0.00000000
  eigenvalues    EBANDS =     -3186.55389344
  atomic energy  EATOM  =     10352.23585582
  ---------------------------------------------------
  free energy    TOTEN  =      -598.68724251 eV

  energy without entropy =     -598.68724251  energy(sigma->0) =     -598.68724251
  exchange ACFDT corr.  =        -0.00000000  see jH, gK, PRB 81, 115126


--------------------------------------------------------------------------------------------------------




--------------------------------------- Iteration      1(  11)  ---------------------------------------


    POTLOK:  cpu time    1.3977: real time    1.4060
    SETDIJ:  cpu time    2.0832: real time    2.0833
    TRIAL :  cpu time   61.8201: real time   61.8246
    CORREC:  cpu time    0.0005: real time    0.0005
    CHARGE:  cpu time    0.1879: real time    0.1882
    --------------------------------------------
      LOOP:  cpu time   65.4916: real time   65.5048

 eigenvalue-minimisations  :     0
 total energy-change (2. order) :-0.1570716E+00  (-0.1124258E+00)
 number of electron     245.0000020 magnetization       1.0000004
 augmentation part       16.4308753 magnetization       1.1230712

 DIPCOR: dipole corrections for dipol
 direction  3 min pos     1,
 dipolmoment           0.000000     -0.000000      0.001762 electrons x Angstroem
 Tr[quadrupol]     -6792.730081

 energy correction for charged system         0.000000 eV
 dipol+quadrupol energy correction            0.000000 eV
 added-field ion interaction          0.000000 eV  (added to PSCEN)


 Free energy of the ion-electron system (eV)
  ---------------------------------------------------
  alpha Z        PSCENC =       100.63721977
  Ewald energy   TEWEN  =     39163.74415884
  -Hartree energ DENC   =    -48079.88437469
  -exchange      EXHF   =       553.97630946
  -V(xc)+E(xc)   XCENC  =       634.58063203
  PAW double counting   =     27114.10822557   -27250.72561635
  entropy T*S    EENTRO =        -0.00000000
  eigenvalues    EBANDS =     -3187.51672461
  atomic energy  EATOM  =     10352.23585582
  ---------------------------------------------------
  free energy    TOTEN  =      -598.84431416 eV

  energy without entropy =     -598.84431416  energy(sigma->0) =     -598.84431416
  exchange ACFDT corr.  =        -0.00000000  see jH, gK, PRB 81, 115126


--------------------------------------------------------------------------------------------------------




--------------------------------------- Iteration      1(  12)  ---------------------------------------


    POTLOK:  cpu time    1.3982: real time    1.3983
    SETDIJ:  cpu time    2.0867: real time    2.0868
    TRIAL :  cpu time   61.7287: real time   61.7405
    CORREC:  cpu time    0.0005: real time    0.0007
    CHARGE:  cpu time    0.1879: real time    0.1880
    --------------------------------------------
      LOOP:  cpu time   65.4044: real time   65.4166

 eigenvalue-minimisations  :     0
 total energy-change (2. order) :-0.9714540E-01  (-0.7036640E-01)
 number of electron     245.0000020 magnetization       1.0000004
 augmentation part       16.4323441 magnetization       1.1357954

 DIPCOR: dipole corrections for dipol
 direction  3 min pos     1,
 dipolmoment           0.000000     -0.000000      0.001769 electrons x Angstroem
 Tr[quadrupol]     -6792.730404

 energy correction for charged system         0.000000 eV
 dipol+quadrupol energy correction            0.000000 eV
 added-field ion interaction          0.000000 eV  (added to PSCEN)


 Free energy of the ion-electron system (eV)
  ---------------------------------------------------
  alpha Z        PSCENC =       100.63721978
  Ewald energy   TEWEN  =     39163.74415884
  -Hartree energ DENC   =    -48079.86124181
  -exchange      EXHF   =       553.99769499
  -V(xc)+E(xc)   XCENC  =       634.59204311
  PAW double counting   =     27124.29084844   -27260.98360849
  entropy T*S    EENTRO =        -0.00000000
  eigenvalues    EBANDS =     -3187.59443025
  atomic energy  EATOM  =     10352.23585582
  ---------------------------------------------------
  free energy    TOTEN  =      -598.94145957 eV

  energy without entropy =     -598.94145957  energy(sigma->0) =     -598.94145957
  exchange ACFDT corr.  =        -0.00000000  see jH, gK, PRB 81, 115126


--------------------------------------------------------------------------------------------------------




--------------------------------------- Iteration      1(  13)  ---------------------------------------


    POTLOK:  cpu time    1.3978: real time    1.3979
    SETDIJ:  cpu time    2.0804: real time    2.0804
    TRIAL :  cpu time   61.5454: real time   61.5530
    CORREC:  cpu time    0.0005: real time    0.0007
    CHARGE:  cpu time    0.1878: real time    0.1879
    --------------------------------------------
      LOOP:  cpu time   65.2142: real time   65.2221

 eigenvalue-minimisations  :     0
 total energy-change (2. order) :-0.6158544E-01  (-0.4555329E-01)
 number of electron     245.0000020 magnetization       1.0000004
 augmentation part       16.4325461 magnetization       1.1481212

 DIPCOR: dipole corrections for dipol
 direction  3 min pos     1,
 dipolmoment           0.000000     -0.000000      0.001776 electrons x Angstroem
 Tr[quadrupol]     -6792.733944

 energy correction for charged system         0.000000 eV
 dipol+quadrupol energy correction            0.000000 eV
 added-field ion interaction          0.000000 eV  (added to PSCEN)


 Free energy of the ion-electron system (eV)
  ---------------------------------------------------
  alpha Z        PSCENC =       100.63721978
  Ewald energy   TEWEN  =     39163.74415884
  -Hartree energ DENC   =    -48079.94450613
  -exchange      EXHF   =       554.02004616
  -V(xc)+E(xc)   XCENC  =       634.60340008
  PAW double counting   =     27131.86120060   -27268.57500603
  entropy T*S    EENTRO =        -0.00000000
  eigenvalues    EBANDS =     -3187.58541412
  atomic energy  EATOM  =     10352.23585582
  ---------------------------------------------------
  free energy    TOTEN  =      -599.00304501 eV

  energy without entropy =     -599.00304501  energy(sigma->0) =     -599.00304501
  exchange ACFDT corr.  =        -0.00000000  see jH, gK, PRB 81, 115126


--------------------------------------------------------------------------------------------------------




--------------------------------------- Iteration      1(  14)  ---------------------------------------


    POTLOK:  cpu time    1.3904: real time    1.3904
    SETDIJ:  cpu time    2.0855: real time    2.0856
    TRIAL :  cpu time   61.5737: real time   61.5784
    CORREC:  cpu time    0.0005: real time    0.0007
    CHARGE:  cpu time    0.1881: real time    0.1881
    --------------------------------------------
      LOOP:  cpu time   65.2402: real time   65.2452

 eigenvalue-minimisations  :     0
 total energy-change (2. order) :-0.4045026E-01  (-0.3065388E-01)
 number of electron     245.0000020 magnetization       1.0000004
 augmentation part       16.4333686 magnetization       1.1600823

 DIPCOR: dipole corrections for dipol
 direction  3 min pos     1,
 dipolmoment           0.000000     -0.000000      0.001774 electrons x Angstroem
 Tr[quadrupol]     -6792.737263

 energy correction for charged system         0.000000 eV
 dipol+quadrupol energy correction            0.000000 eV
 added-field ion interaction          0.000000 eV  (added to PSCEN)


 Free energy of the ion-electron system (eV)
  ---------------------------------------------------
  alpha Z        PSCENC =       100.63721978
  Ewald energy   TEWEN  =     39163.74415884
  -Hartree energ DENC   =    -48079.99360877
  -exchange      EXHF   =       554.04186848
  -V(xc)+E(xc)   XCENC  =       634.61341125
  PAW double counting   =     27137.05194311   -27273.75030427
  entropy T*S    EENTRO =        -0.00000000
  eigenvalues    EBANDS =     -3187.62403950
  atomic energy  EATOM  =     10352.23585582
  ---------------------------------------------------
  free energy    TOTEN  =      -599.04349527 eV

  energy without entropy =     -599.04349527  energy(sigma->0) =     -599.04349527
  exchange ACFDT corr.  =        -0.00000000  see jH, gK, PRB 81, 115126


--------------------------------------------------------------------------------------------------------




--------------------------------------- Iteration      1(  15)  ---------------------------------------


    POTLOK:  cpu time    1.3892: real time    1.3894
    SETDIJ:  cpu time    2.0864: real time    2.0865
    TRIAL :  cpu time   61.5878: real time   61.5996
    CORREC:  cpu time    0.0005: real time    0.0005
    CHARGE:  cpu time    0.2024: real time    0.2027
    --------------------------------------------
      LOOP:  cpu time   65.2687: real time   65.2809

 eigenvalue-minimisations  :     0
 total energy-change (2. order) :-0.2768562E-01  (-0.2167866E-01)
 number of electron     245.0000020 magnetization       1.0000004
 augmentation part       16.4336227 magnetization       1.1716956

 DIPCOR: dipole corrections for dipol
 direction  3 min pos     1,
 dipolmoment           0.000000     -0.000000      0.001765 electrons x Angstroem
 Tr[quadrupol]     -6792.739580

 energy correction for charged system         0.000000 eV
 dipol+quadrupol energy correction            0.000000 eV
 added-field ion interaction          0.000000 eV  (added to PSCEN)


 Free energy of the ion-electron system (eV)
  ---------------------------------------------------
  alpha Z        PSCENC =       100.63721977
  Ewald energy   TEWEN  =     39163.74415884
  -Hartree energ DENC   =    -48080.14084872
  -exchange      EXHF   =       554.06567105
  -V(xc)+E(xc)   XCENC  =       634.62712984
  PAW double counting   =     27140.25673148   -27276.98530495
  entropy T*S    EENTRO =        -0.00000000
  eigenvalues    EBANDS =     -3187.51179403
  atomic energy  EATOM  =     10352.23585582
  ---------------------------------------------------
  free energy    TOTEN  =      -599.07118089 eV

  energy without entropy =     -599.07118089  energy(sigma->0) =     -599.07118089
  exchange ACFDT corr.  =        -0.00000000  see jH, gK, PRB 81, 115126


--------------------------------------------------------------------------------------------------------




--------------------------------------- Iteration      1(  16)  ---------------------------------------


    POTLOK:  cpu time    1.3858: real time    1.3858
    SETDIJ:  cpu time    2.0844: real time    2.0845
    TRIAL :  cpu time   61.5308: real time   61.5368
    CORREC:  cpu time    0.0005: real time    0.0008
    CHARGE:  cpu time    0.1876: real time    0.1876
    --------------------------------------------
      LOOP:  cpu time   65.1920: real time   65.1984

 eigenvalue-minimisations  :     0
 total energy-change (2. order) :-0.1986620E-01  (-0.1601621E-01)
 number of electron     245.0000020 magnetization       1.0000004
 augmentation part       16.4332877 magnetization       1.1829760

 DIPCOR: dipole corrections for dipol
 direction  3 min pos     1,
 dipolmoment           0.000000     -0.000000      0.001762 electrons x Angstroem
 Tr[quadrupol]     -6792.740416

 energy correction for charged system         0.000000 eV
 dipol+quadrupol energy correction            0.000000 eV
 added-field ion interaction          0.000000 eV  (added to PSCEN)


 Free energy of the ion-electron system (eV)
  ---------------------------------------------------
  alpha Z        PSCENC =       100.63721977
  Ewald energy   TEWEN  =     39163.74415884
  -Hartree energ DENC   =    -48080.19056816
  -exchange      EXHF   =       554.08718912
  -V(xc)+E(xc)   XCENC  =       634.63903836
  PAW double counting   =     27141.91924919   -27278.66521495
  entropy T*S    EENTRO =        -0.00000000
  eigenvalues    EBANDS =     -3187.49797508
  atomic energy  EATOM  =     10352.23585582
  ---------------------------------------------------
  free energy    TOTEN  =      -599.09104709 eV

  energy without entropy =     -599.09104709  energy(sigma->0) =     -599.09104709
  exchange ACFDT corr.  =        -0.00000000  see jH, gK, PRB 81, 115126


--------------------------------------------------------------------------------------------------------




--------------------------------------- Iteration      1(  17)  ---------------------------------------


    POTLOK:  cpu time    1.3833: real time    1.3834
    SETDIJ:  cpu time    2.0803: real time    2.0803
    TRIAL :  cpu time   61.5341: real time   61.5389
    CORREC:  cpu time    0.0005: real time    0.0007
    CHARGE:  cpu time    0.1882: real time    0.1882
    --------------------------------------------
      LOOP:  cpu time   65.1886: real time   65.1937

 eigenvalue-minimisations  :     0
 total energy-change (2. order) :-0.1484272E-01  (-0.1221640E-01)
 number of electron     245.0000020 magnetization       1.0000004
 augmentation part       16.4333884 magnetization       1.1939710

 DIPCOR: dipole corrections for dipol
 direction  3 min pos     1,
 dipolmoment           0.000000     -0.000000      0.001762 electrons x Angstroem
 Tr[quadrupol]     -6792.740264

 energy correction for charged system         0.000000 eV
 dipol+quadrupol energy correction            0.000000 eV
 added-field ion interaction          0.000000 eV  (added to PSCEN)


 Free energy of the ion-electron system (eV)
  ---------------------------------------------------
  alpha Z        PSCENC =       100.63721977
  Ewald energy   TEWEN  =     39163.74415884
  -Hartree energ DENC   =    -48080.13690367
  -exchange      EXHF   =       554.10588624
  -V(xc)+E(xc)   XCENC  =       634.64845922
  PAW double counting   =     27142.58939589   -27279.33103631
  entropy T*S    EENTRO =        -0.00000000
  eigenvalues    EBANDS =     -3187.59892561
  atomic energy  EATOM  =     10352.23585582
  ---------------------------------------------------
  free energy    TOTEN  =      -599.10588981 eV

  energy without entropy =     -599.10588981  energy(sigma->0) =     -599.10588981
  exchange ACFDT corr.  =        -0.00000000  see jH, gK, PRB 81, 115126


--------------------------------------------------------------------------------------------------------




--------------------------------------- Iteration      1(  18)  ---------------------------------------


    POTLOK:  cpu time    1.3797: real time    1.3798
    SETDIJ:  cpu time    2.0824: real time    2.0824
    TRIAL :  cpu time   61.5688: real time   61.5742
    CORREC:  cpu time    0.0005: real time    0.0008
    CHARGE:  cpu time    0.1879: real time    0.1879
    --------------------------------------------
      LOOP:  cpu time   65.2218: real time   65.2275

 eigenvalue-minimisations  :     0
 total energy-change (2. order) :-0.1143231E-01  (-0.9611398E-02)
 number of electron     245.0000020 magnetization       1.0000004
 augmentation part       16.4334753 magnetization       1.2046208

 DIPCOR: dipole corrections for dipol
 direction  3 min pos     1,
 dipolmoment           0.000000     -0.000000      0.001760 electrons x Angstroem
 Tr[quadrupol]     -6792.740077

 energy correction for charged system         0.000000 eV
 dipol+quadrupol energy correction            0.000000 eV
 added-field ion interaction          0.000000 eV  (added to PSCEN)


 Free energy of the ion-electron system (eV)
  ---------------------------------------------------
  alpha Z        PSCENC =       100.63721977
  Ewald energy   TEWEN  =     39163.74415884
  -Hartree energ DENC   =    -48080.12906987
  -exchange      EXHF   =       554.12449073
  -V(xc)+E(xc)   XCENC  =       634.65914177
  PAW double counting   =     27142.76794407   -27279.52431022
  entropy T*S    EENTRO =        -0.00000000
  eigenvalues    EBANDS =     -3187.63275305
  atomic energy  EATOM  =     10352.23585582
  ---------------------------------------------------
  free energy    TOTEN  =      -599.11732212 eV

  energy without entropy =     -599.11732212  energy(sigma->0) =     -599.11732212
[...]
  augment    95.63501    99.44748   110.32696     0.26232     0.04277     0.00168
  Kinetic  3523.13777  3561.94748  4036.46378     2.84112     0.08970     0.03768
  Fock     -387.38144  -392.27696  -379.91801    -0.52863    -0.01705     0.00300
  -------------------------------------------------------------------------------------
  Total     -46.52683   -40.15139    -0.34421    -0.36758     0.00215     0.00143
  in kB     -23.46448   -20.24920    -0.17359    -0.18538     0.00108     0.00072
  external pressure =      -14.63 kB  Pullay stress =        0.00 kB


 VOLUME and BASIS-vectors are now :
 -----------------------------------------------------------------------------
  energy-cutoff  :      500.00
  volume of cell :     3176.90
      direct lattice vectors                 reciprocal lattice vectors
    12.776100000  0.000000000  0.000000000     0.078271147 -0.000168302 -0.000019160
     0.026845796 12.484971137  0.000000000     0.000000000  0.080096301  0.000016398
     0.004866568 -0.004077534 19.916698988     0.000000000  0.000000000  0.050209124

  length of vectors
    12.776100000 12.485000000 19.916700000     0.078271330  0.080096302  0.050209124


 FORCES acting on ions:
    Electron-Ion                     Ewald-Force                    Non-Local-Force
 -----------------------------------------------------------------------------------------------
   0.482E+01 0.476E+01 -.214E+00   -.516E+01 -.539E+01 0.215E+00   0.254E+00 0.595E+00 -.796E-04
   0.206E+01 0.175E+01 -.218E+00   -.217E+01 -.162E+01 0.218E+00   0.152E+00 -.241E-01 -.741E-03
   0.107E+02 0.261E+01 -.156E+00   -.108E+02 -.269E+01 0.156E+00   0.181E+00 0.824E-01 0.566E-03
   0.156E+02 0.134E+02 -.162E+00   -.159E+02 -.137E+02 0.163E+00   0.281E+00 0.345E+00 -.308E-03
   0.207E+02 0.384E+01 -.876E-01   -.216E+02 -.413E+01 0.888E-01   0.765E+00 0.242E+00 -.940E-03
   0.509E+01 -.327E+01 -.248E+00   -.540E+01 0.332E+01 0.248E+00   0.297E+00 -.124E-01 -.960E-03
   0.108E+02 0.194E+01 -.208E+00   -.114E+02 -.185E+01 0.208E+00   0.480E+00 -.159E+00 -.887E-03
   0.599E+02 -.695E+00 0.155E+00   -.637E+02 0.920E+00 -.151E+00   0.407E+01 -.368E+00 -.432E-02
   0.261E+02 -.144E+00 0.132E+00   -.268E+02 0.301E+00 -.131E+00   0.505E+00 0.111E-01 -.104E-03
   0.504E+01 -.163E+01 -.273E+00   -.545E+01 0.170E+01 0.272E+00   0.106E+00 -.544E-01 -.287E-03
   0.134E+02 -.202E+01 -.163E+00   -.137E+02 0.201E+01 0.164E+00   0.338E+00 -.982E-01 -.135E-02
   0.723E+02 -.502E+01 0.194E+00   -.767E+02 0.523E+01 -.187E+00   0.431E+01 -.135E+00 -.705E-02
   0.156E+02 -.123E+02 -.750E-01   -.156E+02 0.134E+02 0.744E-01   -.187E+00 -.133E+01 0.132E-02
   0.917E+00 0.675E+00 -.251E+00   -.112E+01 -.747E+00 0.252E+00   0.157E+00 0.189E-01 -.292E-03
   0.125E+02 -.330E+01 -.272E+00   -.123E+02 0.324E+01 0.272E+00   0.515E-01 0.761E-01 -.199E-02
   0.126E+02 -.644E+01 -.216E+00   -.109E+02 0.652E+01 0.214E+00   -.144E+01 0.371E-01 0.217E-02
   0.617E+01 0.404E+01 -.255E+00   -.559E+01 -.444E+01 0.256E+00   -.388E+00 0.543E+00 -.437E-03
   0.620E+00 0.210E+01 -.133E+00   -.848E+00 -.222E+01 0.134E+00   0.201E+00 0.816E-01 -.132E-04
   0.543E+01 0.861E+00 -.174E+00   -.532E+01 -.842E+00 0.174E+00   -.213E+00 0.571E-01 0.718E-03
   0.894E+01 0.192E+01 -.330E+00   -.888E+01 -.241E+01 0.329E+00   -.116E+00 0.333E+00 0.410E-03
   -.803E+01 0.654E+01 -.374E+00   0.808E+01 -.694E+01 0.374E+00   -.250E+00 0.292E+00 0.782E-03
   0.673E+01 0.238E+02 -.212E+00   -.636E+01 -.243E+02 0.213E+00   -.187E+00 0.786E+00 -.173E-02
   0.572E+00 0.833E+01 -.440E+00   -.309E-03 -.901E+01 0.440E+00   -.362E+00 0.522E+00 -.205E-02
   -.114E+02 0.104E+02 -.197E+00   0.113E+02 -.103E+02 0.197E+00   -.678E-01 0.130E+00 -.247E-02
   -.227E+02 0.314E+02 0.187E+00   0.238E+02 -.308E+02 -.188E+00   -.852E+00 -.649E+00 0.151E-02
   -.136E+02 0.569E+02 0.881E-01   0.159E+02 -.603E+02 -.831E-01   -.259E+01 0.325E+01 -.537E-02
   -.953E+01 -.168E+01 -.422E+00   0.100E+02 0.554E+00 0.419E+00   -.263E+00 0.121E+01 0.199E-02
   0.568E+01 -.122E+01 -.460E+00   -.547E+01 0.674E+00 0.462E+00   -.147E+00 0.457E+00 -.133E-02
   0.146E+01 -.517E+01 -.485E+00   -.156E+01 0.406E+01 0.485E+00   -.106E+00 0.114E+01 -.124E-03
   -.692E+01 -.108E+01 -.472E+00   0.678E+01 0.448E+00 0.475E+00   0.215E-01 0.469E+00 -.427E-02
   -.734E+01 0.130E+01 -.160E+00   0.718E+01 -.137E+01 0.159E+00   0.607E-01 0.918E-01 0.845E-03
   -.125E+02 0.585E+01 -.166E+00   0.128E+02 -.564E+01 0.165E+00   -.140E+00 -.686E-01 0.244E-03
   -.173E+01 0.642E+00 -.217E+00   0.185E+01 -.869E+00 0.218E+00   -.194E-01 0.200E+00 -.682E-03
   0.296E+01 0.139E+01 -.219E+00   -.319E+01 -.129E+01 0.219E+00   0.185E+00 -.455E-01 -.535E-03
   -.329E+01 -.469E+00 -.202E+00   0.322E+01 0.567E+00 0.202E+00   0.122E+00 -.875E-01 -.497E-03
   -.241E+02 -.235E+01 0.212E+00   0.234E+02 0.235E+01 -.211E+00   0.494E+00 -.737E-01 -.983E-03
   -.924E+01 -.210E+01 -.673E-01   0.916E+01 0.219E+01 0.680E-01   0.324E-01 -.222E+00 -.732E-03
   0.221E+01 -.160E+01 -.239E+00   -.229E+01 0.154E+01 0.239E+00   0.617E-01 0.265E-01 -.524E-03
   -.679E+01 -.183E+01 -.142E+00   0.652E+01 0.171E+01 0.142E+00   0.406E-01 0.183E-01 -.352E-03
   -.246E+02 -.249E+01 0.212E+00   0.253E+02 0.231E+01 -.213E+00   -.816E+00 0.319E+00 0.272E-02
   -.799E+01 0.123E+01 0.127E+00   0.802E+01 -.179E+01 -.126E+00   0.213E+00 0.539E+00 -.655E-04
   0.106E+01 -.162E+01 -.263E+00   -.809E+00 0.166E+01 0.262E+00   0.651E-01 -.122E-02 -.138E-02
   -.542E+01 -.118E+01 -.189E+00   0.513E+01 0.125E+01 0.188E+00   0.103E+00 -.183E-02 0.319E-03
   -.840E+01 0.419E+00 -.761E-01   0.665E+01 -.323E+00 0.739E-01   0.149E+01 -.150E-01 0.326E-02
   -.428E+01 -.587E+01 -.166E-01   0.411E+01 0.674E+01 0.156E-01   0.362E+00 -.966E+00 0.295E-03
   0.277E+01 0.753E+00 -.248E+00   -.283E+01 -.734E+00 0.248E+00   0.603E-01 -.384E-01 -.128E-02
   -.247E+01 0.195E+01 -.188E+00   0.230E+01 -.188E+01 0.188E+00   0.337E+00 0.336E-01 0.881E-03
   -.953E+01 0.138E+01 -.272E+00   0.960E+01 -.170E+01 0.269E+00   0.495E-01 0.184E+00 0.290E-02
   -.342E+01 0.602E+01 -.272E+00   0.289E+01 -.632E+01 0.273E+00   0.379E+00 0.495E+00 -.298E-02
   0.234E+01 0.140E+01 -.137E+00   -.248E+01 -.158E+01 0.138E+00   0.124E+00 0.556E-01 -.165E-04
   -.495E+02 -.306E+01 0.577E+00   0.483E+02 0.634E+01 -.586E+00   0.136E+01 -.321E+01 0.120E-01
   -.685E+02 -.164E+02 0.539E+00   0.646E+02 0.193E+02 -.558E+00   0.435E+01 -.321E+01 0.177E-01
   0.955E+00 0.963E+01 -.426E+00   0.238E+01 -.148E+02 0.420E+00   -.365E+01 0.503E+01 0.116E-02
   -.481E+01 0.216E+02 -.138E+00   0.152E+01 -.266E+02 0.129E+00   0.366E+01 0.509E+01 0.452E-02
   0.451E+02 0.101E+02 0.617E+00   -.359E+02 0.503E+01 -.657E+00   -.875E+01 -.142E+02 0.398E-01
   0.764E+02 -.358E+02 0.146E+01   -.630E+02 0.387E+02 -.152E+01   -.125E+02 -.281E+01 0.585E-01
   -.718E+02 0.520E+02 0.247E+01   0.763E+02 -.565E+02 -.246E+01   -.490E+01 0.374E+01 -.855E-02
   -.460E+02 -.161E+03 0.311E+01   0.460E+02 0.171E+03 -.304E+01   -.570E+00 -.844E+01 -.579E-01
 -----------------------------------------------------------------------------------------------
   0.138E+02 0.111E+02 -.513E-01   -.497E-13 0.000E+00 0.178E-14   -.128E+02 -.968E+01 0.412E-01
 
 
 POSITION                                       TOTAL-FORCE (eV/Angst)
 -----------------------------------------------------------------------------------
      2.84374     12.47353      9.95877        -0.076034     -0.003142      0.000902
      0.70484      1.24993      9.95874         0.045547      0.111422     -0.000682
      1.42769     12.47829      9.95875         0.081647      0.005524      0.000140
      3.52900      1.22927      9.95814        -0.060270      0.058580     -0.000303
      2.84957      2.48154      9.95756        -0.013822     -0.047836      0.000156
      0.71991      3.74383      9.95834        -0.005036      0.038238     -0.001025
      1.42094      2.49517      9.95834        -0.055250     -0.073431     -0.000612
      3.60884      3.71084      9.95596         0.475802     -0.167905     -0.000178
      2.89345      4.97134      9.95617        -0.176883      0.172066      0.000686
      0.73582      6.23372      9.95833        -0.309448      0.014816     -0.001566
      1.45938      4.98371      9.95775         0.098092     -0.113886     -0.000454
      3.59881      6.23705      9.95514         0.203734      0.070791     -0.000505
      2.87834      7.49963      9.95717        -0.232187     -0.256913      0.000780
      0.72963      8.73416      9.95876        -0.041385     -0.049095      0.000126
      1.45564      7.48454      9.95833         0.252204      0.021889     -0.001916
      3.62649      8.73904      9.95793         0.234206      0.124633     -0.000436
      2.87655      9.98154      9.95876         0.168686      0.170720      0.000818
      0.72741     11.22410      9.95876        -0.022057     -0.031851      0.000563
      1.44570      9.97971      9.95875        -0.109163      0.077826      0.000419
      3.55973     11.23477      9.95913        -0.065625     -0.144629     -0.001065
      7.09149      0.00491      9.95898        -0.211401     -0.089150      0.000954
      4.94938      1.22175      9.95796         0.181514      0.325894     -0.000744
      5.67497      0.00007      9.95911         0.192022     -0.131603     -0.001954
      7.80054      1.24070      9.95792        -0.184188      0.260343     -0.002131
      7.08214      2.47493      9.95598         0.232161     -0.094793      0.000891
      5.64456      2.44488      9.95614        -0.368691     -0.031787     -0.000634
      7.12324     10.03170      9.95875         0.223534      0.142192     -0.000697
      4.98246     11.25662      9.95937         0.064258     -0.075651      0.000332
      5.69613     10.04253      9.95895        -0.218570      0.080702     -0.000717
      7.83398     11.25314      9.95932        -0.119694     -0.148693     -0.001603
     11.35329     -0.00176      9.95875        -0.108930      0.025791      0.000176
      9.22346      1.25081      9.95815         0.126581      0.136588     -0.000481
      9.93662     -0.00006      9.95875         0.110511     -0.018392      0.000292
     12.05705      1.25227      9.95874        -0.036888      0.059705     -0.000589
     11.34960      2.50102      9.95834         0.054827      0.006268     -0.000597
      9.17809      3.74874      9.95595        -0.232486     -0.081125     -0.000232
      9.91677      2.50028      9.95755        -0.043523     -0.146848     -0.000100
     12.06906      3.74492      9.95833        -0.004351     -0.034723     -0.001056
     11.34885      4.99277      9.95776        -0.239613     -0.096313     -0.000162
      9.21680      6.24196      9.95560        -0.147466      0.163866      0.002127
      9.92625      4.99167      9.95636         0.253888      0.004829      0.000666
     12.07845      6.23822      9.95832         0.319867      0.043522     -0.002021
     11.35759      7.48846      9.95817        -0.191690      0.070345      0.000091
      9.18264      8.74084      9.95758        -0.190010      0.080948      0.001182
      9.93308      7.50076      9.95713         0.216114     -0.149448     -0.000689
     12.08146      8.73600      9.95873         0.007288     -0.021154     -0.000873
     11.36242      9.98062      9.95876         0.184371      0.114541      0.000284
      9.25445     11.24142      9.95897         0.114635     -0.132098      0.000583
      9.93191      9.98289      9.95872        -0.135725      0.225409     -0.001324
     12.07777     11.22581      9.95876        -0.010079     -0.122115      0.000786
      7.76813      3.71632      9.95440         0.229514     -0.098012      0.003529
      7.83436      6.33252      9.95360         0.663068     -0.411206     -0.001004
      5.04933      8.78554      9.95777        -0.506319      0.122245     -0.004096
      7.75485      8.75241      9.95712         0.562340      0.286639     -0.004702
      4.98082      3.64536      9.95459        -0.297611     -0.260020      0.003315
      4.92479      6.31846      9.95219        -0.241594     -0.207565     -0.000872
      6.34020      5.01514      9.95241        -0.294528     -0.359299      0.003864
      6.35807      7.30736      9.95133        -0.345892      0.582349      0.012362
 -----------------------------------------------------------------------------------
    total drift:                               -0.009238     -0.001340      0.000730


--------------------------------------------------------------------------------------------------------



  FREE ENERGIE OF THE ION-ELECTRON SYSTEM (eV)
  ---------------------------------------------------
  free  energy   TOTEN  =      -599.19924624 eV

  energy  without entropy=     -599.19924624  energy(sigma->0) =     -599.19924624
 


--------------------------------------------------------------------------------------------------------


    POTLOK:  cpu time    3.4470: real time    3.4472


--------------------------------------------------------------------------------------------------------


 stress matrix after NEB project (eV)
    -46.52683     -0.36758      0.00143
     -0.36758    -40.15139      0.00285
      0.00140      0.00215     -0.34421
  FORCES: max atom, RMS     0.780225    0.282605
  FORCE total and by dimension    2.152257    0.663068
  Stress total and by dimension   61.459489   46.526835
 writing wavefunctions
     LOOP+:  cpu time 5714.1253: real time 5715.7838
    4ORBIT:  cpu time    0.0000: real time    0.0000
 


 total charge     
 
# of ion       s       p       d       tot
------------------------------------------
    1        0.867   1.778   0.000   2.645
    2        0.864   1.762   0.000   2.625
    3        0.866   1.765   0.000   2.631
    4        0.871   1.762   0.000   2.633
    5        0.863   1.769   0.000   2.633
    6        0.861   1.760   0.000   2.622
    7        0.862   1.763   0.000   2.626
    8        0.855   1.710   0.000   2.565
    9        0.854   1.754   0.000   2.608
   10        0.857   1.751   0.000   2.609
   11        0.860   1.737   0.000   2.597
   12        0.863   1.737   0.000   2.600
   13        0.862   1.747   0.000   2.609
   14        0.862   1.757   0.000   2.619
   15        0.862   1.745   0.000   2.607
   16        0.859   1.738   0.000   2.598
   17        0.864   1.751   0.000   2.615
   18        0.863   1.763   0.000   2.626
   19        0.865   1.748   0.000   2.613
   20        0.866   1.773   0.000   2.639
   21        0.869   1.781   0.000   2.650
   22        0.873   1.801   0.000   2.674
   23        0.870   1.785   0.000   2.656
   24        0.870   1.768   0.000   2.639
   25        0.869   1.772   0.000   2.641
   26        0.869   1.754   0.000   2.624
   27        0.879   1.771   0.000   2.650
   28        0.873   1.791   0.000   2.664
   29        0.884   1.776   0.000   2.659
   30        0.872   1.783   0.000   2.655
   31        0.864   1.768   0.000   2.632
   32        0.865   1.765   0.000   2.630
   33        0.866   1.765   0.000   2.631
   34        0.865   1.756   0.000   2.621
   35        0.861   1.761   0.000   2.622
   36        0.860   1.747   0.000   2.606
   37        0.863   1.748   0.000   2.610
   38        0.862   1.754   0.000   2.617
   39        0.861   1.756   0.000   2.618
   40        0.866   1.781   0.000   2.647
   41        0.865   1.741   0.000   2.605
   42        0.861   1.741   0.000   2.601
   43        0.861   1.755   0.000   2.616
   44        0.859   1.740   0.000   2.599
   45        0.865   1.731   0.000   2.596
   46        0.864   1.754   0.000   2.617
   47        0.863   1.757   0.000   2.620
   48        0.866   1.776   0.000   2.642
   49        0.864   1.748   0.000   2.612
   50        0.864   1.759   0.000   2.622
   51        0.864   1.653   0.000   2.517
   52        0.914   1.505   0.000   2.419
   53        0.872   1.654   0.000   2.526
   54        0.867   1.628   0.000   2.495
   55        1.228   2.665   0.000   3.893
   56        1.261   2.561   0.000   3.823
   57        0.497   0.604   9.126  10.227
   58        0.557   0.853   6.394   7.804
--------------------------------------------------
tot         50.301 101.078  15.520 166.899
 


 magnetization (x)
 
# of ion       s       p       d       tot
------------------------------------------
    1        0.000   0.003   0.000   0.004
    2        0.001   0.007   0.000   0.008
    3       -0.001  -0.008   0.000  -0.008
    4       -0.000  -0.005   0.000  -0.005
    5        0.000   0.005   0.000   0.006
    6        0.001   0.008   0.000   0.009
    7       -0.000  -0.005   0.000  -0.006
    8       -0.000  -0.006   0.000  -0.006
    9       -0.000  -0.000   0.000  -0.000
   10        0.001   0.010   0.000   0.011
   11       -0.001  -0.016   0.000  -0.017
   12        0.001  -0.003   0.000  -0.002
   13       -0.000  -0.006   0.000  -0.006
   14        0.001   0.006   0.000   0.006
   15       -0.001  -0.009   0.000  -0.010
   16        0.000  -0.004   0.000  -0.004
   17       -0.000   0.003   0.000   0.002
   18        0.001   0.008   0.000   0.008
   19       -0.000  -0.004   0.000  -0.004
   20       -0.000  -0.001   0.000  -0.001
   21        0.001   0.010   0.000   0.011
   22        0.001   0.005   0.000   0.006
   23       -0.002  -0.027   0.000  -0.029
   24       -0.001  -0.013   0.000  -0.014
   25        0.001   0.013   0.000   0.015
   26       -0.001  -0.009   0.000  -0.010
   27       -0.000   0.017   0.000   0.017
   28        0.000   0.004   0.000   0.004
   29       -0.002  -0.020   0.000  -0.022
   30       -0.002  -0.013   0.000  -0.014
   31        0.001   0.008   0.000   0.008
   32        0.001   0.009   0.000   0.010
   33       -0.001  -0.014   0.000  -0.015
   34       -0.001  -0.009   0.000  -0.010
   35        0.001   0.012   0.000   0.013
   36        0.002   0.019   0.000   0.021
   37       -0.001  -0.007   0.000  -0.008
   38       -0.001  -0.013   0.000  -0.014
   39        0.002   0.017   0.000   0.019
   40        0.005   0.045   0.000   0.049
   41       -0.005  -0.055   0.000  -0.059
   42       -0.002  -0.035   0.000  -0.037
   43        0.002   0.019   0.000   0.021
   44        0.002   0.018   0.000   0.020
   45       -0.004  -0.060   0.000  -0.065
   46       -0.001  -0.014   0.000  -0.015
   47        0.001   0.012   0.000   0.013
   48        0.001   0.011   0.000   0.012
   49       -0.001  -0.010   0.000  -0.011
   50       -0.001  -0.006   0.000  -0.007
   51       -0.000  -0.017   0.000  -0.018
   52       -0.025  -0.215   0.000  -0.240
   53       -0.016  -0.065   0.000  -0.081
   54       -0.016  -0.089   0.000  -0.106
   55       -0.003  -0.008   0.000  -0.011
   56       -0.008  -0.111   0.000  -0.120
   57       -0.003  -0.003  -0.056  -0.062
   58        0.054   0.001   1.951   2.006
--------------------------------------------------
tot         -0.024  -0.609   1.895   1.263
 

 total amount of memory used by VASP MPI-rank0   137837. kBytes
=======================================================================

   base      :      30000. kBytes
   nonl-proj :       3779. kBytes
   fftplans  :      14248. kBytes
   grid      :      36827. kBytes
   one-center:         62. kBytes
   HF        :         23. kBytes
   nonlr-proj:      14876. kBytes
   wavefun   :      38022. kBytes
 
  
  
 General timing and accounting informations for this job:
 ========================================================
  
                  Total CPU time used (sec):     5763.915
                            User time (sec):     5747.811
                          System time (sec):       16.103
                         Elapsed time (sec):     5766.440
  
                   Maximum memory used (kb):      381440.
                   Average memory used (kb):           0.
  
                          Minor page faults:       315193
                          Major page faults:            0
                 Voluntary context switches:         1080
